/*--------------------------------*- C++ -*----------------------------------*\
  =========                 |
  \\      /  F ield         | OpenFOAM: The Open Source CFD Toolbox
   \\    /   O peration     | Website:  https://openfoam.org
    \\  /    A nd           | Version:  12
     \\/     M anipulation  |
\*---------------------------------------------------------------------------*/
FoamFile
{
    format      ascii;
    class       volScalarField;
    location    "900";
    object      p;
}
// * * * * * * * * * * * * * * * * * * * * * * * * * * * * * * * * * * * * * //

dimensions      [0 2 -2 0 0 0 0];

internalField   nonuniform List<scalar> 
7480
(
0.0060827401
0.0061139745
0.0060773505
0.0060660079
0.0060858128
0.0061004293
0.0061028743
0.0060693803
0.0059965955
0.0059057447
0.0057884369
0.0056447641
0.0054800597
0.0053004595
0.0051100396
0.0049198776
0.0047278433
0.0045390177
0.0043560071
0.0041842256
0.0040205369
0.0038652735
0.0037219505
0.0035923015
0.0034762175
0.0033743525
0.003287254
0.0032150368
0.0031570513
0.0031111918
0.003075804
0.0030474317
0.0030206439
0.0029919502
0.0029595107
0.0029232987
0.0028852319
0.002847331
0.0028095948
0.0027714489
0.0027325346
0.0026928565
0.0026533065
0.0026140342
0.0025745682
0.0025349919
0.0024957872
0.0024571964
0.0024186886
0.0023800298
0.0023414623
0.0023032728
0.0022652061
0.0022269327
0.0021887228
0.0021507045
0.0021125726
0.0020742266
0.0020359172
0.0019975868
0.0019589209
0.0019201463
0.001881259
0.0018419906
0.0018025011
0.0017627912
0.0017226573
0.0016822254
0.0016414714
0.001600232
0.0015586
0.0015165313
0.0014739713
0.0014309201
0.0013873309
0.0013432081
0.0012985168
0.0012532323
0.0012073436
0.00116083
0.00111368
0.0010658839
0.0010174352
0.00096833293
0.00091858395
0.00086820281
0.0008172224
0.00076568152
0.0007136768
0.00066126362
0.00060875428
0.00055604699
0.00050443625
0.0004523014
0.00040628581
0.00035429486
0.0003338521
0.00025640528
0.00053941962
-0.0004396447
0.006003217
0.0060294402
0.0059938349
0.0060031173
0.0060333611
0.0060514727
0.0060437222
0.0060131801
0.0059649343
0.0058923844
0.0057919435
0.0056648105
0.0055154447
0.0053487301
0.0051709177
0.0049846645
0.0047977653
0.0046108874
0.0044274175
0.0042539961
0.0040884176
0.0039308046
0.003783645
0.0036493308
0.0035288504
0.0034226654
0.0033311233
0.0032542675
0.0031912371
0.0031396662
0.0030982736
0.0030643879
0.0030331242
0.0030012998
0.0029671971
0.0029305157
0.0028927279
0.002855373
0.002818031
0.0027799596
0.0027408634
0.0027008919
0.0026610461
0.0026214963
0.0025817612
0.0025419194
0.0025024463
0.0024635841
0.0024248079
0.002385891
0.0023470753
0.0023086447
0.0022703419
0.0022318388
0.0021934091
0.0021551798
0.0021168441
0.0020783026
0.002039807
0.0020012983
0.0019624609
0.0019235231
0.0018844801
0.001845063
0.0018054324
0.0017655877
0.0017253252
0.0016847711
0.0016439006
0.0016025503
0.0015608128
0.0015186436
0.0014759881
0.0014328459
0.0013891703
0.0013449651
0.0013001954
0.0012548363
0.0012088766
0.0011622954
0.001115081
0.0010672235
0.0010187165
0.00096955853
0.00091975654
0.00086932491
0.0008182964
0.0007667097
0.00071466136
0.00066220662
0.00060965784
0.00055691295
0.00050526697
0.00045309808
0.0004070527
0.00035503117
0.00033454845
0.00025720261
0.00054027573
-0.0004389731
0.0059419038
0.0059801832
0.0059681122
0.0059824904
0.0060071481
0.0060177114
0.0060066585
0.0059781769
0.0059284601
0.0058496721
0.0057435494
0.0056122389
0.005459775
0.0052912341
0.0051122852
0.0049264694
0.0047416568
0.0045578855
0.0043788552
0.0042101735
0.0040507244
0.0039000471
0.0037597829
0.0036324369
0.0035193212
0.0034205894
0.0033364531
0.0032666451
0.0032100704
0.0031645275
0.0031270292
0.0030942207
0.0030623577
0.0030284358
0.0029911829
0.002950582
0.0029085309
0.0028673096
0.0028270294
0.0027870728
0.002747018
0.0027067795
0.0026670766
0.0026277446
0.0025880752
0.0025481221
0.0025084395
0.0024693372
0.0024303198
0.0023911786
0.0023521538
0.0023135226
0.0022750235
0.002236332
0.0021977262
0.0021593289
0.0021208296
0.0020821299
0.0020434835
0.0020048288
0.0019658494
0.0019267762
0.0018876025
0.0018480589
0.0018083074
0.0017683463
0.0017279714
0.0016873098
0.0016463359
0.0016048859
0.0015630532
0.0015207925
0.0014780492
0.0014348229
0.0013910665
0.0013467842
0.0013019404
0.0012565104
0.0012104827
0.0011638364
0.0011165598
0.0010686426
0.0010200784
0.00097086573
0.00092101135
0.00087052955
0.00081945302
0.00076782035
0.00071572805
0.00066323124
0.00061064234
0.00055785894
0.0005061768
0.00045397244
0.00040789631
0.00035583997
0.00033533752
0.00025807709
0.00054117249
-0.00043830358
0.0058849171
0.0059297136
0.0059289163
0.0059417948
0.0059619164
0.0059705779
0.0059606822
0.0059327652
0.0058829769
0.0058070952
0.0057069574
0.0055836503
0.0054401368
0.005280783
0.0051105958
0.0049332705
0.0047552666
0.0045772709
0.0044027797
0.0042363787
0.0040781459
0.0039275206
0.0037861785
0.003656744
0.0035405683
0.0034379615
0.0033493764
0.0032748863
0.0032139669
0.0031652516
0.0031254166
0.0030914109
0.0030605174
0.0030293765
0.0029960636
0.0029602175
0.0029224318
0.0028835129
0.0028438048
0.00280316
0.0027613448
0.002718626
0.002676398
0.0026350537
0.0025940924
0.0025534656
0.0025135891
0.0024745475
0.0024355924
0.0023964104
0.0023572584
0.002318461
0.0022797822
0.0022409117
0.0022021363
0.0021635729
0.0021249086
0.00208605
0.0020472535
0.0020084537
0.0019693323
0.0019301248
0.0018908216
0.0018511516
0.0018112797
0.0017712022
0.001730714
0.0016899442
0.0016488658
0.0016073146
0.0015653849
0.0015230307
0.0014801974
0.0014368847
0.0013930452
0.0013486831
0.0013037626
0.0012582591
0.0012121608
0.0011654467
0.0011181051
0.0010701255
0.0010215016
0.00097223159
0.00092232227
0.00087178782
0.00082066085
0.00076897984
0.00071684126
0.00066430012
0.00061166886
0.00055884478
0.00050712412
0.00045488216
0.0004087722
0.0003566785
0.00033615711
0.00025884476
0.00054205161
-0.00043769735
0.0058300549
0.0058788382
0.0058870455
0.0059016447
0.0059205878
0.0059284316
0.0059183485
0.0058900314
0.0058409704
0.0057677464
0.0056708656
0.0055511563
0.0054113804
0.0052556972
0.0050889003
0.0049147114
0.0047389213
0.004563157
0.0043906916
0.0042257234
0.0040690692
0.0039203366
0.0037810527
0.0036536162
0.003539363
0.0034386493
0.0033518053
0.003278809
0.0032189961
0.0031707518
0.0031307193
0.0030959137
0.0030636081
0.0030305378
0.0029951635
0.0029578993
0.0029194386
0.0028804975
0.0028419823
0.0028037802
0.0027652571
0.002726089
0.0026862624
0.0026458255
0.0026048432
0.0025632638
0.0025218553
0.0024812958
0.0024411797
0.0024012735
0.0023617874
0.0023229213
0.0022842476
0.0022453404
0.0022064803
0.0021678028
0.0021290089
0.0020900195
0.0020510954
0.0020121657
0.0019729131
0.0019335811
0.0018941566
0.0018543667
0.0018143799
0.0017741905
0.0017335925
0.0016927172
0.0016515363
0.0016098849
0.0015678588
0.001525411
0.0014824871
0.0014390868
0.0013951626
0.0013507187
0.0013057194
0.0012601396
0.001213968
0.0011671832
0.0011197735
0.0010717284
0.0010230414
0.00097371077
0.00092374313
0.00087315263
0.00082197178
0.00077023903
0.00071805076
0.00066546192
0.00061278488
0.00055991681
0.00050815407
0.0004558713
0.00040972305
0.00035758889
0.0003370406
0.00025963522
0.0005429572
-0.00043698103
0.0057779013
0.0058291986
0.0058448911
0.0058614699
0.0058790806
0.0058854893
0.0058747687
0.0058463264
0.0057980665
0.0057268215
0.0056326696
0.0055166479
0.0053813566
0.0052306222
0.0050689054
0.0048998414
0.0047286466
0.0045573879
0.0043890982
0.0042274378
0.0040735764
0.0039272852
0.0037900064
0.0036639479
0.003550491
0.0034501086
0.0033630804
0.0032893682
0.003228366
0.0031785535
0.0031368879
0.003100577
0.00306702
0.0030331965
0.0029976527
0.0029605066
0.0029220371
0.0028827809
0.0028435422
0.0028042189
0.0027645751
0.0027247333
0.0026845708
0.0026445803
0.0026051854
0.0025660855
0.0025270674
0.0024879274
0.0024484361
0.0024084347
0.002368234
0.0023284497
0.0022889648
0.0022494969
0.0022103445
0.0021715744
0.0021327505
0.0020937197
0.0020547336
0.0020157236
0.0019763786
0.0019369561
0.0018974372
0.0018575484
0.0018174651
0.0017771798
0.0017364856
0.001695517
0.0016542441
0.0016125017
0.0015703873
0.0015278527
0.0014848441
0.0014413612
0.0013973563
0.001352834
0.0013077584
0.0012621046
0.001215861
0.0011690065
0.0011215292
0.0010734187
0.0010246684
0.0009752766
0.00092524987
0.0008746023
0.00082336638
0.0007715805
0.000719341
0.00066670277
0.00061397812
0.00056106416
0.00050925709
0.00045693148
0.00041074148
0.00035856464
0.00033798278
0.00026048388
0.00054386755
-0.00043610277
0.005728173
0.0057807367
0.0058022932
0.0058205078
0.0058368701
0.0058420595
0.0058309695
0.0058026664
0.0057552226
0.0056858798
0.0055945747
0.0054823595
0.0053515722
0.0052056893
0.00504885
0.0048845941
0.0047176566
0.0045503702
0.0043855852
0.0042267194
0.00407509
0.0039307471
0.0037951261
0.003670308
0.0035576626
0.0034577035
0.0033707193
0.0032966717
0.0032350061
0.0031843077
0.0031417165
0.0031044953
0.0030701287
0.0030357677
0.0029998949
0.0029624692
0.00292376
0.0028843385
0.0028449722
0.0028056133
0.0027660668
0.0027262595
0.0026859751
0.0026456727
0.0026057124
0.0025660695
0.00252655
0.0024871363
0.0024482035
0.0024096507
0.0023712138
0.0023327083
0.0022939011
0.0022546148
0.0022151592
0.0021758839
0.002136563
0.0020971626
0.0020579828
0.0020189019
0.0019795181
0.001940059
0.0019004913
0.0018605417
0.0018203968
0.0017800452
0.001739279
0.0016982381
0.0016568915
0.0016150738
0.001572885
0.0015302761
0.0014871937
0.0014436379
0.0013995608
0.0013549677
0.0013098223
0.0012641
0.0012177894
0.0011708693
0.0011233279
0.001075155
0.0010263438
0.00097689271
0.00092680836
0.00087610482
0.00082481458
0.00077297603
0.00072068546
0.00066799778
0.00061522515
0.00056226477
0.00051041235
0.00045804306
0.00041180883
0.00035958805
0.00033896755
0.00026137086
0.00054474512
-0.00043505085
0.0056805131
0.0057332587
0.0057591905
0.0057787908
0.0057941931
0.0057984557
0.005787164
0.0057591225
0.0057125786
0.0056451832
0.0055567473
0.0054482449
0.0053217937
0.005180577
0.005028446
0.0048688356
0.0047060776
0.0045426828
0.0043813782
0.0042253589
0.004076085
0.0039338623
0.0038000679
0.0036766554
0.0035649678
0.0034655612
0.0033787399
0.0033044821
0.0032422439
0.0031906637
0.003147074
0.0031088248
0.0030735084
0.0030384434
0.0030020952
0.0029643597
0.0029254913
0.0028859976
0.0028465582
0.0028071429
0.0027675385
0.0027276456
0.0026873187
0.0026469873
0.0026069946
0.0025673075
0.0025276884
0.0024881375
0.0024489624
0.0024100874
0.0023712895
0.0023324551
0.0022938442
0.0022555334
0.0022172738
0.0021788784
0.0021401265
0.0021009227
0.002061612
0.002022247
0.0019825682
0.0019428985
0.0019032277
0.0018632284
0.001823055
0.0017826726
0.0017418673
0.0017007857
0.0016593933
0.0016175243
0.0015752822
0.001532617
0.0014894768
0.0014458622
0.0014017254
0.0013570726
0.0013118673
0.0012660853
0.0012197154
0.0011727365
0.001125137
0.0010769067
0.0010280391
0.00097853269
0.00092839402
0.0008776373
0.00082629506
0.00077440572
0.00072206559
0.00066932959
0.00061650975
0.00056350348
0.00051160562
0.00045919271
0.00041291242
0.0003606472
0.00033998339
0.0002622803
0.00054555937
-0.00043380417
0.0056345786
0.0056866799
0.0057157209
0.0057364601
0.0057511237
0.0057546493
0.0057432529
0.0057155844
0.0056700511
0.0056046426
0.0055190695
0.0054142159
0.005292015
0.005155385
0.005007903
0.0048528829
0.0046943123
0.0045348085
0.0043770063
0.004223895
0.0040770466
0.0039369802
0.0038050286
0.0036830347
0.0035723164
0.0034734711
0.0033868177
0.0033123462
0.0032495244
0.003197052
0.0031524509
0.0031131829
0.0030769271
0.0030411502
0.0030043408
0.0029663244
0.0029273021
0.0028877076
0.0028481479
0.0028086121
0.0027688986
0.0027289273
0.0026885839
0.0026482494
0.0026082463
0.0025685356
0.0025289006
0.002489347
0.0024501308
0.00241117
0.002372255
0.0023333087
0.0022945723
0.0022561076
0.00221756
0.0021788866
0.0021403507
0.0021019128
0.00206339
0.0020245872
0.0019853201
0.0019457843
0.0019060468
0.0018658752
0.001825533
0.0017850465
0.001744188
0.0017030814
0.0016616683
0.0016197746
0.0015775062
0.00153481
0.0014916342
0.0014479804
0.0014038012
0.0013591038
0.0013138521
0.0012680224
0.0012216038
0.0011745757
0.0011269266
0.0010786465
0.0010297292
0.00098017324
0.00092998538
0.00087917996
0.00082778958
0.00077585278
0.00072346588
0.00067068393
0.00061781874
0.00056476813
0.00051282565
0.00046037
0.00041404248
0.00036173305
0.00034102144
0.00026320283
0.00054628214
-0.00043233314
0.0055900769
0.0056409379
0.0056720238
0.0056936149
0.0057076752
0.0057105946
0.0056991693
0.0056719708
0.0056275382
0.005564142
0.0054814306
0.0053801939
0.0052621944
0.0051301021
0.0049872312
0.0048367618
0.0046823837
0.0045267645
0.004372464
0.0042222922
0.0040779039
0.0039400031
0.0038098965
0.0036893296
0.003579595
0.0034813251
0.0033948532
0.0033201808
0.0032567946
0.0032034586
0.0031578708
0.0031176059
0.0030804264
0.003043941
0.0030066669
0.0029683567
0.0029291573
0.0028894415
0.0028497529
0.0028100961
0.0027702854
0.002730248
0.002689882
0.0026495266
0.0026094852
0.0025697238
0.0025300508
0.0024904727
0.0024512232
0.0024122329
0.0023733074
0.0023343668
0.0022956059
0.0022570466
0.0022183807
0.0021796282
0.0021410243
0.0021024815
0.0020636945
0.0020247576
0.001985875
0.0019468818
0.0019076097
0.0018678734
0.0018277883
0.0017873716
0.0017464431
0.0017052278
0.0016637337
0.0016217944
0.0015795052
0.0015367953
0.0014936055
0.0014499353
0.0014057355
0.0013610136
0.0013157332
0.0012698716
0.0012234184
0.0011763534
0.0011286659
0.001080346
0.0010313879
0.00098179029
0.00093156032
0.00088071245
0.00082927946
0.00077730004
0.00072487058
0.00067204631
0.00061913881
0.00056604646
0.00051406115
0.00046156455
0.00041518932
0.00036283663
0.00034207305
0.00026412978
0.00054688705
-0.00043060422
0.0055467633
0.0055959634
0.0056282113
0.0056503504
0.0056638874
0.0056662978
0.0056548995
0.0056282397
0.0055849687
0.0055235952
0.005443735
0.0053460814
0.0052322349
0.0051046338
0.004966341
0.0048203931
0.0046702166
0.0045184858
0.0043676959
0.0042205015
0.004078617
0.0039429059
0.0038146607
0.0036955404
0.0035868118
0.0034891376
0.0034028665
0.003328013
0.0032640869
0.0032099166
0.0031633635
0.0031221165
0.0030840236
0.0030468273
0.0030090761
0.0029704567
0.0029310656
0.0028912194
0.0028514003
0.0028116228
0.0027717148
0.0027316065
0.0026912079
0.0026508232
0.0026107363
0.0025709236
0.0025312132
0.0024916071
0.0024523189
0.0024132894
0.002374332
0.0023353648
0.0022965681
0.0022579707
0.0022193022
0.0021805582
0.0021419163
0.0021032751
0.0020643974
0.0020254248
0.0019865248
0.0019473417
0.0019078595
0.0018682889
0.0018285484
0.0017884952
0.0017479462
0.0017070152
0.0016656544
0.0016237122
0.0015813616
0.0015385956
0.0014953748
0.0014516907
0.0014074833
0.0013627548
0.0013174652
0.0012715906
0.0012251203
0.0011780343
0.0011303223
0.0010819753
0.0010329876
0.00098335852
0.00093309549
0.00088221328
0.00083074492
0.00077872932
0.00072626298
0.0006734014
0.00062045587
0.00056732555
0.00051530021
0.00046276539
0.00041634271
0.00036394849
0.00034312918
0.00026505125
0.0005473528
-0.00042857909
0.0055044336
0.0055516835
0.0055843747
0.0056067628
0.0056198167
0.0056217896
0.0056104558
0.0055843798
0.0055423084
0.0054829519
0.0054059154
0.0053117978
0.0052020472
0.0050788863
0.0049451388
0.0048036889
0.0046577273
0.0045099005
0.004362643
0.0042184739
0.0040791469
0.0039456616
0.0038193037
0.003701656
0.0035939604
0.003496906
0.0034108577
0.0033358448
0.0032714034
0.0032164267
0.0031689292
0.0031267155
0.0030877202
0.0030498117
0.0030115729
0.0029726324
0.0029330379
0.0028930523
0.0028530981
0.0028131962
0.0027731871
0.0027330037
0.002692568
0.0026521516
0.002612019
0.0025721552
0.0025324048
0.0024927665
0.0024534339
0.0024143552
0.0023753563
0.0023363594
0.0022975293
0.0022588964
0.0022202097
0.0021814417
0.0021427578
0.0021040843
0.0020652138
0.0020262426
0.0019872722
0.0019480024
0.0019084909
0.0018689249
0.0018290494
0.0017888151
0.0017483425
0.0017076212
0.0016665243
0.0016249111
0.0015828329
0.0015402083
0.0014970146
0.0014533025
0.0014090618
0.0013643159
0.0013190203
0.001273144
0.001226672
0.0011795817
0.0011318618
0.0010835027
0.0010344992
0.00098485117
0.00093456627
0.00088365977
0.00083216504
0.00078012134
0.00072762534
0.00067473287
0.00062175492
0.00056859159
0.00051653012
0.00046396085
0.00041749178
0.00036505857
0.00034418024
0.00026595627
0.00054762552
-0.00042621465
0.0054629181
0.0055080263
0.0055405871
0.0055629429
0.0055755221
0.0055771083
0.0055658644
0.0055404017
0.0054995517
0.0054421941
0.0053679389
0.0052772973
0.0051715747
0.005052794
0.0049235522
0.004786575
0.0046448385
0.0045009348
0.0043572375
0.0042161458
0.0040794359
0.0039482202
0.0038237831
0.0037076408
0.0036010112
0.0035046063
0.0034188077
0.0033436611
0.0032787325
0.0032229797
0.003174562
0.0031314
0.0030915155
0.0030528958
0.0030141611
0.0029748888
0.0029350793
0.0028949442
0.0028548495
0.0028148194
0.002774706
0.0027344449
0.0026939682
0.0026535178
0.0026133384
0.0025734222
0.0025336297
0.0024939568
0.0024545782
0.0024154486
0.0023764065
0.0023373777
0.0022985101
0.002259832
0.0022211096
0.0021823122
0.0021435961
0.0021048965
0.0020660145
0.0020270185
0.0019880041
0.0019487233
0.001909224
0.0018696184
0.0018296743
0.0017894105
0.0017489491
0.0017081078
0.0016668654
0.0016252917
0.0015833562
0.0015409534
0.001498038
0.0014545642
0.0014104507
0.0013657378
0.0013204316
0.0012745402
0.001228062
0.0011809723
0.0011332551
0.0010848977
0.0010358931
0.00098624021
0.00093594664
0.00088502788
0.00083351768
0.00078145567
0.00072893879
0.00067602332
0.0006230199
0.0005698298
0.00051773726
0.00046513835
0.00041862484
0.000366156
0.00034521591
0.00026683532
0.00054765577
-0.00042347269
0.005422076
0.005464924
0.0054969049
0.0055189727
0.0055310621
0.005532296
0.0055211589
0.005496328
0.0054567099
0.0054013252
0.0053297989
0.0052425635
0.0051407913
0.0050263206
0.0049015348
0.0047689981
0.004631489
0.0044915248
0.0043514158
0.0042134535
0.0040794218
0.0039505248
0.0038280484
0.0037134505
0.003607926
0.0035122062
0.0034266901
0.0033514412
0.0032860579
0.0032295633
0.0031802534
0.0031361644
0.0030954063
0.0030560785
0.0030168412
0.0029772274
0.0029371918
0.0028968975
0.0028566571
0.0028164952
0.0027762748
0.0027359334
0.0026954118
0.0026549243
0.0026146966
0.0025747269
0.0025348906
0.0024951813
0.0024557558
0.0024165747
0.0023774885
0.0023384258
0.002299518
0.0022607919
0.0022220312
0.0021832032
0.0021444508
0.0021057137
0.0020668025
0.0020277775
0.0019887339
0.0019494413
0.0019099297
0.0018702912
0.001830327
0.0017900649
0.0017495828
0.0017086931
0.0016674282
0.0016258421
0.0015837966
0.0015413111
0.0014984083
0.0014550379
0.0014111351
0.0013666656
0.0013215508
0.0012757605
0.0012293124
0.0011822227
0.0011345027
0.0010861475
0.0010371483
0.000987501
0.00093721116
0.00088629295
0.00083477957
0.00078271068
0.00073018332
0.00067725423
0.00062423369
0.00057102434
0.00051890697
0.00046628434
0.00041972924
0.00036722899
0.00034622504
0.00026767571
0.00054740425
-0.00042030244
0.005381791
0.0054223141
0.0054533703
0.0054749252
0.0054864929
0.0054873958
0.0054763754
0.0054521863
0.0054138023
0.0053603596
0.0052915043
0.0052075989
0.0051096926
0.0049994532
0.0048790639
0.0047509268
0.0046176374
0.004481623
0.0043451268
0.0042103425
0.0040790488
0.0039525216
0.0038320496
0.0037190398
0.0036146643
0.0035196709
0.0034344755
0.0033591609
0.0032933602
0.0032361623
0.0031859918
0.0031410005
0.0030993866
0.0030593562
0.0030196115
0.0029796474
0.0029393754
0.0028989129
0.002858522
0.0028182251
0.0027778951
0.0027374708
0.0026969003
0.0026563728
0.0026160953
0.0025760712
0.0025361895
0.0024964421
0.0024569689
0.0024177355
0.0023786039
0.0023395054
0.0023005564
0.0022617816
0.0022229819
0.0021841216
0.0021453301
0.0021065515
0.0020676085
0.002028553
0.0019894745
0.0019501555
0.0019106171
0.0018709503
0.0018309725
0.0017906992
0.0017501982
0.0017092943
0.0016680182
0.0016264159
0.0015843454
0.0015418512
0.0014988952
0.0014554233
0.0014114733
0.0013670206
0.0013220191
0.0012764266
0.0012301824
0.0011832393
0.0011355932
0.001087263
0.0010382704
0.00098862823
0.00093834575
0.00088743575
0.0008359294
0.00078386488
0.00073133824
0.00067840614
0.00062537817
0.00057215836
0.00052002359
0.00046738426
0.00042079138
0.00036826477
0.00034719564
0.00026846164
0.00054683695
-0.00041664128
0.0053419672
0.0053801409
0.0054100142
0.0054308645
0.0054418684
0.0054424504
0.0054315512
0.0054080068
0.0053708517
0.005319317
0.0052530713
0.0051724161
0.0050782867
0.0049721936
0.0048561332
0.0047323472
0.0046032598
0.0044711981
0.0043383339
0.0042067703
0.0040782704
0.0039541639
0.0038357417
0.0037243661
0.0036211868
0.0035269648
0.0034421329
0.0033667941
0.0033006179
0.0032427587
0.0031917634
0.0031458975
0.0031034481
0.0030627231
0.003022468
0.0029821462
0.0029416287
0.0029009897
0.0028604436
0.0028200089
0.0027795668
0.0027390573
0.0026984344
0.0026578641
0.0026175355
0.0025774561
0.0025375276
0.0024977403
0.0024582184
0.0024189322
0.002379754
0.0023406183
0.002301627
0.0022628029
0.0022239629
0.0021850688
0.0021462368
0.0021074161
0.0020684404
0.0020293528
0.0019902357
0.0019508863
0.001911319
0.0018716207
0.0018316189
0.0017913217
0.001750795
0.0017098767
0.0016685892
0.0016269736
0.0015849
0.0015423911
0.001499417
0.0014559383
0.0014119652
0.0013674399
0.0013223637
0.0012767396
0.001230539
0.0011837277
0.0011362602
0.0010880923
0.0010392067
0.00098961647
0.00093935459
0.00088845505
0.00083695822
0.00078490361
0.0007323859
0.00067946044
0.00062643497
0.00057321434
0.00052107067
0.00046842268
0.00042179678
0.00036924962
0.00034811479
0.00026917881
0.00054592064
-0.00041243306
0.0053025259
0.0053383552
0.0053668584
0.0053868459
0.0053972392
0.0053975017
0.0053867233
0.0053638203
0.0053278831
0.0052782192
0.0052145195
0.0051370325
0.0050465883
0.0049445524
0.0048327469
0.0047132568
0.0045883447
0.0044602312
0.0043310119
0.0042027053
0.0040770498
0.0039554127
0.0038390857
0.0037293912
0.003627457
0.0035340543
0.0034496322
0.0033743145
0.0033078085
0.0032493336
0.0031975526
0.0031508431
0.0031075812
0.0030661718
0.0030254054
0.0029847201
0.0029439488
0.0029031257
0.0028624205
0.0028218454
0.0027812892
0.0027406923
0.0027000138
0.0026593981
0.0026190171
0.0025788818
0.0025389052
0.0024990764
0.0024595052
0.0024201654
0.0023809398
0.0023417652
0.0023027307
0.0022638569
0.0022249754
0.0021860461
0.0021471728
0.0021083092
0.0020692995
0.0020301784
0.0019910215
0.0019516406
0.0019120438
0.0018723113
0.0018322815
0.0017919574
0.0017514014
0.0017104609
0.0016691525
0.0016275152
0.0015854274
0.001542905
0.0014999245
0.0014564471
0.0014124635
0.0013679258
0.0013228323
0.0012771624
0.0012308988
0.001184039
0.00113657
0.0010884748
0.0010397259
0.00099028943
0.00094015064
0.00088932483
0.00083786354
0.00078582632
0.00073332056
0.00068040605
0.00062738954
0.00057417618
0.00052203186
0.0004693837
0.00042273031
0.00037016896
0.00034896887
0.00026981125
0.00054458841
-0.00040761659
0.0052634028
0.0052969149
0.0053239179
0.0053429169
0.0053526528
0.0053525906
0.0053419283
0.0053196581
0.005284922
0.0052370891
0.0051758704
0.0051014678
0.0050146155
0.0049165443
0.0048089149
0.0046936598
0.0045728887
0.0044487116
0.0043231442
0.0041981241
0.004075358
0.003956236
0.0038420482
0.0037340815
0.003633442
0.0035409082
0.0034569447
0.0033816967
0.0033149096
0.0032558677
0.0032033435
0.0031558244
0.0031117753
0.003069694
0.0030284176
0.0029873641
0.0029463322
0.0029053182
0.0028644501
0.0028237325
0.0027830604
0.0027423744
0.0027016373
0.0026609739
0.0026205395
0.0025803477
0.002540322
0.0025004504
0.0024608291
0.0024214354
0.0023821614
0.0023429467
0.0023038682
0.0022649441
0.00222602
0.0021870542
0.0021481389
0.0021092317
0.0020701868
0.0020310311
0.0019918337
0.0019524203
0.0019127928
0.0018730248
0.0018329657
0.0017926138
0.0017520268
0.0017110609
0.0016697279
0.0016280647
0.0015859554
0.0015434134
0.0015004166
0.0014569255
0.0014129305
0.0013683898
0.0013232949
0.0012776195
0.0012313426
0.0011844529
0.0011369371
0.001088793
0.0010400193
0.00099061355
0.00094056991
0.000889876
0.00083853901
0.00078658866
0.00073413083
0.00068124055
0.00062823764
0.00057503525
0.0005228951
0.00047025326
0.00042357733
0.00037100794
0.00034974385
0.00027034121
0.00054278168
-0.00040212654
0.0052245456
0.0052557844
0.005281203
0.0052991178
0.0053081525
0.0053077559
0.0052972018
0.0052755516
0.0052419948
0.0051959502
0.0051371458
0.005065743
0.0049823876
0.0048881866
0.0047846503
0.0046735642
0.0045568931
0.004436634
0.0043147195
0.0041930089
0.0040731713
0.0039566068
0.0038446009
0.0037384078
0.0036391124
0.003547498
0.0034640437
0.0033889162
0.0033218995
0.003262342
0.0032091198
0.0031608277
0.0031160192
0.003073281
0.0030314977
0.0029900731
0.0029487746
0.0029075637
0.0028665295
0.0028256676
0.0027848783
0.0027441017
0.0027033033
0.0026625902
0.0026221015
0.002581853
0.0025417773
0.0025018616
0.0024621898
0.0024227419
0.0023834188
0.0023441628
0.0023050395
0.0022660646
0.0022270971
0.0021880937
0.0021491356
0.0021101841
0.0020711029
0.0020319116
0.0019926731
0.0019532261
0.0019135668
0.0018737626
0.0018336732
0.0017932925
0.0017526734
0.0017116808
0.001670322
0.0016286312
0.0015864982
0.0015439331
0.0015009145
0.0014574032
0.0014133905
0.0013688362
0.0013237301
0.001278048
0.0012317683
0.0011848758
0.0011373532
0.0010891904
0.0010403821
0.00099093359
0.00094085698
0.00089016826
0.00083889265
0.00078704855
0.00073470622
0.0006819072
0.00062895936
0.00057578604
0.00052365634
0.00047102415
0.00042432755
0.00037175364
0.00035042658
0.00027075023
0.00054044574
-0.00039589757
0.005185912
0.0052149341
0.0052387204
0.0052554821
0.0052637782
0.005263035
0.0052525785
0.0052315316
0.0051991279
0.0051548263
0.0050983683
0.0050298795
0.0049499251
0.0048594976
0.0047599678
0.0046529805
0.004540362
0.0044239963
0.0043057301
0.004187346
0.0040704703
0.0039565019
0.0038467183
0.0037423435
0.0036444413
0.0035537972
0.003470904
0.0033959499
0.0033287574
0.0032687375
0.0032148653
0.0031658394
0.0031203013
0.0030769235
0.0030346384
0.0029928413
0.0029512715
0.0029098586
0.0028686554
0.002827648
0.0027867403
0.0027458719
0.0027050098
0.0026642452
0.0026237017
0.0025833963
0.0025432699
0.0025033093
0.0024635865
0.0024240842
0.0023847115
0.0023454132
0.0023062443
0.0022672185
0.0022282066
0.0021891645
0.0021501632
0.0021111667
0.0020720481
0.0020328204
0.0019935403
0.0019540586
0.0019143666
0.0018745255
0.0018344049
0.0017939943
0.0017533423
0.0017123221
0.0016709365
0.0016292171
0.0015870592
0.0015444696
0.0015014274
0.0014578941
0.0014138603
0.0013692868
0.001324163
0.0012784659
0.0012321745
0.0011852739
0.0011377468
0.0010895812
0.001040769
0.00099130885
0.00094120751
0.00089048327
0.00083917392
0.00078732098
0.0007350153
0.00068229831
0.00062945122
0.0005763661
0.00052428927
0.00047168749
0.00042497646
0.00037239902
0.00035100828
0.00027102153
0.00053752978
-0.00038886908
0.0051474681
0.0051743399
0.0051964746
0.0052120384
0.0052195657
0.0052184628
0.0052080916
0.0051876286
0.0051563481
0.0051137415
0.0050595608
0.0049938993
0.004917249
0.0048304966
0.0047348835
0.0046319204
0.0045233016
0.0044107988
0.0042961705
0.0041811238
0.0040672377
0.0039559005
0.0038483774
0.0037458643
0.0036494035
0.003559781
0.0034775018
0.0034027754
0.0033354627
0.0032750359
0.0032205637
0.0031708456
0.0031246101
0.003080612
0.0030378325
0.002995663
0.0029538184
0.002912199
0.0028708247
0.0028296706
0.0027886436
0.0027476824
0.0027067548
0.002665937
0.0026253383
0.002584976
0.0025447986
0.0025047921
0.0024650184
0.0024254617
0.0023860389
0.0023466972
0.0023074824
0.0022684053
0.0022293483
0.0021902667
0.0021512214
0.0021121795
0.0020730226
0.0020337577
0.0019944353
0.0019549181
0.0019151925
0.0018753139
0.0018351611
0.00179472
0.0017540344
0.0017129856
0.0016715724
0.0016298236
0.0015876398
0.0015450248
0.0015019579
0.0014584015
0.0014143452
0.0013697506
0.0013246067
0.0012788908
0.0012325823
0.0011856665
0.0011381268
0.001089952
0.0010411342
0.0009916706
0.00094156602
0.00089083394
0.00083950666
0.00078762485
0.0007352872
0.00068255361
0.00062972498
0.00057670056
0.00052470356
0.00047218069
0.00042549438
0.0003729318
0.00035148412
0.0002711427
0.00053399741
-0.00038099399
0.0051091876
0.0051339823
0.0051544688
0.0051688101
0.0051755471
0.005174072
0.0051637726
0.0051438719
0.0051136816
0.00507272
0.0050207462
0.0049578247
0.0048843807
0.0048012035
0.0047094145
0.004610397
0.0045057197
0.0043970433
0.0042860371
0.0041743327
0.0040634585
0.0039547834
0.0038495568
0.0037489469
0.0036539751
0.0035654255
0.003483814
0.003409371
0.0033419953
0.0032812187
0.0032261987
0.0031758323
0.0031289336
0.0030843369
0.0030410723
0.0029985321
0.0029564104
0.0029145812
0.0028730338
0.0028317324
0.0027905856
0.0027495307
0.0027085359
0.0026676637
0.0026270095
0.0025865905
0.0025463618
0.0025063089
0.0024664841
0.0024268732
0.0023874
0.0023480144
0.0023087531
0.0022696247
0.002230522
0.0021913998
0.0021523102
0.0021132223
0.0020740262
0.0020347234
0.0019953584
0.0019558047
0.0019160448
0.0018761281
0.0018359423
0.0017954698
0.00175475
0.0017136718
0.0016722302
0.0016304512
0.0015882408
0.0015455995
0.0015025073
0.0014589268
0.0014148469
0.0013702304
0.0013250652
0.0012793291
0.0012330014
0.0011860674
0.001138511
0.0010903211
0.0010414904
0.00099201669
0.00094190522
0.00089116887
0.00083983805
0.0007879498
0.00073559792
0.00068283994
0.0006299805
0.00057693424
0.00052493793
0.00047245583
0.0004258063
0.00037329257
0.0003518248
0.00027108881
0.00052984507
-0.00037225529
0.00507105
0.0050938466
0.0051127056
0.0051258171
0.0051317507
0.005129893
0.0051196514
0.0051002901
0.0050711545
0.0050317858
0.0049819477
0.0049216783
0.0048513421
0.0047716389
0.0046835786
0.0045884247
0.0044876254
0.0043827333
0.0042753276
0.0041669645
0.0040591188
0.0039531329
0.0038502361
0.0037515693
0.0036581329
0.0035707072
0.0034898177
0.0034157151
0.003348335
0.0032872673
0.0032317538
0.0031807852
0.0031332596
0.003088088
0.0030443499
0.0030014426
0.0029590429
0.0029170012
0.0028752794
0.0028338303
0.0027925634
0.0027514144
0.002710351
0.0026694231
0.0026287133
0.0025882379