/*--------------------------------*- C++ -*----------------------------------*\
  =========                 |
  \\      /  F ield         | OpenFOAM: The Open Source CFD Toolbox
   \\    /   O peration     | Website:  https://openfoam.org
    \\  /    A nd           | Version:  12
     \\/     M anipulation  |
\*---------------------------------------------------------------------------*/
FoamFile
{
    format      ascii;
    class       volScalarField;
    location    "900";
    object      yPlus;
}
// * * * * * * * * * * * * * * * * * * * * * * * * * * * * * * * * * * * * * //

dimensions      [];

internalField   uniform 0;

boundaryField
{
    inlet
    {
        type            calculated;
        value           uniform 0;
    }
    top
    {
        type            calculated;
        value           uniform 0;
    }
    outlet
    {
        type            calculated;
        value           uniform 0;
    }
    slipsurface
    {
        type            calculated;
        value           uniform 0;
    }
    bottom
    {
        type            calculated;
        value           nonuniform List<scalar> 
100
(
15.306003
18.437295
22.35155
26.923888
32.133081
37.937176
44.242147
50.89443
57.687846
64.37556
70.695012
76.413274
81.352165
85.404897
88.536724
90.789533
92.193172
93.14957
93.117346
92.849969
92.260386
91.437411
90.464669
89.415142
88.352079
87.330529
86.398084
85.593673
84.946114
84.469553
84.157108
83.978606
83.885185
83.822134
83.744771
83.628403
83.46869
83.27475
83.059637
82.833141
82.599502
82.359117
82.111734
81.858611
81.60252
81.346444
81.092371
80.84105
80.592543
80.346834
80.10402
79.864164
79.627302
79.393388
79.162339
78.934098
78.70862
78.485827
78.265635
78.048037
77.832963
77.620291
77.409925
77.2018
76.995858
76.792058
76.590353
76.390692
76.193026
75.997308
75.803487
75.611517
75.42136
75.232968
75.046299
74.861313
74.677974
74.496245
74.31609
74.137476
73.960368
73.784735
73.610543
73.437761
73.266358
73.096301
72.927558
72.760097
72.593884
72.428873
72.265041
72.102299
71.940683
71.779864
71.620303
71.460359
71.303097
71.138361
70.998665
70.740882
)
;
    }
    frontandback
    {
        type            empty;
    }
}


// ************************************************************************* //
