/*--------------------------------*- C++ -*----------------------------------*\
  =========                 |
  \\      /  F ield         | OpenFOAM: The Open Source CFD Toolbox
   \\    /   O peration     | Website:  https://openfoam.org
    \\  /    A nd           | Version:  12
     \\/     M anipulation  |
\*---------------------------------------------------------------------------*/
FoamFile
{
    format      ascii;
    class       volScalarField;
    location    "1600";
    object      k;
}
// * * * * * * * * * * * * * * * * * * * * * * * * * * * * * * * * * * * * * //

dimensions      [0 2 -2 0 0 0 0];

internalField   nonuniform List<scalar> 
7480
(
1.1597678e-08
1.13096e-08
1.1030078e-08
1.0791045e-08
1.0621613e-08
1.0535934e-08
1.0573901e-08
1.0684501e-08
1.0901184e-08
1.1133983e-08
1.1857123e-08
1.0637122e-08
5.4424625e-05
0.0014634692
0.0037589897
0.0058277646
0.0072544095
0.0080447281
0.0084667521
0.0084516558
0.0083613825
0.0081940053
0.0079883407
0.007771204
0.007551599
0.0073339857
0.0071224368
0.0069224636
0.006739466
0.0065708204
0.0064162814
0.0062763754
0.0061513034
0.006040639
0.0059433765
0.0058581807
0.0057834631
0.0057177413
0.0056600136
0.0056095266
0.0055652861
0.0055261229
0.0054910107
0.0054589321
0.0054294466
0.0054012596
0.0053741077
0.0053475508
0.0053211585
0.0052946488
0.0052677149
0.0052399924
0.0052112454
0.005181467
0.0051508287
0.0051195643
0.0050878983
0.0050560588
0.0050242482
0.0049925983
0.0049611727
0.0049300031
0.0048991312
0.0048686288
0.0048385659
0.0048089793
0.0047799047
0.0047513678
0.0047233373
0.0046957365
0.0046685082
0.0046416446
0.0046151583
0.0045890558
0.0045633574
0.0045380853
0.0045132141
0.0044886903
0.0044644794
0.0044405793
0.0044170009
0.0043937627
0.0043708784
0.0043483242
0.0043260552
0.0043040559
0.0042823255
0.0042608788
0.0042397307
0.0042188566
0.0041982212
0.0041778135
0.0041576399
0.0041376889
0.0041179832
0.0040983331
0.0040791247
0.0040588241
0.0040416474
0.0040102645
1.1746213e-08
1.1667255e-08
1.1585701e-08
1.1501449e-08
1.1414377e-08
1.1324496e-08
1.1232481e-08
1.1138284e-08
1.1044273e-08
1.0941165e-08
1.0871512e-08
1.0658072e-08
5.2505673e-07
1.3690782e-05
8.4801931e-05
0.00028312714
0.00060079464
0.00096822057
0.0013222287
0.001603918
0.0018119156
0.0019676808
0.0020990245
0.0022247497
0.0023814909
0.002554852
0.0027520185
0.0030001822
0.0032669355
0.0035413639
0.0038140658
0.0040763473
0.004320486
0.0045406079
0.0047330583
0.0048968929
0.0050317545
0.0051411534
0.0052319593
0.0053079775
0.0053685881
0.0054143658
0.0054472573
0.0054677832
0.0054799559
0.0054781258
0.0054707745
0.0054571042
0.0054380513
0.0054145513
0.0053872351
0.005356586
0.0053237453
0.005290113
0.0052568183
0.0052244657
0.0051933434
0.0051635987
0.0051348209
0.0051067298
0.0050792657
0.0050524643
0.0050263335
0.0050008661
0.0049760568
0.0049518744
0.0049283005
0.0049050845
0.0048818624
0.0048584928
0.0048350682
0.0048117465
0.0047886488
0.004765843
0.0047433961
0.0047212441
0.0046991858
0.0046771131
0.0046550797
0.0046332059
0.004611575
0.0045902577
0.0045691984
0.0045482528
0.0045273609
0.0045065772
0.0044859801
0.0044656521
0.004445556
0.0044255873
0.0044057088
0.0043859592
0.004366411
0.0043470737
0.0043278785
0.0043087664
0.0042897842
0.0042705527
0.0042534512
0.0042232957
1.1764188e-08
1.1686342e-08
1.16073e-08
1.1526838e-08
1.1444902e-08
1.1361483e-08
1.1276548e-08
1.1190219e-08
1.1101959e-08
1.1013673e-08
1.0916364e-08
1.0848534e-08
5.4719113e-09
2.373617e-08
3.9108624e-07
2.6855204e-06
1.1331215e-05
2.9888298e-05
6.0270142e-05
0.00010168944
0.00015134621
0.0002057825
0.00026228304
0.0003188102
0.00037784906
0.00044128346
0.00051116068
0.00059402177
0.00069342016
0.00081630356
0.00097678517
0.001159259
0.0013577473
0.0015705162
0.0017962982
0.0020330491
0.0022790836
0.0025331903
0.0027858973
0.0030295735
0.0032580633
0.0034643049
0.0036443726
0.0038001672
0.0039354507
0.0040541016
0.0041555373
0.0042395472
0.0043075108
0.0043616044
0.0043997195
0.0044265143
0.0044457883
0.0044596921
0.0044692526
0.0044750985
0.0044781308
0.0044792609
0.0044790134
0.0044775224
0.0044749721
0.0044715556
0.0044674049
0.0044626859
0.0044575322
0.0044519846
0.0044460597
0.0044394224
0.0044318155
0.004423348
0.004414233
0.004404624
0.0043946276
0.0043843269
0.0043738263
0.0043630033
0.0043516359
0.0043397255
0.0043274272
0.0043148942
0.0043022127
0.0042894784
0.0042765873
0.0042633868
0.0042498748
0.0042361643
0.0042223601
0.0042085683
0.0041947142
0.0041806822
0.0041664725
0.0041521645
0.0041378599
0.0041235639
0.0041091793
0.0040947085
0.0040801133
0.0040654425
0.004052016
0.0040284571
1.1816848e-08
1.1738562e-08
1.1659068e-08
1.157818e-08
1.1495858e-08
1.1412097e-08
1.1326898e-08
1.124028e-08
1.1152206e-08
1.1062871e-08
1.0971525e-08
1.0881268e-08
1.0779709e-08
1.0588833e-08
1.0787242e-08
1.2893128e-08
2.8451258e-08
1.0804353e-07
4.3012172e-07
1.2624977e-06
2.8408303e-06
5.3142143e-06
8.7741842e-06
1.3287956e-05
1.8963241e-05
2.6067598e-05
3.4938081e-05
4.6124673e-05
6.0370501e-05
7.8642304e-05
0.00010265752
0.00013440352
0.0001769321
0.00023260597
0.00030414018
0.00039504307
0.0005108655
0.0006581092
0.00082602635
0.0010116688
0.0012179429
0.0014459237
0.0016914751
0.0019403908
0.0021844217
0.0024178313
0.0026349192
0.0028299778
0.0030037656
0.0031568827
0.0032905773
0.0034085244
0.0035087139
0.003592998
0.0036636553
0.0037229843
0.0037737488
0.0038175632
0.0038538824
0.0038845114
0.0039107711
0.0039336524
0.003953894
0.0039719768
0.0039880749
0.0040022888
0.0040147364
0.0040254846
0.0040345268
0.004041992
0.0040480401
0.0040528051
0.004056428
0.0040590372
0.0040607578
0.0040614506
0.004060985
0.0040595003
0.0040571924
0.0040542001
0.0040506061
0.0040465284
0.0040418215
0.0040363753
0.0040302733
0.0040236686
0.0040166686
0.0040093889
0.0040017132
0.0039935478
0.0039849472
0.003976022
0.003966888
0.0039575311
0.003947845
0.0039378822
0.0039275846
0.0039172233
0.0039074092
0.0038899968
1.1868505e-08
1.1789921e-08
1.1710132e-08
1.1628942e-08
1.154631e-08
1.1462229e-08
1.1376704e-08
1.128974e-08
1.120135e-08
1.1111531e-08
1.1020342e-08
1.0927597e-08
1.0834147e-08
1.0737717e-08
1.064065e-08
1.0544319e-08
1.0455435e-08
1.0409043e-08
1.0612068e-08
1.1685881e-08
1.5044135e-08
2.3534925e-08
4.2316968e-08
8.0007182e-08
1.4961327e-07
2.6929635e-07
4.6293948e-07
7.626207e-07
1.2133984e-06
1.8786899e-06
2.856759e-06
4.2990352e-06
6.4437007e-06
9.6828913e-06
1.4627063e-05
2.2168436e-05
3.3718522e-05
5.1090982e-05
7.7977906e-05
0.00011786014
0.00017426889
0.00025210115
0.00035828468
0.00050088278
0.00066888658
0.00085588522
0.001062506
0.0012894296
0.0015223932
0.0017536151
0.0019761089
0.0021844696
0.0023729747
0.0025423674
0.0026935307
0.002828179
0.0029500069
0.0030568136
0.0031490439
0.0032287238
0.00329837
0.003360235
0.0034156668
0.0034652478
0.003509467
0.0035490749
0.0035848794
0.0036167037
0.0036448708
0.0036700567
0.0036926377
0.0037129192
0.0037311493
0.0037474944
0.0037620764
0.0037749545
0.0037861698
0.0037958583
0.0038041767
0.0038112499
0.0038171839
0.0038221183
0.0038259142
0.0038285587
0.0038302059
0.0038310126
0.0038310761
0.0038305166
0.0038291879
0.0038270565
0.0038242345
0.0038208475
0.0038170126
0.00381269
0.0038077853
0.0038024035
0.0037964868
0.0037904476
0.0037842933
0.0037729724
1.1887655e-08
1.1809018e-08
1.1729183e-08
1.1647953e-08
1.1565282e-08
1.1481165e-08
1.1395605e-08
1.1308611e-08
1.122019e-08
1.1130356e-08
1.103912e-08
1.0946509e-08
1.0852494e-08
1.075739e-08
1.066057e-08
1.0561527e-08
1.0461435e-08
1.0360825e-08
1.0260515e-08
1.0160409e-08
1.0062098e-08
9.970353e-09
9.8955977e-09
9.8606985e-09
9.9067873e-09
1.0105079e-08
1.0573561e-08
1.1504398e-08
1.3216468e-08
1.6247103e-08
2.1546637e-08
3.0854006e-08
4.7524941e-08
7.8110519e-08
1.3577866e-07
2.4551272e-07
4.577977e-07
8.5858888e-07
1.6239542e-06
3.0612035e-06
5.6808883e-06
1.0357487e-05
1.8727769e-05
3.3136208e-05
5.8731934e-05
0.00010027747
0.00016225697
0.00025114219
0.00037475817
0.00052815713
0.00070445097
0.00089801192
0.0011105236
0.0013295167
0.0015445994
0.0017494019
0.0019403177
0.0021139811
0.0022728242
0.0024175664
0.0025493708
0.0026688375
0.0027748539
0.0028689891
0.0029531199
0.0030291835
0.0030982971
0.0031604525
0.0032158823
0.0032655623
0.0033104829
0.0033512928
0.0033883437
0.0034219385
0.0034524539
0.0034798623
0.0035044219
0.0035266053
0.0035466533
0.0035647518
0.0035810688
0.0035957533
0.003608844
0.0036203935
0.0036305412
0.0036394202
0.0036471291
0.0036537962
0.0036593011
0.0036636936
0.0036671171
0.0036696928
0.0036715313
0.0036725791
0.0036727809
0.0036722908
0.0036710528
0.0036695763
0.0036673064
0.0036623544
1.1885506e-08
1.1806911e-08
1.1727124e-08
1.1645944e-08
1.1563326e-08
1.1479264e-08
1.1393762e-08
1.1306826e-08
1.1218467e-08
1.1128697e-08
1.1037529e-08
1.0944984e-08
1.0851087e-08
1.0755876e-08
1.0659378e-08
1.0561608e-08
1.0462529e-08
1.0362267e-08
1.0259729e-08
1.015562e-08
1.0050407e-08
9.9444536e-09
9.8384798e-09
9.7319879e-09
9.6253346e-09
9.5188677e-09
9.4123259e-09
9.3061526e-09
9.2013216e-09
9.0995583e-09
9.0038471e-09
8.9196748e-09
8.8582635e-09
8.8400516e-09
8.9065508e-09
9.1395914e-09
9.7187338e-09
1.1008657e-08
1.3857154e-08
2.0276588e-08
3.5564553e-08
7.241005e-08
1.6724161e-07
3.9898816e-07
9.7824231e-07
2.3434846e-06
5.2218801e-06
1.1060349e-05
2.2195117e-05
4.3629265e-05
8.1489199e-05
0.00014057525
0.00022790979
0.00035118019
0.00050099145
0.00067281923
0.00086029547
0.0010638683
0.0012696554
0.0014676529
0.0016536379
0.0018256776
0.0019831719
0.0021306128
0.0022674837
0.0023944553
0.0025090704
0.0026121777
0.0027050689
0.002789356
0.0028659962
0.0029354248
0.0029981511
0.003054977
0.0031067987
0.0031538529
0.0031963482
0.0032348317
0.0032698373
0.0033017546
0.0033308599
0.0033574093
0.0033812923
0.0034028732
0.0034224674
0.0034402382
0.0034563234
0.0034708645
0.0034839067
0.0034955121
0.0035058065
0.0035149015
0.0035229053
0.0035297903
0.0035355622
0.0035404021
0.0035442461
0.003547684
0.00354961
0.0035514819
1.1882937e-08
1.1804354e-08
1.1724577e-08
1.1643406e-08
1.1560796e-08
1.1476742e-08
1.1391248e-08
1.130432e-08
1.121597e-08
1.1126207e-08
1.1035048e-08
1.094251e-08
1.0848617e-08
1.0753396e-08
1.0656875e-08
1.0559079e-08
1.0460034e-08
1.0359773e-08
1.0258305e-08
1.0155642e-08
1.0051801e-08
9.9467936e-09
9.8406138e-09
9.7331963e-09
9.6242172e-09
9.513585e-09
9.4019597e-09
9.2895714e-09
9.1765737e-09
9.0631387e-09
8.9495678e-09
8.8361683e-09
8.7225927e-09
8.6089283e-09
8.4959265e-09
8.3832788e-09
8.2712038e-09
8.1606189e-09
8.0537708e-09
7.9551758e-09
7.8782522e-09
7.8541967e-09
7.9743418e-09
8.471563e-09
9.9880834e-09
1.467408e-08
2.8586041e-08
7.3033074e-08
2.0853212e-07
6.1602276e-07
1.7745176e-06
4.4868895e-06
1.0483862e-05
2.2409228e-05
4.6948218e-05
9.0262508e-05
0.00015722263
0.00025854935
0.00039097871
0.00054716074
0.00072153642
0.00090921052
0.0011061362
0.0012961368
0.0014748768
0.001641742
0.0017961936
0.001942615
0.0020804733
0.0022094297
0.0023266737
0.0024330402
0.0025299271
0.0026186266
0.0026998916
0.0027737689
0.0028405858
0.0029011763
0.0029563315
0.0030065589
0.0030523042
0.0030940947
0.0031320482
0.0031665257
0.0031979433
0.0032266362
0.0032528677
0.0032768548
0.0032984957
0.0033181418
0.0033360226
0.0033522701
0.0033670035
0.0033803085
0.0033922308
0.0034029297
0.0034123283
0.0034211054
0.0034276093
0.0034368907
1.1884234e-08
1.1805638e-08
1.1725846e-08
1.1644658e-08
1.1562032e-08
1.147796e-08
1.1392447e-08
1.13055e-08
1.1217129e-08
1.1127346e-08
1.1036163e-08
1.09436e-08
1.0849677e-08
1.0754419e-08
1.0657852e-08
1.0560001e-08
1.0460893e-08
1.0360557e-08
1.0259029e-08
1.0156342e-08
1.0052527e-08
9.947616e-09
9.8416374e-09
9.7346221e-09
9.6265945e-09
9.5175708e-09
9.4075807e-09
9.2966613e-09
9.1848521e-09
9.0721914e-09
8.9587122e-09
8.8444428e-09
8.7293477e-09
8.6133859e-09
8.4960561e-09
8.3780017e-09
8.259606e-09
8.1410726e-09
8.0225717e-09
7.9046757e-09
7.7875354e-09
7.6708016e-09
7.5556343e-09
7.4417727e-09
7.330156e-09
7.2250547e-09
7.1389101e-09
7.1144175e-09
7.3129594e-09
8.1342302e-09
1.1607372e-08
2.2915013e-08
6.8320467e-08
2.1531505e-07
7.4060427e-07
2.274351e-06
6.0400687e-06
1.432027e-05
3.2723307e-05
6.8294597e-05
0.00012700399
0.00021715414
0.00034186163
0.00049067264
0.00065780972
0.00083662053
0.0010242976
0.0012061545
0.0013770856
0.0015373458
0.0016869549
0.0018299828
0.0019656056
0.0020926674
0.0022091506
0.0023158774
0.0024138749
0.0025038271
0.0025860098
0.002660778
0.0027288795
0.0027911671
0.0028479072
0.0028994284
0.0029463048
0.0029890987
0.0030282229
0.0030640401
0.0030965826
0.0031262408
0.0031533577
0.0031781753
0.0032009005
0.0032215527
0.00324031
0.003257455
0.0032729258
0.0032875262
0.0032990633
0.0033164537
1.1886675e-08
1.1808064e-08
1.1728257e-08
1.1647055e-08
1.1564413e-08
1.1480325e-08
1.1394795e-08
1.1307831e-08
1.1219442e-08
1.1129641e-08
1.1038441e-08
1.0945859e-08
1.0851916e-08
1.0756637e-08
1.0660047e-08
1.0562171e-08
1.0463037e-08
1.0362674e-08
1.0261113e-08
1.0158386e-08
1.0054526e-08
9.9495652e-09
9.8435391e-09
9.7364844e-09
9.6284407e-09
9.5194499e-09
9.4095528e-09
9.2987904e-09
9.1872039e-09
9.0748358e-09
8.9617285e-09
8.8479236e-09
8.7334633e-09
8.6183925e-09
8.5027381e-09
8.3865379e-09
8.26984e-09
8.1526974e-09
8.0351553e-09
7.9172647e-09
7.7990077e-09
7.6803822e-09
7.5604979e-09
7.4402653e-09
7.3202358e-09
7.2007839e-09
7.0831555e-09
6.9663273e-09
6.8522408e-09
6.7396735e-09
6.6336817e-09
6.5389363e-09
6.5201322e-09
6.7085028e-09
7.8717231e-09
1.24493e-08
3.283915e-08
1.0796114e-07
4.1876671e-07
1.5006256e-06
4.5448816e-06
1.1565966e-05
2.8396044e-05
6.2647734e-05
0.00012081057
0.00021207691
0.00033636956
0.00048469348
0.00065003155
0.00082488211
0.0010052145
0.0011777799
0.0013396239
0.0014920448
0.0016358693
0.0017745479
0.0019065304
0.0020294952
0.0021427218
0.0022470196
0.0023432829
0.0024319095
0.0025129272
0.0025867777
0.0026542079
0.0027157484
0.0027718562
0.0028231286
0.0028698483
0.0029124035
0.0029512431
0.0029867841
0.0030193834
0.0030491306
0.0030762514
0.0031011275
0.00312378
0.0031451944
0.0031623548
0.0031886524
1.1889417e-08
1.181079e-08
1.1730967e-08
1.1649749e-08
1.156709e-08
1.1482985e-08
1.1397437e-08
1.1310455e-08
1.1222048e-08
1.1132229e-08
1.1041011e-08
1.094841e-08
1.0854448e-08
1.0759148e-08
1.0662537e-08
1.0564639e-08
1.0465482e-08
1.0365096e-08
1.0263512e-08
1.0160761e-08
1.0056875e-08
9.9518879e-09
9.8458332e-09
9.7387479e-09
9.6306699e-09
9.5216391e-09
9.4116966e-09
9.3008851e-09
9.1892486e-09
9.0768328e-09
8.9636847e-09
8.8498522e-09
8.7353849e-09
8.6203333e-09
8.5047514e-09
8.3886923e-09
8.2722081e-09
8.1553508e-09
8.0381724e-09
7.9207237e-09
7.8030516e-09
7.6852103e-09
7.5672211e-09
7.4491185e-09
7.3309491e-09
7.2127608e-09
7.0945483e-09
6.976382e-09
6.8567713e-09
6.7373531e-09
6.6184558e-09
6.5020407e-09
6.3869197e-09
6.2747678e-09
6.1657284e-09
6.0624321e-09
5.9896633e-09
6.0322207e-09
6.5555821e-09
9.459291e-09
2.3104466e-08
8.1477819e-08
3.4272274e-07
1.3649365e-06
4.5026165e-06
1.1990318e-05
3.1124871e-05
6.9638837e-05
0.00013540505
0.00023545568
0.00036746793
0.00052092971
0.00068784498
0.0008602815
0.0010325734
0.0011942669
0.0013467204
0.0014912224
0.0016300156
0.001763289
0.0018894892
0.0020065479
0.0021149767
0.0022154973
0.0023083249
0.0023933969
0.0024711757
0.0025424723
0.0026076521
0.0026670351
0.0027211768
0.0027706383
0.0028159043
0.0028572226
0.0028948998
0.0029294068
0.0029608784
0.0029905533
0.0030146405
0.0030514813
1.1892632e-08
1.1813987e-08
1.1734145e-08
1.1652906e-08
1.1570227e-08
1.1486101e-08
1.1400532e-08
1.1313528e-08
1.1225099e-08
1.1135257e-08
1.1044016e-08
1.0951393e-08
1.0857407e-08
1.0762082e-08
1.0665443e-08
1.0567518e-08
1.0468332e-08
1.0367916e-08
1.0266301e-08
1.0163518e-08
1.00596e-08
9.9545785e-09
9.8484897e-09
9.7413698e-09
9.6332566e-09
9.5241898e-09
9.4142103e-09
9.3033604e-09
9.191684e-09
9.0792264e-09
8.9660345e-09
8.8521562e-09
8.7376408e-09
8.6225389e-09
8.5069022e-09
8.3907837e-09
8.2742374e-09
8.1573182e-09
8.0400816e-09
7.922584e-09
7.8048822e-09
7.687033e-09
7.5690979e-09
7.4511355e-09
7.333201e-09
7.2153498e-09
7.0976239e-09
6.9800835e-09
6.8627239e-09
6.7455834e-09
6.6286786e-09
6.512068e-09
6.3957469e-09
6.2781123e-09
6.1608214e-09
6.0449379e-09
5.9315537e-09
5.8202495e-09
5.7124574e-09
5.6090063e-09
5.5271956e-09
5.5242772e-09
5.9734755e-09
8.7528145e-09
2.35203e-08
9.2054714e-08
4.1878209e-07
1.7565663e-06
5.7907574e-06
1.6323883e-05
4.2470034e-05
9.2195186e-05
0.00017624973
0.00029224708
0.00043683196
0.00059745098
0.00076451299
0.0009318565
0.0010920933
0.0012431575
0.0013869182
0.0015242792
0.001657314
0.0017846055
0.0019033405
0.0020137828
0.0021165072
0.0022117476
0.0022993585
0.002379639
0.0024532357
0.0025205544
0.0025820673
0.0026382505
0.0026895091
0.0027363491
0.0027790166
0.00281905
0.0028518176
0.0029016156
1.1896095e-08
1.181743e-08
1.1737568e-08
1.1656309e-08
1.1573609e-08
1.1489461e-08
1.1403869e-08
1.1316843e-08
1.1228391e-08
1.1138526e-08
1.1047262e-08
1.0954614e-08
1.0860604e-08
1.0765254e-08
1.066859e-08
1.0570637e-08
1.0471424e-08
1.0370979e-08
1.0269334e-08
1.0166521e-08
1.006257e-08
9.9575167e-09
9.8513946e-09
9.7442407e-09
9.636093e-09
9.526991e-09
9.4169759e-09
9.30609e-09
9.1943772e-09
9.0818829e-09
8.9686538e-09
8.854738e-09
8.7401846e-09
8.625044e-09
8.5093678e-09
8.3932086e-09
8.2766199e-09
8.1596564e-09
8.0423734e-09
7.9248268e-09
7.8070734e-09
7.6891703e-09
7.5711752e-09
7.4531461e-09
7.3351414e-09
7.2172193e-09
7.0994383e-09
6.9818546e-09
6.8645323e-09
6.747528e-09
6.6308966e-09
6.5146767e-09
6.3989232e-09
6.2836217e-09
6.1687857e-09
6.0544504e-09
5.9406601e-09
5.8268883e-09
5.7124574e-09
5.5989441e-09
5.4885438e-09
5.3799652e-09
5.2756036e-09
5.1748394e-09
5.0998548e-09
5.1109366e-09
5.7680893e-09
9.9509134e-09
3.3595149e-08
1.5904875e-07
7.5004232e-07
3.1339492e-06
9.7649604e-06
2.8610281e-05
6.9004942e-05
0.00014173515
0.00024881543
0.0003857068
0.00054229619
0.00070606773
0.00086875086
0.0010261578
0.0011745294
0.0013162373
0.0014514422
0.0015831642
0.0017097781
0.0018286043
0.001939588
0.0020431458
0.0021393166
0.0022278559
0.0023091832
0.002383873
0.0024522187
0.002514699
0.0025716268
0.0026247973
0.0026685511
0.0027346765
1.1899454e-08
1.182077e-08
1.1740889e-08
1.165961e-08
1.157689e-08
1.1492722e-08
1.140711e-08
1.1320062e-08
1.1231589e-08
1.1141703e-08
1.1050417e-08
1.0957749e-08
1.0863717e-08
1.0768345e-08
1.0671657e-08
1.0573681e-08
1.0474444e-08
1.0373975e-08
1.0272305e-08
1.0169465e-08
1.0065488e-08
9.9604063e-09
9.8542559e-09
9.7470729e-09
9.6388956e-09
9.5297635e-09
9.4197177e-09
9.3088007e-09
9.1970564e-09
9.0845302e-09
8.971269e-09
8.8573207e-09
8.7427345e-09
8.6275611e-09
8.5118518e-09
8.3956593e-09
8.2790373e-09
8.1620402e-09
8.0447234e-09
7.9271428e-09
7.809355e-09
7.6914169e-09
7.5733859e-09
7.4553195e-09
7.3372756e-09
7.2193116e-09
7.1014854e-09
6.9838543e-09
6.8664755e-09
6.7494063e-09
6.6327035e-09
6.5164231e-09
6.4006187e-09
6.285352e-09
6.1706768e-09
6.0566384e-09
5.943274e-09
5.8306108e-09
5.7186271e-09
5.6073364e-09
5.4967542e-09
5.3867389e-09
5.2758009e-09
5.1660066e-09
5.0594337e-09
4.955168e-09
4.8545976e-09
4.7627142e-09
4.6955856e-09
4.8583407e-09
6.3312573e-09
1.6447406e-08
7.54732e-08
4.2079569e-07
1.953138e-06
6.871733e-06
2.2226678e-05
5.7873353e-05
0.00012555043
0.00022896219
0.00036211245
0.00051708258
0.00067827751
0.00083657207
0.00098994948
0.0011347812
0.0012735198
0.00140635
0.0015359862
0.0016609696
0.0017786274
0.0018888199
0.0019918801
0.0020876394
0.0021759228
0.0022572014
0.0023316483
0.0024011346
0.0024585943
0.0025452655
1.1902593e-08
1.1823891e-08
1.1743993e-08
1.1662697e-08
1.1579958e-08
1.1495771e-08
1.141014e-08
1.1323073e-08
1.1234581e-08
1.1144675e-08
1.105337e-08
1.0960681e-08
1.086663e-08
1.0771238e-08
1.067453e-08
1.0576533e-08
1.0477274e-08
1.0376783e-08
1.0275089e-08
1.0172226e-08
1.0068224e-08
9.9631171e-09
9.8569408e-09
9.7497315e-09
9.6415273e-09
9.5323679e-09
9.4222944e-09
9.3113493e-09
9.1995765e-09
9.0870217e-09
8.9737314e-09
8.8597539e-09
8.7451384e-09
8.6299353e-09
8.5141963e-09
8.397974e-09
8.281322e-09
8.164295e-09
8.0469481e-09
7.9293375e-09
7.8115195e-09
7.6935514e-09
7.5754903e-09
7.4573939e-09
7.3393199e-09
7.221326e-09
7.1034696e-09
6.9858081e-09
6.8683982e-09
6.7512965e-09
6.6345587e-09
6.5182402e-09
6.4023953e-09
6.287078e-09
6.1723417e-09
6.0582388e-09
5.9448199e-09
5.8321362e-09
5.7202415e-09
5.6091832e-09
5.4989856e-09
5.3896884e-09
5.2812425e-09
5.1736588e-09
5.0669434e-09
4.9608089e-09
4.854038e-09
4.7489405e-09
4.6466919e-09
4.5484092e-09
4.454654e-09
4.3727923e-09
4.383561e-09
5.131046e-09
1.0635117e-08
4.6886957e-08
2.9735716e-07
1.4905015e-06
5.7335236e-06
2.018663e-05
5.5041301e-05
0.00012354878
0.00022826074
0.00036194369
0.00051700792
0.00067580842
0.00082958379
0.00097782708
0.001118647
0.0012540074
0.0013840293
0.0015112745
0.0016339344
0.001749466
0.0018579443
0.0019595757
0.0020536888
0.0021420968
0.0022158171
0.0023275058
1.1905521e-08
1.1826804e-08
1.174689e-08
1.1665577e-08
1.1582821e-08
1.1498617e-08
1.1412968e-08
1.1325883e-08
1.1237373e-08
1.1147449e-08
1.1056125e-08
1.0963419e-08
1.086935e-08
1.0773939e-08
1.0677212e-08
1.0579195e-08
1.0479916e-08
1.0379404e-08
1.0277689e-08
1.0174803e-08
1.0070777e-08
9.9656466e-09
9.8594458e-09
9.7522114e-09
9.6439816e-09
9.5347962e-09
9.4246962e-09
9.3137244e-09
9.2019246e-09
9.0893424e-09
8.9760246e-09
8.8620193e-09
8.7473759e-09
8.6321448e-09
8.5163777e-09
8.4001272e-09
8.283447e-09
8.1663916e-09
8.0490164e-09
7.9313774e-09
7.8135311e-09
7.6955345e-09
7.5774451e-09
7.4593204e-09
7.3412182e-09
7.2231961e-09
7.1053116e-09
6.9876221e-09
6.8701845e-09
6.7530551e-09
6.6362898e-09
6.5199439e-09
6.4040716e-09
6.2887263e-09
6.1739605e-09
6.0598255e-09
5.9463714e-09
5.8336475e-09
5.7217019e-09
5.6105822e-09
5.5003342e-09
5.391001e-09
5.2826337e-09
5.175273e-09
5.0689387e-09
4.9636496e-09
4.859374e-09
4.7560194e-09
4.6539216e-09
4.5511708e-09
4.4488392e-09
4.3501425e-09
4.2538797e-09
4.1621378e-09
4.0788488e-09
4.0423938e-09
4.544696e-09
8.5622374e-09
3.7742593e-08
2.6952013e-07
1.4230461e-06
5.7706657e-06
2.1599378e-05
5.9701654e-05
0.00013482202
0.00024512861
0.00038277098
0.00053787829
0.00069336883
0.00084210396
0.00098539082
0.0011220153
0.001253662
0.0013809741
0.0015054646
0.0016251044
0.0017376691
0.0018454493
0.0019365379
0.0020765181
1.1908256e-08
1.1829524e-08
1.1749594e-08
1.1668266e-08
1.1585494e-08
1.1501274e-08
1.1415609e-08
1.1328508e-08
1.1239981e-08
1.115004e-08
1.10587e-08
1.0965977e-08
1.0871891e-08
1.0776463e-08
1.0679719e-08
1.0581684e-08
1.0482386e-08
1.0381854e-08
1.0280119e-08
1.0177211e-08
1.0073164e-08
9.9680106e-09
9.8617866e-09
9.7545284e-09
9.6462743e-09
9.5370642e-09
9.4269391e-09
9.3159418e-09
9.2041163e-09
9.0915081e-09
8.9781641e-09
8.8641325e-09
8.7494625e-09
8.6342047e-09
8.5184108e-09
8.4021335e-09
8.2854264e-09
8.1683441e-09
8.050942e-09
7.933276e-09
7.8154027e-09
7.6973792e-09
7.5792629e-09
7.4611113e-09
7.3429822e-09
7.2249333e-09
7.107022e-09
6.9893058e-09
6.8718415e-09
6.7546856e-09
6.6378939e-09
6.5215216e-09
6.4056232e-09
6.290252e-09
6.1754605e-09
6.0613e-09
5.9478206e-09
5.8350713e-09
5.7230994e-09
5.6119512e-09
5.5016714e-09
5.3923034e-09
5.2838896e-09
5.1764714e-09
5.0700882e-09
4.9647771e-09
4.8605849e-09
4.7575337e-09
4.6556604e-09
4.5549182e-09
4.4552365e-09
4.3567133e-09
4.2590302e-09
4.1606342e-09
4.0650559e-09
3.971973e-09
3.8835578e-09
3.8024272e-09
3.755434e-09
4.2189779e-09
8.1822368e-09
3.9662626e-08
3.1832565e-07
1.7105152e-06
7.1303314e-06
2.6876221e-05
7.3342955e-05
0.00015890363
0.00027845106
0.0004217442
0.00057666195
0.00072741173
0.00087059294
0.0010086784
0.0011411982
0.0012691706
0.0013936042
0.0015171938
0.001623143
0.0017911228
1.191081e-08
1.1832064e-08
1.175212e-08
1.1670778e-08
1.1587992e-08
1.1503756e-08
1.1418077e-08
1.133096e-08
1.1242418e-08
1.1152461e-08
1.1061106e-08
1.0968368e-08
1.0874266e-08
1.0778823e-08
1.0682062e-08
1.0584011e-08
1.0484695e-08
1.0384145e-08
1.0282391e-08
1.0179464e-08
1.0075396e-08
9.9702211e-09
9.8639751e-09
9.7566945e-09
9.6484176e-09
9.5391841e-09
9.4290353e-09
9.3180139e-09
9.206164e-09
9.0935312e-09
8.9801624e-09
8.8661058e-09
8.7514107e-09
8.6361276e-09
8.5203084e-09
8.4040057e-09
8.2872732e-09
8.1701654e-09
8.0527378e-09
7.9350464e-09
7.8171477e-09
7.6990987e-09
7.580957e-09
7.46278e-09
7.3446255e-09
7.2265512e-09
7.1086147e-09
6.9908732e-09
6.8733837e-09
6.7562026e-09
6.6393859e-09
6.5229887e-09
6.4070654e-09
6.2916695e-09
6.1768533e-09
6.0626684e-09
5.9491647e-09
5.8363913e-09
5.7243956e-09
5.6132239e-09
5.5029208e-09
5.3935296e-09
5.2850918e-09
5.1776474e-09
5.0712348e-09
4.9658909e-09
4.8616513e-09
4.7585515e-09
4.6566211e-09
4.5558991e-09
4.45642e-09
4.3581898e-09
4.2612236e-09
4.1654381e-09
4.070791e-09
3.9774849e-09
3.8831946e-09
3.791209e-09
3.7018198e-09
3.6178785e-09
3.5385956e-09
3.5040373e-09
4.10696e-09
9.4368669e-09
5.6689274e-08
4.8082208e-07
2.5367517e-06
1.1202441e-05
3.8540806e-05
9.9176252e-05
0.00019868282
0.00032881491
0.00047680751
0.00062903021
0.00077399035
0.00091216314
0.0010449723
0.0011756227
0.0012883728
0.0014776873
1.1913196e-08
1.1834437e-08
1.1754481e-08
1.1673125e-08
1.1590325e-08
1.1506076e-08
1.1420383e-08
1.1333252e-08
1.1244695e-08
1.1154725e-08
1.1063355e-08
1.0970603e-08
1.0876487e-08
1.078103e-08
1.0684254e-08
1.0586187e-08
1.0486856e-08
1.0386289e-08
1.0284517e-08
1.0181571e-08
1.0077483e-08
9.9722889e-09
9.8660224e-09
9.7587206e-09
9.650422e-09
9.5411665e-09
9.4309952e-09
9.3199511e-09
9.2080781e-09
9.0954221e-09
8.9820298e-09
8.8679495e-09
8.7532306e-09
8.6379237e-09
8.5220805e-09
8.4057538e-09
8.2889972e-09
8.1718654e-09
8.0544138e-09
7.9366983e-09
7.8187755e-09
7.7007026e-09
7.5825368e-09
7.4643359e-09
7.3461575e-09
7.2280593e-09
7.1100989e-09
6.9923337e-09
6.8748205e-09
6.7576158e-09
6.6407755e-09
6.5243548e-09
6.4084081e-09
6.2929888e-09
6.1781495e-09
6.0639414e-09
5.9504148e-09
5.8376185e-09
5.7256002e-09
5.614406e-09
5.5040806e-09
5.3946673e-09
5.2862078e-09
5.178742e-09
5.0723082e-09
4.9669431e-09
4.8626816e-09
4.7595568e-09
4.6576001e-09
4.5568414e-09
4.4573104e-09
4.3590341e-09
4.2620364e-09
4.1663552e-09
4.071992e-09
3.9789756e-09
3.8872162e-09
3.7966041e-09
3.7075341e-09
3.6172218e-09
3.5300253e-09
3.4433167e-09
3.3709489e-09
3.270037e-09
3.300548e-09
4.3482479e-09
1.4198308e-08
1.2155659e-07
9.154513e-07
4.4378698e-06
1.9449879e-05
6.0203818e-05
0.00014009093
0.0002558029
0.00039591209
0.00054585856
0.00069198855
0.00083290802
0.00095384261
0.0011532741
1.1915427e-08
1.1836656e-08
1.1756687e-08
1.1675319e-08
1.1592507e-08
1.1508246e-08
1.1422539e-08
1.1335395e-08
1.1246826e-08
1.1156842e-08
1.106546e-08
1.0972694e-08
1.0878566e-08
1.0783095e-08
1.0686306e-08
1.0588224e-08
1.0488878e-08
1.0388295e-08
1.0286507e-08
1.0183543e-08
1.0079438e-08
9.9742245e-09
9.8679386e-09
9.7606169e-09
9.6522979e-09
9.5430214e-09
9.4328289e-09
9.3217632e-09
9.2098685e-09
9.0971903e-09
8.9837758e-09
8.8696731e-09
8.7549316e-09
8.6396021e-09
8.5237363e-09
8.4073868e-09
8.2906075e-09
8.173453e-09
8.0559786e-09
7.9382404e-09
7.8202949e-09
7.7021993e-09
7.5840109e-09
7.4657874e-09
7.3475864e-09
7.2294657e-09
7.1114829e-09
6.9936952e-09
6.8761597e-09
6.7589327e-09
6.6420702e-09
6.5256274e-09
6.4096587e-09
6.2942175e-09
6.1793563e-09
6.0651265e-09
5.9515783e-09
5.8387605e-09
5.7267208e-09
5.6155054e-09
5.505159e-09
5.3957249e-09
5.2872447e-09
5.1797584e-09
5.0733044e-09
4.9679194e-09
4.8636382e-09
4.760494e-09
4.6585183e-09
4.5577404e-09
4.4581882e-09
4.3598876e-09
4.2628627e-09
4.167137e-09
4.0727335e-09
3.9796673e-09
3.8879746e-09
3.7976509e-09
3.7087352e-09
3.6210935e-09
3.534681e-09
3.4498175e-09
3.363148e-09
3.2800857e-09
3.1990212e-09
3.1276278e-09
3.0502138e-09
3.2226351e-09
5.6881541e-09
3.0219795e-08
3.1539613e-07
2.0331041e-06
9.6217164e-06
3.625341e-05
9.8524498e-05
0.0001995557
0.00033022382
0.0004787268
0.00061285477
0.00082790027
1.1917512e-08
1.183873e-08
1.1758751e-08
1.1677371e-08
1.1594548e-08
1.1510274e-08
1.1424556e-08
1.13374e-08
1.1248819e-08
1.1158823e-08
1.1067429e-08
1.0974652e-08
1.0880511e-08
1.0785028e-08
1.0688226e-08
1.0590132e-08
1.0490771e-08
1.0390174e-08
1.028837e-08
1.018539e-08
1.0081268e-08
9.9760371e-09
9.8697329e-09
9.7623924e-09
9.6540541e-09
9.544758e-09
9.4345454e-09
9.3234593e-09
9.2115439e-09
9.0988448e-09
8.9854092e-09
8.8712853e-09
8.7565225e-09
8.6411716e-09
8.5252842e-09
8.4089133e-09
8.2921125e-09
8.1749364e-09
8.0574405e-09
7.9396808e-09
7.8217139e-09
7.7035969e-09
7.5853871e-09
7.4671422e-09
7.34892e-09
7.2307781e-09
7.1127741e-09
6.9949653e-09
6.8774087e-09
6.7601607e-09
6.6432773e-09
6.5268136e-09
6.4108241e-09
6.2953622e-09
6.1804805e-09
6.0662302e-09
5.9526617e-09
5.8398237e-09
5.7277639e-09
5.6165286e-09
5.5061624e-09
5.3967087e-09
5.288209e-09
5.1807034e-09
5.0742303e-09
4.9688263e-09
4.8645265e-09
4.7613638e-09
4.6593698e-09
4.5585741e-09
4.4590043e-09
4.3606864e-09
4.2636445e-09
4.1679007e-09
4.0734758e-09
3.980388e-09
3.8886552e-09
3.7982957e-09
3.7093176e-09
3.621758e-09
3.5355875e-09
3.4509079e-09
3.3673489e-09
3.2854071e-09
3.2043158e-09
3.1224864e-09
3.0436823e-09
2.9702116e-09
2.8987129e-09
2.8644127e-09
3.517124e-09
1.1236662e-08
1.0476143e-07
9.1156842e-07
4.8589554e-06
2.2111913e-05
6.866028e-05
0.0001599129
0.00026688263
0.00049146868
1.1919455e-08
1.1840663e-08
1.1760673e-08
1.1679284e-08
1.159645e-08
1.1512166e-08
1.1426436e-08
1.133927e-08
1.1250677e-08
1.1160671e-08
1.1069265e-08
1.0976477e-08
1.0882325e-08
1.0786831e-08
1.0690018e-08
1.0591912e-08
1.0492539e-08
1.0391928e-08
1.029011e-08
1.0187115e-08
1.0082977e-08
9.9777297e-09
9.8714085e-09
9.7640505e-09
9.6556941e-09
9.5463795e-09
9.4361481e-09
9.3250428e-09
9.213108e-09
9.1003893e-09
8.9869339e-09
8.8727899e-09
8.7580071e-09
8.642636e-09
8.5267284e-09
8.4103373e-09
8.2935162e-09
8.1763199e-09
8.0588038e-09
7.9410239e-09
7.8230368e-09
7.7048997e-09
7.5866699e-09
7.4684049e-09
7.3501627e-09
7.2320009e-09
7.113977e-09
6.9961484e-09
6.878572e-09
6.7613044e-09
6.6444013e-09
6.5279181e-09
6.4119091e-09
6.2964279e-09
6.1815269e-09
6.0672574e-09
5.9536698e-09
5.8408128e-09
5.7287342e-09