/*--------------------------------*- C++ -*----------------------------------*\
  =========                 |
  \\      /  F ield         | OpenFOAM: The Open Source CFD Toolbox
   \\    /   O peration     | Website:  https://openfoam.org
    \\  /    A nd           | Version:  12
     \\/     M anipulation  |
\*---------------------------------------------------------------------------*/
FoamFile
{
    format      ascii;
    class       volScalarField;
    location    "1600";
    object      k;
}
// * * * * * * * * * * * * * * * * * * * * * * * * * * * * * * * * * * * * * //

dimensions      [0 2 -2 0 0 0 0];

internalField   nonuniform List<scalar> 
13056
(
7.975706e-05
2.8106659e-05
1.5601667e-05
1.1250529e-05
9.4042976e-06
8.4198278e-06
7.7958709e-06
7.3578336e-06
7.0319296e-06
6.7805334e-06
6.5816578e-06
6.4212739e-06
6.2898889e-06
6.1808003e-06
6.0891163e-06
6.0111746e-06
5.944152e-06
5.8859071e-06
5.8344682e-06
5.7893599e-06
5.7454885e-06
5.7185617e-06
5.6380543e-06
7.0662841e-06
8.8491649e-10
1.6440943e-08
3.0901824e-08
3.4755694e-08
3.3828923e-08
3.1870245e-08
3.0089736e-08
2.8586371e-08
2.728643e-08
2.6149679e-08
2.514916e-08
2.4259924e-08
2.3439944e-08
2.2688845e-08
2.2000188e-08
2.1368685e-08
2.0788218e-08
2.0251149e-08
1.9752116e-08
1.9287151e-08
1.8851392e-08
1.8442156e-08
1.8056726e-08
1.7692894e-08
1.7348813e-08
1.7022246e-08
1.6712187e-08
1.6416816e-08
1.6134535e-08
1.5864813e-08
1.5606459e-08
1.5358289e-08
1.5119917e-08
1.489052e-08
1.4669106e-08
1.445536e-08
1.4248845e-08
1.4048831e-08
1.385484e-08
1.3666726e-08
1.3482973e-08
1.3303421e-08
1.3128538e-08
1.2958221e-08
1.2792139e-08
1.2629938e-08
1.2471458e-08
1.2316545e-08
1.2164901e-08
1.2016259e-08
1.1870525e-08
1.1727603e-08
1.1587235e-08
1.1449221e-08
1.1313473e-08
1.117997e-08
1.1048529e-08
1.091892e-08
1.0791044e-08
1.0664946e-08
1.0540512e-08
1.0417493e-08
1.0295791e-08
1.0175438e-08
1.0056402e-08
9.938505e-09
9.8215926e-09
9.7056478e-09
9.5907204e-09
9.4766629e-09
9.3632636e-09
9.2504771e-09
9.1384002e-09
9.0269192e-09
8.9157078e-09
8.8047928e-09
8.6942948e-09
8.5841076e-09
8.4740057e-09
8.3639191e-09
8.2539416e-09
8.143922e-09
8.0336176e-09
7.9230306e-09
7.8121778e-09
7.7008505e-09
7.5888938e-09
7.4763643e-09
7.3630956e-09
7.2512681e-09
7.1445346e-09
7.0436415e-09
6.9473562e-09
6.8560108e-09
6.7693139e-09
6.6868303e-09
6.6081365e-09
6.5329646e-09
6.4611405e-09
6.3924085e-09
6.3264649e-09
6.2630885e-09
6.2021622e-09
6.1435616e-09
6.0871092e-09
6.0325575e-09
5.9798119e-09
5.9284316e-09
5.8790298e-09
5.8287784e-09
5.7841398e-09
5.7119129e-09
7.9757048e-05
2.8106844e-05
1.5601609e-05
1.1250357e-05
9.4040545e-06
8.4195306e-06
7.7955285e-06
7.3574529e-06
7.0315167e-06
6.7800936e-06
6.5811957e-06
6.4207929e-06
6.2893918e-06
6.1802895e-06
6.0885936e-06
6.0106414e-06
5.9436096e-06
5.8853564e-06
5.8339102e-06
5.7887949e-06
5.7449176e-06
5.7179859e-06
5.6374196e-06
7.0613582e-06
8.3679277e-09
4.9346642e-07
9.2749925e-07
1.0431702e-06
1.015354e-06
9.5656586e-07
9.031253e-07
8.5800298e-07
8.1898622e-07
7.8486749e-07
7.5483764e-07
7.2814785e-07
7.0353672e-07
6.8099299e-07
6.6032343e-07
6.4136929e-07
6.2394697e-07
6.0782719e-07
5.9284906e-07
5.7889343e-07
5.6581439e-07
5.5353145e-07
5.4196302e-07
5.3104282e-07
5.2071545e-07
5.1091375e-07
5.016075e-07
4.9274215e-07
4.8426966e-07
4.7617411e-07
4.6841976e-07
4.6097111e-07
4.5381649e-07
4.469313e-07
4.4028568e-07
4.3387022e-07
4.2767179e-07
4.216685e-07
4.1584597e-07
4.1019985e-07
4.0468462e-07
3.9929545e-07
3.9404644e-07
3.8893449e-07
3.8394963e-07
3.7908126e-07
3.7432456e-07
3.6967495e-07
3.6512343e-07
3.6066204e-07
3.562879e-07
3.5199818e-07
3.4778513e-07
3.436427e-07
3.3956831e-07
3.3556128e-07
3.3161616e-07
3.2772603e-07
3.2388791e-07
3.2010313e-07
3.1636832e-07
3.1267597e-07
3.0902315e-07
3.0541083e-07
3.0183803e-07
2.9829941e-07
2.9479035e-07
2.9131033e-07
2.8786084e-07
2.8443747e-07
2.8103385e-07
2.7764862e-07
2.742847e-07
2.7093865e-07
2.676007e-07
2.6427165e-07
2.6095511e-07
2.576479e-07
2.5434325e-07
2.5103906e-07
2.4773814e-07
2.4443596e-07
2.4112523e-07
2.3780602e-07
2.3447884e-07
2.311374e-07
2.2777708e-07
2.2439957e-07
2.2099986e-07
2.1764342e-07
2.1443987e-07
2.1141161e-07
2.0852166e-07
2.0577997e-07
2.0317781e-07
2.0070211e-07
1.9834015e-07
1.9608391e-07
1.9392814e-07
1.9186519e-07
1.8988592e-07
1.8798371e-07
1.8615504e-07
1.8439617e-07
1.8270178e-07
1.8106444e-07
1.7948131e-07
1.7793915e-07
1.7645638e-07
1.7494811e-07
1.7360831e-07
1.7144045e-07
7.975701e-05
2.8107454e-05
1.5601393e-05
1.124976e-05
9.4032242e-06
8.4185219e-06
7.7943703e-06
7.3561685e-06
7.0301272e-06
6.778617e-06
6.5796467e-06
6.4191832e-06
6.2877306e-06
6.1785841e-06
6.0868498e-06
6.008864e-06
5.9418026e-06
5.8835228e-06
5.8320527e-06
5.7869152e-06
5.7430188e-06
5.7160709e-06
5.6353879e-06
7.0504602e-06
3.9422624e-08
3.5213675e-06
6.6180045e-06
7.4432633e-06
7.244816e-06
6.825391e-06
6.4441132e-06
6.1221781e-06
5.8438016e-06
5.6003696e-06
5.3861097e-06
5.1956798e-06
5.0200799e-06
4.8592302e-06
4.7117521e-06
4.576513e-06
4.4522032e-06
4.3371868e-06
4.2303158e-06
4.1307403e-06
4.037419e-06
3.9497779e-06
3.8672348e-06
3.7893168e-06
3.7156286e-06
3.645691e-06
3.5792885e-06
3.5160318e-06
3.4555781e-06
3.397814e-06
3.3424843e-06
3.2893358e-06
3.2382853e-06
3.1891571e-06
3.1417383e-06
3.0959617e-06
3.0517336e-06
3.0088979e-06
2.967352e-06
2.9270647e-06
2.8877113e-06
2.8492574e-06
2.8118035e-06
2.7753276e-06
2.7397585e-06
2.7050206e-06
2.6710795e-06
2.6379024e-06
2.6054252e-06
2.5735912e-06
2.5423797e-06
2.5117705e-06
2.4817083e-06
2.4521501e-06
2.4230773e-06
2.3944852e-06
2.3663347e-06
2.3385767e-06
2.3111897e-06
2.2841834e-06
2.2575335e-06
2.2311867e-06
2.2051219e-06
2.179346e-06
2.1538521e-06
2.1286021e-06
2.103563e-06
2.0787311e-06
2.0541171e-06
2.0296894e-06
2.0054026e-06
1.9812471e-06
1.9572435e-06
1.9333675e-06
1.9095492e-06
1.8857944e-06
1.8621289e-06
1.83853e-06
1.8149493e-06
1.7913718e-06
1.7678177e-06
1.7442546e-06
1.7206304e-06
1.6969457e-06
1.6732041e-06
1.6493608e-06
1.6253827e-06
1.6012819e-06
1.5770228e-06
1.5530723e-06
1.5302128e-06
1.5086042e-06
1.4879824e-06
1.4684185e-06
1.4498503e-06
1.4321844e-06
1.4153302e-06
1.3992303e-06
1.3838474e-06
1.3691268e-06
1.3550033e-06
1.3414297e-06
1.3283808e-06
1.31583e-06
1.3037393e-06
1.2920557e-06
1.2807589e-06
1.2697545e-06
1.2591738e-06
1.2484112e-06
1.2388507e-06
1.2233814e-06
7.9756943e-05
2.8108506e-05
1.5601013e-05
1.1248725e-05
9.4017847e-06
8.4167741e-06
7.7923644e-06
7.353945e-06
7.0277225e-06
6.7760624e-06
6.5769676e-06
6.4163997e-06
6.2848585e-06
6.175636e-06
6.0838358e-06
6.0057923e-06
5.9386797e-06
5.8803543e-06
5.8288433e-06
5.7836675e-06
5.7397381e-06
5.7127622e-06
5.6319025e-06
7.0333994e-06
1.2204489e-07
1.3117712e-05
2.4645277e-05
2.7717104e-05
2.6978815e-05
2.5417926e-05
2.399889e-05
2.2800621e-05
2.1764413e-05
2.0858234e-05
2.0060616e-05
1.9351683e-05
1.8697935e-05
1.8099085e-05
1.7550003e-05
1.7046476e-05
1.6583632e-05
1.6155382e-05
1.5757452e-05
1.538668e-05
1.5039191e-05
1.4712847e-05
1.4405482e-05
1.4115335e-05
1.3840936e-05
1.35805e-05
1.3333225e-05
1.3097662e-05
1.2872536e-05
1.2657422e-05
1.2451373e-05
1.2253445e-05
1.2063327e-05
1.1880368e-05
1.1703773e-05
1.1533292e-05
1.1368577e-05
1.1209046e-05
1.1054318e-05
1.0904276e-05
1.0757711e-05
1.0614495e-05
1.0475003e-05
1.0339152e-05
1.0206678e-05
1.0077298e-05
9.9508855e-06
9.8273177e-06
9.7063562e-06
9.5877893e-06
9.4715404e-06
9.3575343e-06
9.2455651e-06
9.135472e-06
9.0271866e-06
8.920691e-06
8.8158401e-06
8.7124502e-06
8.6104416e-06
8.5098506e-06
8.4105869e-06
8.3124512e-06
8.2153656e-06
8.1193559e-06
8.0243962e-06
7.9303443e-06
7.8370776e-06
7.7445823e-06
7.6528982e-06
7.5619076e-06
7.4714416e-06
7.381464e-06
7.2920521e-06
7.2031151e-06
7.1143927e-06
7.0259063e-06
6.9377523e-06
6.8498456e-06
6.7620067e-06
6.6741794e-06
6.5864387e-06
6.4986641e-06
6.4106617e-06
6.3224335e-06
6.2339928e-06
6.145173e-06
6.0558506e-06
5.9660707e-06
5.8757006e-06
5.7864798e-06
5.7013229e-06
5.6208253e-06
5.5440036e-06
5.4711229e-06
5.4019508e-06
5.33614e-06
5.2733527e-06
5.2133753e-06
5.1560687e-06
5.1012291e-06
5.0486141e-06
4.9980472e-06
4.9494351e-06
4.9026785e-06
4.8576358e-06
4.8141095e-06
4.7720242e-06
4.7310281e-06
4.6916106e-06
4.6515152e-06
4.6158981e-06
4.5582679e-06
7.9756848e-05
2.8110028e-05
1.5600464e-05
1.1247225e-05
9.399701e-06
8.4142446e-06
7.7894615e-06
7.3507274e-06
7.0242429e-06
6.772366e-06
6.5730911e-06
6.4123721e-06
6.2807028e-06
6.1713704e-06
6.0794749e-06
6.0013478e-06
5.9341615e-06
5.87577e-06
5.8241998e-06
5.7789687e-06
5.7349916e-06
5.7079748e-06
5.6268741e-06
7.0097181e-06
2.9645764e-07
3.5323918e-05
6.6316452e-05
7.4571394e-05
7.2591712e-05
6.8401322e-05
6.459071e-05
6.1372099e-05
5.8588152e-05
5.6153112e-05
5.4009474e-05
5.2103936e-05
5.0346496e-05
4.8736468e-05
4.7260107e-05
4.5906121e-05
4.4661431e-05
4.3509688e-05
4.2439418e-05
4.1442131e-05
4.0507412e-05
3.9629526e-05
3.8802651e-05
3.8022059e-05
3.7283799e-05
3.6583077e-05
3.5917739e-05
3.5283888e-05
3.4678097e-05
3.409923e-05
3.3544734e-05
3.3012076e-05
3.2500423e-05
3.2008017e-05
3.1532726e-05
3.1073879e-05
3.0630538e-05
3.0201139e-05
2.9784656e-05
2.9380777e-05
2.8986247e-05
2.8600722e-05
2.8225212e-05
2.7859496e-05
2.7502862e-05
2.7154552e-05
2.6814222e-05
2.6481545e-05
2.6155877e-05
2.583665e-05
2.5523658e-05
2.5216699e-05
2.4915218e-05
2.4618783e-05
2.432721e-05
2.4040452e-05
2.3758117e-05
2.3479711e-05
2.320502e-05
2.2934141e-05
2.2666833e-05
2.2402557e-05
2.2141105e-05
2.1882546e-05
2.1626811e-05
2.1373517e-05
2.1122333e-05
2.0873222e-05
2.0626293e-05
2.0381227e-05
2.0137571e-05
1.9895226e-05
1.9654401e-05
1.9414852e-05
1.9175877e-05
1.8937533e-05
1.8700082e-05
1.8463293e-05
1.8226683e-05
1.7990101e-05
1.7753748e-05
1.75173e-05
1.7280235e-05
1.7042558e-05
1.6804305e-05
1.6565027e-05
1.632439e-05
1.6082518e-05
1.5839052e-05
1.5598678e-05
1.5369249e-05
1.515237e-05
1.4945391e-05
1.4749028e-05
1.4562655e-05
1.4385336e-05
1.4216161e-05
1.4054556e-05
1.3900145e-05
1.375238e-05
1.3610608e-05
1.3474353e-05
1.3343365e-05
1.3217374e-05
1.3096002e-05
1.2978714e-05
1.2865308e-05
1.2754837e-05
1.2648619e-05
1.2540573e-05
1.2444594e-05
1.2289294e-05
7.975672e-05
2.8112056e-05
1.5599735e-05
1.124523e-05
9.3969272e-06
8.4108766e-06
7.7855961e-06
7.3464423e-06
7.0196084e-06
6.7674424e-06
6.5679272e-06
6.4070068e-06
6.2751665e-06
6.1656874e-06
6.0736647e-06
5.9954262e-06
5.9281414e-06
5.8696617e-06
5.8180126e-06
5.7727075e-06
5.7286668e-06
5.7015953e-06
5.6201823e-06
6.9786863e-06
6.1748013e-07
7.8832562e-05
0.00014776432
0.00016609873
0.00016172915
0.00015244999
0.00014400563
0.00013686833
0.00013069115
0.00012528553
0.00012052489
0.00011629154
0.00011238583
0.00010880672
0.00010552392
0.00010251254
9.9743652e-05
9.7181022e-05
9.4799238e-05
9.2579494e-05
9.0498682e-05
8.8544098e-05
8.6702832e-05
8.4964399e-05
8.3320039e-05
8.1759104e-05
8.0276823e-05
7.8864543e-05
7.7514643e-05
7.6224612e-05
7.498878e-05
7.3801511e-05
7.2660963e-05
7.1563227e-05
7.0503562e-05
6.9480482e-05
6.8491898e-05
6.7534333e-05
6.6605506e-05
6.5704729e-05
6.4824737e-05
6.396477e-05
6.3127091e-05
6.2311211e-05
6.1515543e-05
6.0738399e-05
5.9979016e-05
5.9236667e-05
5.8509919e-05
5.7797505e-05
5.7098968e-05
5.641386e-05
5.5740944e-05
5.5079257e-05
5.442839e-05
5.3788239e-05
5.3157932e-05
5.2536367e-05
5.1923066e-05
5.131825e-05
5.0721377e-05
5.013125e-05
4.9547401e-05
4.8969987e-05
4.8398853e-05
4.7833146e-05
4.7272127e-05
4.6715716e-05
4.6164152e-05
4.5616728e-05
4.5072429e-05
4.4531036e-05
4.3993016e-05
4.3457823e-05
4.2923891e-05
4.2391348e-05
4.1860775e-05
4.1331661e-05
4.0802924e-05
4.0274228e-05
3.9746021e-05
3.9217581e-05
3.8687738e-05
3.8156505e-05
3.7623961e-05
3.7089103e-05
3.6551187e-05
3.6010484e-05
3.5466193e-05
3.4928793e-05
3.441584e-05
3.3930926e-05
3.3468128e-05
3.302905e-05
3.2612294e-05
3.2215773e-05
3.1837452e-05
3.1476046e-05
3.113072e-05
3.0800248e-05
3.0483169e-05
3.0178423e-05
2.9885448e-05
2.9603646e-05
2.9332165e-05
2.9069816e-05
2.8816145e-05
2.8569033e-05
2.8331429e-05
2.8089735e-05
2.7875029e-05
2.7527609e-05
7.9756557e-05
2.8114638e-05
1.5598815e-05
1.12427e-05
9.3934072e-06
8.4066009e-06
7.7806877e-06
7.3410001e-06
7.0137216e-06
6.7611872e-06
6.561366e-06
6.4001888e-06
6.2681306e-06
6.1584644e-06
6.0662795e-06
5.987899e-06
5.9204886e-06
5.8618966e-06
5.8101466e-06
5.7647473e-06
5.7206257e-06
5.693484e-06
5.6116795e-06
6.9392801e-06
1.1536144e-06
0.00015558855
0.00029070099
0.0003265172
0.00031810342
0.00030010403
0.00028369709
0.00026980912
0.00025777321
0.00024722912
0.00023793469
0.00022966317
0.00022202575
0.00021502251
0.00020859531
0.00020269643
0.00019726993
0.00019224538
0.00018757347
0.00018321771
0.00017913309
0.00017529494
0.00017167816
0.00016826234
0.00016503043
0.00016196167
0.00015904678
0.00015626886
0.00015361302
0.00015107439
0.0001486419
0.00014630451
0.00014405865
0.00014189668
0.0001398093
0.00013779363
0.00013584558
0.00013395834
0.00013212744
0.00013035155
0.00012861635
0.00012692036
0.00012526809
0.00012365858
0.00012208872
0.0001205552
0.00011905653
0.00011759128
0.00011615664
0.00011475012
0.00011337082
0.00011201788
0.00011068885
0.00010938185
0.00010809607
0.00010683131
0.00010558586
0.00010435755
0.00010314544
0.00010194996
0.00010077007
9.9603377e-05
9.8448977e-05
9.730718e-05
9.6177689e-05
9.5058814e-05
9.3949098e-05
9.2848383e-05
9.1757149e-05
9.0673999e-05
8.9596924e-05
8.8525492e-05
8.7460631e-05
8.6401263e-05
8.5344287e-05
8.4289955e-05
8.3239422e-05
8.2191676e-05
8.1144573e-05
8.0097447e-05
7.905119e-05
7.8004366e-05
7.6954662e-05
7.5902096e-05
7.4846831e-05
7.3786874e-05
7.2720747e-05
7.1648989e-05
7.0570008e-05
6.9504578e-05
6.8487514e-05
6.7525951e-05
6.6608153e-05
6.5737319e-05
6.4910691e-05
6.4124134e-05
6.3373626e-05
6.2656622e-05
6.1971474e-05
6.1315753e-05
6.0686569e-05
6.0081819e-05
5.9500394e-05
5.8941112e-05
5.8402285e-05
5.7881556e-05
5.7378026e-05
5.6887493e-05
5.6415809e-05
5.5935993e-05
5.5509731e-05
5.4819939e-05
7.9756354e-05
2.8117827e-05
1.5597693e-05
1.1239593e-05
9.3890765e-06
8.4013377e-06
7.7746439e-06
7.3342973e-06
7.0064691e-06
6.7534794e-06
6.5532795e-06
6.3917845e-06
6.2594566e-06
6.1495589e-06
6.0571732e-06
5.9786168e-06
5.9110508e-06
5.8523196e-06
5.8004449e-06
5.7549288e-06
5.7107071e-06
5.6834781e-06
5.6011932e-06
6.8901385e-06
1.9775309e-06
0.00028040871
0.00052072623
0.00058399706
0.00056955369
0.00053820484
0.00050953965
0.00048520723
0.00046406547
0.00044550505
0.0004291155
0.00041450718
0.00040099785
0.00038859464
0.00037719864
0.00036672855
0.00035708769
0.00034815291
0.0003398383
0.00033208039
0.00032480007
0.00031795443
0.00031149948
0.00030539946
0.0002996246
0.00029413823
0.00028892426
0.00028395282
0.0002791976
0.00027465019
0.00027029099
0.00026610047
0.00026207243
0.00025819331
0.00025444662
0.00025082735
0.00024732825
0.0002439372
0.00024064631
0.00023745328
0.00023433232
0.0002312809
0.00022830725
0.00022540972
0.00022258274
0.00021982041
0.00021712012
0.00021447936
0.00021189307
0.00020935679
0.00020686898
0.00020442811
0.00020202979
0.00019967063
0.00019734921
0.00019506524
0.00019281561
0.00019059642
0.00018840598
0.00018624514
0.00018411199
0.00018200225
0.00017991427
0.00017784864
0.00017580485
0.00017377983
0.00017177097
0.00016977797
0.00016780174
0.00016583975
0.00016388835
0.00016194677
0.00016001671
0.00015809622
0.00015617967
0.00015426752
0.00015236188
0.00015046091
0.00014856071
0.00014666009
0.00014476065
0.0001428598
0.00014095333
0.00013904126
0.00013712389
0.00013519759
0.00013325967
0.0001313111
0.00012934898
0.00012741108
0.00012556077
0.00012381108
0.00012214068
0.00012055547
0.00011905046
0.00011761818
0.00011625133
0.00011494531
0.00011369712
0.00011250239
0.00011135586
0.00011025371
0.00010919394
0.00010817441
0.00010719206
0.0001062426
0.0001053244
0.00010442982
0.00010356952
0.00010269434
0.00010191674
0.00010065823
7.9756108e-05
2.8121685e-05
1.5596357e-05
1.1235859e-05
9.3838641e-06
8.3949986e-06
7.7673618e-06
7.3262184e-06
6.9977252e-06
6.7441839e-06
6.543525e-06
6.3816446e-06
6.2489896e-06
6.138811e-06
6.0461817e-06
5.9674118e-06
5.8996571e-06
5.840757e-06
5.7887309e-06
5.743073e-06
5.6987302e-06
5.6713943e-06
5.588531e-06
6.8294866e-06
3.1431054e-06
0.00046804704
0.0008601215
0.00096214127
0.00093998757
0.00089068134
0.00084536594
0.00080672509
0.00077300968
0.0007433075
0.00071700245
0.00069349576
0.00067170086
0.00065164781
0.0006331875
0.00061619719
0.00060052692
0.00058598197
0.00057242725
0.00055976328
0.0005478639
0.00053666183
0.0005260873
0.0005160836
0.00050660366
0.0004975887
0.0004890135
0.00048083003
0.00047299594
0.00046549818
0.00045830517
0.00045138538
0.00044472912
0.00043831447
0.00043211467
0.00042612186
0.00042032434
0.00041470235
0.00040924322
0.00040394341
0.00039875998
0.00039368907
0.00038874475
0.00038392446
0.00037921904
0.00037461886
0.00037011981
0.0003657178
0.00036140448
0.00035717256
0.0003530196
0.00034894316
0.00034493599
0.00034099245
0.00033711032
0.00033328918
0.00032952391
0.00032580798
0.00032213867
0.00031851746
0.0003149412
0.00031140276
0.00030789939
0.00030443214
0.00030100021
0.00029759848
0.00029422254
0.00029087198
0.00028754832
0.00028424734
0.00028096293
0.00027769379
0.00027444281
0.00027120673
0.00026797605
0.00026475157
0.00026153683
0.00025832876
0.00025512078
0.00025191084
0.00024870168
0.0002454889
0.00024226537
0.00023903112
0.00023578663
0.00023252576
0.00022924391
0.0002259427
0.00022261719
0.0002193314
0.00021619287
0.00021322389
0.00021038833
0.00020769646
0.00020513996
0.00020270624
0.00020038301
0.00019816252
0.00019603981
0.00019400746
0.00019205662
0.00019018084
0.00018837677
0.00018664082
0.00018496781
0.00018335048
0.00018178609
0.00018026164
0.00017879531
0.00017730345
0.00017597763
0.00017383127
7.9755812e-05
2.8126277e-05
1.5594797e-05
1.1231449e-05
9.3776946e-06
8.3874893e-06
7.7587314e-06
7.3166398e-06
6.9873543e-06
6.7331551e-06
6.5319484e-06
6.3696078e-06
6.2365619e-06
6.1260477e-06
6.0331272e-06
5.9541022e-06
5.8861219e-06
5.8270199e-06
5.7748128e-06
5.7289854e-06
5.6844983e-06
5.6570331e-06
5.5734856e-06
6.7550087e-06
4.6489187e-06
0.00072652948
0.0013146255
0.0014650823
0.0014348333
0.0013648521
0.0013000916
0.0012445288
0.0011957659
0.001152599
0.0011142129
0.0010797862
0.0010477479
0.0010181808
0.0009908868
0.0009657028
0.00094242065
0.00092076216
0.00090053616
0.00088160258
0.00086377903
0.00084697082
0.00083107797
0.0008160193
0.00080172773
0.00078811767
0.00077515377
0.00076276575
0.00075089161
0.00073951342
0.00072858484
0.00071805947
0.00070792389
0.00069814572
0.00068868533
0.00067953174
0.00067066773
0.00066206385
0.00065370159
0.00064557616
0.00063762147
0.00062983227
0.00062223115
0.00061481457
0.00060756871
0.00060047919
0.00059354015
0.00058674558
0.00058008278
0.00057354076
0.00056711611
0.00056080533
0.00055459732
0.00054848347
0.00054246061
0.00053652835
0.00053067884
0.00052490202
0.00051919382
0.00051355672
0.00050798598
0.00050247052
0.00049700611
0.00049159456
0.00048623474
0.00048091868
0.00047563955
0.00047039675
0.0004651928
0.00046002113
0.00045487216
0.00044974389
0.00044464091
0.00043955816
0.00043448071
0.00042940977
0.00042435099
0.00041929954
0.00041424503
0.00040918419
0.00040412136
0.00039904958
0.00039395753
0.0003888452
0.00038371335
0.00037855218
0.00037335431
0.00036812225
0.00036284808
0.00035763333
0.00035264896
0.00034793079
0.00034342165
0.00033913849
0.00033506847
0.00033119187
0.00032748937
0.0003239489
0.00032056275
0.00031731929
0.00031420458
0.00031120847
0.00030832574
0.00030555078
0.00030287545
0.00030028824
0.00029778483
0.00029534455
0.00029299649
0.00029060703
0.00028848268
0.00028504204
7.9755461e-05
2.8131678e-05
1.5593004e-05
1.1226314e-05
9.3704908e-06
8.3787122e-06
7.7486381e-06
7.3054325e-06
6.9752146e-06
6.7202403e-06
6.5183876e-06
6.355504e-06
6.2219967e-06
6.1110863e-06
6.017822e-06
5.9384956e-06
5.8702488e-06
5.8109083e-06
5.7584874e-06
5.7124595e-06
5.6678027e-06
5.6401823e-06
5.5558411e-06
6.663641e-06
6.3979354e-06
0.0010487118
0.0018623789
0.0020663523
0.0020294963
0.001939489
0.0018555517
0.0017830296
0.0017189497
0.0016619035
0.0016109344
0.0015650296
0.0015221203
0.0014823789
0.0014455728
0.0014115102
0.0013799312
0.0013504752
0.001322898
0.0012970218
0.0012726072
0.0012495343
0.0012276734
0.0012069193
0.0011871858
0.0011683596
0.0011503963
0.0011332023
0.0011166952
0.0011008531
0.0010856141
0.0010709161
0.0010567425
0.0010430498
0.0010297845
0.0010169329
0.001004472
0.00099236158
0.00098057723
0.00096911329
0.0009578758
0.00094685864
0.00093609558
0.00092558228
0.0009152996
0.0009052279
0.00089535977
0.00088568718
0.00087619235
0.00086686007
0.00085768617
0.00084866614
0.00083978433
0.00083102861
0.00082239497
0.00081388331
0.00080548253
0.0007971783
0.00078896504
0.00078084675
0.00077281676
0.00076485922
0.00075696806
0.00074914623
0.0007413923
0.00073369483
0.00072604392
0.00071843887
0.00071088352
0.0007033684
0.00069587957
0.00068841412
0.00068097893
0.00067356666
0.00066615543
0.00065874701
0.0006513497
0.00064395646
0.00063655198
0.00062913136
0.00062170099
0.00061425061
0.00060676339
0.0005992392
0.00059167905
0.00058406837
0.00057639603
0.00056866555
0.000560865
0.00055314451
0.00054575778
0.00053875881
0.00053206324
0.00052569767
0.00051964384
0.00051387313
0.00050835739
0.00050307915
0.00049802742
0.00049318533
0.0004885324
0.00048405383
0.00047974211
0.00047558917
0.00047158307
0.00046770682
0.0004639541
0.00046029421
0.00045677074
0.00045318399
0.00044999328
0.00044482196
7.9755048e-05
2.8137961e-05
1.5590973e-05
1.1220405e-05
9.3621763e-06
8.3685698e-06
7.7369672e-06
7.2924662e-06
6.9611627e-06
6.7052845e-06
6.5026777e-06
6.3391597e-06
6.2051132e-06
6.0937395e-06
6.000073e-06
5.9203942e-06
5.8518356e-06
5.7922161e-06
5.7395451e-06
5.6932824e-06
5.6484283e-06
5.6206222e-06
5.535382e-06
6.5531058e-06
8.2446641e-06
0.0014086648
0.0024576813
0.0027153571
0.002674783
0.0025683827
0.0024684227
0.0023814561
0.002304079
0.0022348056
0.0021726221
0.002116384
0.0020635798
0.002014501
0.0019688998
0.001926573
0.0018872221
0.0018504172
0.0018158721
0.0017833803
0.0017526525
0.00172355
0.0016959187
0.0016696332
0.0016445924
0.0016206582
0.0015977802
0.0015758438
0.0015547482
0.0015344694
0.0015149315
0.0014960582
0.0014778312
0.0014601965
0.0014430876
0.0014264896
0.0014103738
0.0013946899
0.0013794086
0.001364524
0.0013499126
0.0013355682
0.0013215376
0.0013078159
0.0012943786
0.0012812012
0.0012682752
0.0012555909
0.0012431251
0.0012308585
0.0012187867
0.0012069044
0.0011951912
0.0011836313
0.0011722201
0.0011609582
0.0011498311
0.0011388199
0.0011279176
0.00111713
0.0011064487
0.0010958524
0.0010853333
0.0010748955
0.0010645378
0.0010542446
0.0010440028
0.0010338115
0.0010236764
0.0010135846
0.0010035174
0.00099347076
0.00098345426
0.00097345806
0.00096345239
0.00095343955
0.00094343083
0.0009334167
0.00092337614
0.00091330233
0.00090320392
0.00089306678
0.00088286769
0.00087260615
0.00086228339
0.00085187912
0.00084137767
0.0008307835
0.0008200798
0.00080947238
0.00079931081
0.00078967088
0.00078043707
0.00077164853
0.00076328151
0.00075529769
0.00074765913
0.00074034254
0.00073333358
0.00072660963
0.00072014289
0.00071391337
0.00070791118
0.00070212562
0.00069654051
0.00069113256
0.00068589328
0.0006807803
0.0006758544
0.000670838
0.00066637193
0.00065912675
7.9754567e-05
2.8145203e-05
1.5588706e-05
1.121368e-05
9.3526793e-06
8.3569686e-06
7.7236072e-06
7.2776143e-06
6.945058e-06
6.6881351e-06
6.4846555e-06
6.3204028e-06
6.1857314e-06
6.0738206e-06
5.9796879e-06
5.8996003e-06
5.83068e-06
5.7707368e-06
5.7177757e-06
5.6712403e-06
5.6261591e-06
5.5981307e-06
5.5119043e-06
6.4286732e-06
1.0038285e-05
0.0017764053
0.0030492836
0.0033583575
0.0033173362
0.0031993699
0.0030878354
0.002990176
0.0029027061
0.0028239897
0.0027530354
0.0026886299
0.0026279158
0.0025713117
0.0025185715
0.002469495
0.0024237591
0.0023808811
0.0023405469
0.0023025316
0.0022665067
0.002232323
0.0021998078
0.0021688216
0.0021392529
0.0021109444
0.0020838424
0.0020578154
0.0020327484
0.0020086172
0.0019853343
0.0019628125
0.0019410327
0.0019199324
0.0018994346
0.0018795244
0.0018601681
0.0018413069
0.0018229083
0.0018049667
0.0017873312
0.0017699961
0.001753021
0.0017364012
0.001720107
0.0017041097
0.0016884009
0.0016729693
0.0016577868
0.0016428306
0.0016280963
0.0016135785
0.0015992521
0.0015850979
0.0015711113
0.0015572938
0.0015436276
0.0015300894
0.0015166711
0.0015033806
0.0014902077
0.0014771262
0.0014641261
0.0014512134
0.0014383868
0.0014256269
0.0014129173
0.0014002572
0.0013876538
0.0013750913
0.001362546
0.0013500128
0.0013375039
0.0013250071
0.0013124847
0.0012999395
0.0012873855
0.0012748108
0.0012621886
0.0012495099
0.0012367855
0.0012239974
0.0012111157
0.0011981393
0.0011850694
0.0011718798
0.0011585498
0.0011450847
0.0011314622
0.0011179439
0.0011049766
0.0010926589
0.0010808439
0.0010695851
0.0010588541
0.0010486033
0.0010387853
0.0010293715
0.0010203446
0.0010116766
0.0010033324
0.00099528703
0.0009875285
0.00098004374
0.00097281242
0.00096580496
0.00095901075
0.00095237564
0.00094597815
0.00093946055
0.00093365265
0.00092422024
7.975401e-05
2.8153482e-05
1.558621e-05
1.1206105e-05
9.341936e-06
8.3438231e-06
7.7084556e-06
7.2607586e-06
6.9267686e-06
6.668648e-06
6.4641664e-06
6.2990694e-06
6.1636794e-06
6.0511508e-06
5.9564815e-06
5.8759233e-06
5.8065867e-06
5.7462707e-06
5.6929756e-06
5.6461256e-06
5.6007858e-06
5.5724901e-06
5.48523e-06
6.2960154e-06
1.162109e-05
0.0021279773
0.0036032924
0.0039562248
0.0039176381
0.0037925749
0.0036736714
0.0035689179
0.0034744805
0.003389085
0.0033118284
0.0032414807
0.0031750013
0.0031128651
0.0030548406
0.0030007405
0.0029502272
0.0029027801
0.0028580696
0.002815861
0.0027757971
0.0027377246
0.0027014585
0.0026668493
0.0026337799
0.0026020788
0.0025716912
0.0025424729
0.0025142991
0.0024871462
0.0024609182
0.0024355198
0.0024109326
0.0023870865
0.0023638976
0.0023413517
0.0023194107
0.0022980093
0.0022771134
0.0022567183
0.0022366504
0.0022169047
0.0021975519
0.002178587
0.002159976
0.0021416871
0.0021237127
0.0021060403
0.0020886374
0.0020714783
0.0020545594
0.0020378753
0.0020213969
0.0020051018
0.0019889858
0.0019730517
0.0019572787
0.0019416397
0.0019261255
0.0019107465
0.0018954907
0.0018803277
0.0018652456
0.0018502521
0.0018353459
0.0018205045
0.0018057084
0.0017909567
0.0017762584
0.0017615948
0.001746938
0.0017322818
0.0017176409
0.0017030008
0.0016883168
0.0016735919
0.0016588428
0.0016440553
0.0016291972
0.0016142574
0.0015992488
0.0015841497
0.0015689239
0.0015535697
0.0015380881
0.0015224475
0.0015066224
0.0014906182
0.0014744078
0.0014583019
0.001442834
0.0014281238
0.0014139962
0.001400519
0.0013876601
0.0013753644
0.0013635765
0.001352263
0.0013414048
0.001330969
0.0013209145
0.001311212
0.0013018479
0.0012928071
0.0012840659
0.001275589
0.0012673641
0.0012593266
0.0012515709
0.0012436675
0.0012366183
0.0012251568
7.9753369e-05
2.816287e-05
1.55835e-05
1.1197659e-05
9.3298958e-06
8.3290619e-06
7.691424e-06
7.2417963e-06
6.9061784e-06
6.646695e-06
6.4410715e-06
6.2750111e-06
6.1388007e-06
6.0255663e-06
5.9302838e-06
5.8491878e-06
5.7793751e-06
5.7186328e-06
5.6649558e-06
5.6177454e-06
5.572114e-06
5.5434938e-06
5.4552282e-06
6.1575435e-06
1.2846633e-05
0.002437477
0.0040961478
0.0044927633
0.0044580504
0.0043286036
0.0042050462
0.0040955287
0.0039961786
0.0039059572
0.0038240786
0.0037493213
0.0036788781
0.0036128943
0.0035511633
0.0034935178
0.0034396127
0.0033889008
0.003341047
0.0032958136
0.0032528226
0.0032119223
0.0031729193
0.003135658
0.0031000189
0.0030658202
0.0030330081
0.0030014286
0.0029709505
0.002941552
0.0029131301
0.0028855847
0.0028588982
0.0028329949
0.0028077857
0.0027832583
0.0027593705
0.0027360522
0.002713269
0.0026910173
0.0026691158
0.0026475556
0.0026264107
0.0026056761
0.0025853136
0.0025652896
0.0025455977
0.0025262246
0.0025071338
0.0024882975
0.0024697133
0.002451376
0.0024332531
0.0024153195
0.0023975715
0.0023800136
0.0023626224
0.0023453672
0.0023282386
0.0023112487
0.0022943848
0.0022776123
0.002260918
0.0022443112
0.0022277909
0.0022113318
0.0021949115
0.0021785296
0.0021621965
0.0021458912
0.0021295821
0.0021132622
0.0020969481
0.0020806239
0.002064239
0.0020477963
0.0020313148
0.0020147784
0.0019981503
0.0019814179
0.0019645954
0.0019476582
0.0019305651
0.0019133133
0.0018959041
0.0018783009
0.0018604742
0.0018424295
0.0018241354
0.001805942
0.0017884528
0.0017718053
0.0017558023
0.0017405228
0.0017259322
0.0017119696
0.0016985731
0.0016857062
0.001673348
0.0016614623
0.001650003
0.0016389375
0.0016282508
0.0016179268
0.0016079387
0.001598247
0.0015888378
0.0015796383
0.0015707557
0.0015617032
0.0015536227
0.0015404697
7.9752636e-05
2.8173432e-05
1.5580604e-05
1.1188335e-05
9.3165262e-06
8.3126329e-06
7.6724454e-06
7.220647e-06
6.8831947e-06
6.6221719e-06
6.4152562e-06
6.2481043e-06
6.1109636e-06
5.9969283e-06
5.9009498e-06
5.819243e-06
5.7488897e-06
5.687663e-06
5.6335523e-06
5.5859314e-06
5.5399749e-06
5.510942e-06
5.4218545e-06
6.0161493e-06
1.359896e-05
0.0026808447
0.0045073171
0.0049555604
0.0049277937
0.0047973183
0.0046722011
0.0045605454
0.0044585432
0.004365486
0.0042807597
0.0042031926
0.0041299593
0.0040612329
0.0039968363
0.0039366253
0.00388025
0.0038271437
0.0037769726
0.0037294996
0.0036843311
0.0036413209
0.0036002691
0.0035610166
0.0035234434
0.0034873599
0.0034527144
0.0034193449
0.0033871164
0.0033560094
0.0033259151
0.00329673
0.0032684384
0.0032409592
0.0032142
0.0031881508
0.0031627657
0.0031379707
0.0031137323
0.0030900477
0.0030667781
0.0030438912
0.0030214347
0.0029994035
0.0029777559
0.0029564568
0.002935502
0.0029148772
0.0028945425
0.0028744685
0.0028546544
0.0028350954
0.0028157559
0.0027966084
0.0027776504
0.0027588879
0.002740295
0.0027218383
0.0027035081
0.0026853187
0.0026672564
0.0026492834
0.0026313851
0.0026135724
0.0025958451
0.002578175
0.0025605377
0.0025429332
0.002525373
0.0025078346
0.0024902831
0.0024727108
0.0024551364
0.0024375426
0.0024198741
0.0024021339
0.0023843426
0.0023664828
0.0023485141
0.0023304223
0.0023122231
0.0022938895
0.0022753762
0.0022566796