/*--------------------------------*- C++ -*----------------------------------*\
  =========                 |
  \\      /  F ield         | OpenFOAM: The Open Source CFD Toolbox
   \\    /   O peration     | Website:  https://openfoam.org
    \\  /    A nd           | Version:  12
     \\/     M anipulation  |
\*---------------------------------------------------------------------------*/
FoamFile
{
    format      ascii;
    class       volScalarField;
    location    "1600";
    object      nut;
}
// * * * * * * * * * * * * * * * * * * * * * * * * * * * * * * * * * * * * * //

dimensions      [0 2 -1 0 0 0 0];

internalField   nonuniform List<scalar> 
7480
(
1.1636261e-10
1.1347224e-10
1.1066773e-10
1.0826944e-10
1.0656949e-10
1.0570985e-10
9.5170473e-11
8.2034325e-11
7.2687263e-11
6.5334509e-11
6.202043e-11
4.9658354e-11
2.3446318e-07
3.4420522e-06
5.5164697e-06
6.8687336e-06
7.6634919e-06
8.0701453e-06
8.2791184e-06
8.2717342e-06
8.2274398e-06
8.1446756e-06
7.8462928e-06
7.203228e-06
6.6521228e-06
6.1828452e-06
5.7888784e-06
5.4743352e-06
5.2180214e-06
5.0087653e-06
4.8409024e-06
4.7108579e-06
4.6150635e-06
4.5496677e-06
4.5105969e-06
4.4938342e-06
4.4952546e-06
4.5104762e-06
4.5385544e-06
4.5789763e-06
4.6296957e-06
4.6881208e-06
4.7517655e-06
4.8187372e-06
4.8885204e-06
4.9581258e-06
5.0266591e-06
5.0929902e-06
5.1557523e-06
5.2136685e-06
5.2684733e-06
5.3186732e-06
5.3625845e-06
5.3992831e-06
5.4286836e-06
5.4513631e-06
5.4681935e-06
5.4802252e-06
5.4893442e-06
5.4966441e-06
5.5024222e-06
5.5066798e-06
5.5095098e-06
5.5111393e-06
5.5117953e-06
5.5116512e-06
5.5108446e-06
5.5097162e-06
5.5085564e-06
5.5073097e-06
5.5057515e-06
5.5037288e-06
5.5011946e-06
5.4981659e-06
5.4947014e-06
5.4909622e-06
5.4870875e-06
5.4830527e-06
5.478741e-06
5.4740814e-06
5.4690804e-06
5.4637822e-06
5.4583146e-06
5.452745e-06
5.4470197e-06
5.4410739e-06
5.4348757e-06
5.4284531e-06
5.4219124e-06
5.4152844e-06
5.4085221e-06
5.4015849e-06
5.3944625e-06
5.3871895e-06
5.3798467e-06
5.372217e-06
5.3647467e-06
5.3555626e-06
5.3491639e-06
5.3333559e-06
4.7498628e-10
4.7102724e-10
4.6658697e-10
4.6191667e-10
4.5707826e-10
4.520892e-10
4.4699121e-10
4.4178206e-10
4.3657313e-10
4.3088245e-10
4.2689413e-10
4.1504497e-10
2.0754898e-08
4.9299126e-07
2.1714963e-06
4.196734e-06
5.1955752e-06
5.4049165e-06
5.2517774e-06
5.0688831e-06
4.9863335e-06
4.9849137e-06
5.0521333e-06
5.1772782e-06
5.4305486e-06
5.7895738e-06
6.2644336e-06
6.9047928e-06
7.246739e-06
7.6259832e-06
8.0295111e-06
8.4448159e-06
8.862251e-06
9.2745195e-06
9.6764806e-06
1.0066031e-05
1.0439525e-05
1.0799737e-05
1.1155635e-05
1.1510132e-05
1.1856079e-05
1.218808e-05
1.2504068e-05
1.2804431e-05
1.3095586e-05
1.335726e-05
1.3604868e-05
1.3831221e-05
1.4035415e-05
1.4218339e-05
1.4379119e-05
1.4516158e-05
1.4630797e-05
1.4725812e-05
1.4804504e-05
1.4870122e-05
1.4925396e-05
1.4973289e-05
1.5017957e-05
1.5058998e-05
1.5095974e-05
1.5129041e-05
1.5158789e-05
1.5185842e-05
1.5210658e-05
1.5233526e-05
1.5254706e-05
1.527465e-05
1.5293136e-05
1.5309472e-05
1.5323352e-05
1.533492e-05
1.5344473e-05
1.5352294e-05
1.5358682e-05
1.5363907e-05
1.5367836e-05
1.5370123e-05
1.5370654e-05
1.5369627e-05
1.5367317e-05
1.536401e-05
1.5359887e-05
1.5354751e-05
1.5348361e-05
1.534074e-05
1.5332066e-05
1.5322637e-05
1.5312604e-05
1.5301788e-05
1.5290032e-05
1.5277382e-05
1.5264031e-05
1.5250162e-05
1.5235689e-05
1.5220481e-05
1.5204523e-05
1.5186944e-05
1.5172668e-05
1.5139687e-05
4.773585e-10
4.7709782e-10
4.768116e-10
4.765034e-10
4.7617418e-10
4.7582357e-10
4.7544941e-10
4.7505577e-10
4.7461876e-10
4.7421807e-10
4.7346489e-10
4.7402705e-10
2.4091219e-10
1.0531314e-09
1.7462685e-08
1.1896991e-07
4.81823e-07
1.1516731e-06
1.9678578e-06
2.6256457e-06
2.9736668e-06
3.0830151e-06
3.0642904e-06
2.9952449e-06
2.9286949e-06
2.9515387e-06
3.0597403e-06
3.264621e-06
3.554103e-06
3.923293e-06
4.3856425e-06
4.8905253e-06
5.4542923e-06
6.0817456e-06
6.7751518e-06
7.536553e-06
8.3750152e-06
9.3109868e-06
1.019278e-05
1.1052437e-05
1.1929891e-05
1.2804777e-05
1.3660857e-05
1.4495104e-05
1.530945e-05
1.6107241e-05
1.6872623e-05
1.7587297e-05
1.8262286e-05
1.8899551e-05
1.9372284e-05
1.9797662e-05
2.0184677e-05
2.0538913e-05
2.0863884e-05
2.1162662e-05
2.1439276e-05
2.1697518e-05
2.1936835e-05
2.2157762e-05
2.2362125e-05
2.2552182e-05
2.2729966e-05
2.2897177e-05
2.3054963e-05
2.3204045e-05
2.3345191e-05
2.3477993e-05
2.3601746e-05
2.3716652e-05
2.3823449e-05
2.392293e-05
2.4015807e-05
2.410269e-05
2.4184243e-05
2.4260345e-05
2.4330391e-05
2.439444e-05
2.4453084e-05
2.4506988e-05
2.4556634e-05
2.4602577e-05
2.4644636e-05
2.4682348e-05
2.4715782e-05
2.4745448e-05
2.4771823e-05
2.4795466e-05
2.4816216e-05
2.4833687e-05
2.4847966e-05
2.4859454e-05
2.4868631e-05
2.487565e-05
2.4880084e-05
2.4882283e-05
2.4881222e-05
2.487992e-05
2.4872595e-05
2.4860222e-05
4.7960405e-10
4.7951445e-10
4.7942475e-10
4.7932992e-10
4.7922783e-10
4.7911781e-10
4.7899938e-10
4.7887271e-10
4.787356e-10
4.7859562e-10
4.7841945e-10
4.7834138e-10
4.7781413e-10
4.7333382e-10
4.8638089e-10
5.86436e-10
1.3055771e-09
5.0007202e-09
2.0055563e-08
5.9100601e-08
1.3266535e-07
2.4527224e-07
3.9556997e-07
5.7657263e-07
7.80993e-07
9.8879245e-07
1.1857185e-06
1.3683569e-06
1.5393868e-06
1.7040227e-06
1.8716921e-06
2.0501188e-06
2.2456487e-06
2.499065e-06
2.8169688e-06
3.20422e-06
3.6753878e-06
4.2435704e-06
4.9067763e-06
5.6891211e-06
6.6127629e-06
7.6838147e-06
8.8486941e-06
9.8862843e-06
1.0976918e-05
1.2110379e-05
1.3272675e-05
1.4440447e-05
1.5606863e-05
1.6760297e-05
1.7886086e-05
1.898231e-05
2.0007237e-05
2.0976364e-05
2.1901745e-05
2.278247e-05
2.3619385e-05
2.4388479e-05
2.5000677e-05
2.5570617e-05
2.6105612e-05
2.6611538e-05
2.7091994e-05
2.7548831e-05
2.7983241e-05
2.8396818e-05
2.879189e-05
2.9167465e-05
2.9521989e-05
2.9856326e-05
3.0172279e-05
3.0471602e-05
3.0755707e-05
3.1025653e-05
3.1282575e-05
3.1526304e-05
3.1756179e-05
3.1972688e-05
3.2176868e-05
3.2369761e-05
3.2552196e-05
3.2725169e-05
3.2888357e-05
3.3041358e-05
3.3184622e-05
3.331903e-05
3.344531e-05
3.3564349e-05
3.3675843e-05
3.3779459e-05
3.3875597e-05
3.3964969e-05
3.4048332e-05
3.4125858e-05
3.4196986e-05
3.4262555e-05
3.4320735e-05
3.4378512e-05
3.4415659e-05
3.4483841e-05
4.8170881e-10
4.816318e-10
4.8155485e-10
4.8147278e-10
4.813843e-10
4.8128902e-10
4.8118678e-10
4.8107743e-10
4.8096095e-10
4.8083676e-10
4.8070681e-10
4.8056221e-10
4.8043986e-10
4.8023905e-10
4.8005947e-10
4.799865e-10
4.8032501e-10
4.8269378e-10
4.9679092e-10
5.5234918e-10
7.1805203e-10
1.1344051e-09
2.0600448e-09
3.9337299e-09
7.4287108e-09
1.3498215e-08
2.3406424e-08
3.8837147e-08
6.2093278e-08
9.6264159e-08
1.4582854e-07
2.1696155e-07
3.1848637e-07
4.576755e-07
6.4172732e-07
8.7380024e-07
1.1549696e-06
1.4711195e-06
1.8378639e-06
2.2209018e-06
2.6272763e-06
3.1147527e-06
3.716847e-06
4.4428865e-06
5.2967322e-06
6.3014373e-06
7.4864411e-06
8.8450073e-06
9.9540071e-06
1.1148404e-05
1.241749e-05
1.3747867e-05
1.5109298e-05
1.6490611e-05
1.7873731e-05
1.9240808e-05
2.0592411e-05
2.1877626e-05
2.3113172e-05
2.4312323e-05
2.5470676e-05
2.6580883e-05
2.7628642e-05
2.862101e-05
2.9570522e-05
3.048402e-05
3.1367378e-05
3.2136825e-05
3.2825671e-05
3.3480696e-05
3.4105959e-05
3.4704062e-05
3.5276443e-05
3.5824213e-05
3.6349317e-05
3.6850795e-05
3.7327133e-05
3.7779596e-05
3.8210167e-05
3.8620587e-05
3.9012145e-05
3.9386357e-05
3.974251e-05
4.0080224e-05
4.0400419e-05
4.0704426e-05
4.0993329e-05
4.1268459e-05
4.1529283e-05
4.1775645e-05
4.2008349e-05
4.2228441e-05
4.2436998e-05
4.2634191e-05
4.2819408e-05
4.2994149e-05
4.3155534e-05
4.3316035e-05
4.3433702e-05
4.3644101e-05
4.8248672e-10
4.8241379e-10
4.8234152e-10
4.8226445e-10
4.821812e-10
4.8209136e-10
4.8199475e-10
4.8189126e-10
4.8178078e-10
4.8166325e-10
4.8153853e-10
4.8140713e-10
4.812668e-10
4.8113064e-10
4.8096933e-10
4.8075827e-10
4.8054915e-10
4.8036612e-10
4.8024788e-10
4.8019539e-10
4.8029632e-10
4.8080232e-10
4.8219963e-10
4.8563126e-10
4.9320227e-10
5.0862571e-10
5.3814134e-10
5.9213884e-10
6.8806767e-10
8.5568353e-10
1.1480947e-09
1.6635065e-09
2.5929611e-09
4.3126581e-09
7.5844396e-09
1.3865253e-08
2.6098349e-08
4.9258282e-08
9.3200899e-08
1.7419358e-07
3.1388226e-07
5.3543757e-07
8.6502778e-07
1.296234e-06
1.8516252e-06
2.4316329e-06
3.0024884e-06
3.6692105e-06
4.4608626e-06
5.401928e-06
6.5322522e-06
7.8644212e-06
9.4382196e-06
1.0747025e-05
1.2029619e-05
1.3399757e-05
1.4846869e-05
1.6343701e-05
1.7890166e-05
1.9460914e-05
2.1032079e-05
2.2577126e-05
2.4051476e-05
2.551715e-05
2.6973212e-05
2.8405522e-05
2.9787133e-05
3.1109134e-05
3.2377232e-05
3.3599051e-05
3.47777e-05
3.5906248e-05
3.6984611e-05
3.8019159e-05
3.9021009e-05
3.9915492e-05
4.0718576e-05
4.1486682e-05
4.2222968e-05
4.2929589e-05
4.3607872e-05
4.4259894e-05
4.4883183e-05
4.5477262e-05
4.6044051e-05
4.6585646e-05
4.7103598e-05
4.7599765e-05
4.8072959e-05
4.8523155e-05
4.8951665e-05
4.9359969e-05
4.974957e-05
5.0120588e-05
5.0472363e-05
5.0807116e-05
5.1120759e-05
5.143261e-05
5.1672245e-05
5.2093872e-05
4.8239934e-10
4.8232778e-10
4.8225708e-10
4.8218174e-10
4.8210034e-10
4.8201247e-10
4.8191796e-10
4.8181669e-10
4.8170856e-10
4.8159353e-10
4.8147157e-10
4.813428e-10
4.8120745e-10
4.8106609e-10
4.8091862e-10
4.8076423e-10
4.8059978e-10
4.8042947e-10
4.8020079e-10
4.7994429e-10
4.7968047e-10
4.7942636e-10
4.7921642e-10
4.7902633e-10
4.7887307e-10
4.787743e-10
4.7871738e-10
4.7872683e-10
4.788585e-10
4.792103e-10
4.7996683e-10
4.814063e-10
4.8415218e-10
4.8937738e-10
4.9949764e-10
5.1933432e-10
5.5959943e-10
6.4241976e-10
8.1966526e-10
1.215765e-09
2.1616712e-09
4.4609721e-09
1.0435596e-08
2.51682e-08
6.2049305e-08
1.4803613e-07
3.2027386e-07
6.281537e-07
1.0952486e-06
1.7490322e-06
2.479857e-06
3.1621763e-06
3.9416123e-06
4.8556705e-06
5.9617354e-06
7.3048388e-06
8.8844085e-06
1.0739985e-05
1.2205469e-05
1.3599511e-05
1.5097294e-05
1.6684593e-05
1.8334929e-05
2.0050481e-05
2.1793194e-05
2.3542772e-05
2.5228578e-05
2.6921595e-05
2.8633399e-05
3.0338883e-05
3.1995232e-05
3.3598872e-05
3.5163238e-05
3.6693695e-05
3.8187102e-05
3.962339e-05
4.0995034e-05
4.2312055e-05
4.3580917e-05
4.4800518e-05
4.5971098e-05
4.7102554e-05
4.8092776e-05
4.9010648e-05
4.989152e-05
5.0738019e-05
5.1551845e-05
5.233532e-05
5.3084931e-05
5.3801163e-05
5.4486373e-05
5.5142623e-05
5.5771923e-05
5.637397e-05
5.694786e-05
5.7496639e-05
5.8015034e-05
5.8530386e-05
5.893746e-05
5.96449e-05
4.822948e-10
4.8222302e-10
4.8215203e-10
4.8207636e-10
4.8199461e-10
4.8190638e-10
4.8181147e-10
4.8170978e-10
4.8160123e-10
4.8148573e-10
4.8136326e-10
4.8123387e-10
4.8109773e-10
4.8095496e-10
4.8080543e-10
4.8064895e-10
4.804852e-10
4.8031421e-10
4.8013486e-10
4.7994614e-10
4.7974721e-10
4.7953675e-10
4.7931263e-10
4.7906968e-10
4.7878959e-10
4.7846492e-10
4.781262e-10
4.7778309e-10
4.7744176e-10
4.7710957e-10
4.7680183e-10
4.7653427e-10
4.762871e-10
4.7606342e-10
4.7590395e-10
4.7579168e-10
4.7574001e-10
4.7580781e-10
4.7613808e-10
4.7704407e-10
4.7931086e-10
4.849014e-10
4.9966589e-10
5.3876702e-10
6.4480628e-10
9.617014e-10
1.9017862e-09
4.9308748e-09
1.4272427e-08
4.2572546e-08
1.2271145e-07
3.0272732e-07
6.5479639e-07
1.2015687e-06
2.0052388e-06
2.8021605e-06
3.6121629e-06
4.5762354e-06
5.7362827e-06
7.1422138e-06
8.8245394e-06
1.0788714e-05
1.2907076e-05
1.4347557e-05
1.5907409e-05
1.7581142e-05
1.9338775e-05
2.1187931e-05
2.3091747e-05
2.5022668e-05
2.6901123e-05
2.8806577e-05
3.0746029e-05
3.2686552e-05
3.4581396e-05
3.6444961e-05
3.8289151e-05
4.0104374e-05
4.1872533e-05
4.3584496e-05
4.5243954e-05
4.6860833e-05
4.8416418e-05
4.9901624e-05
5.1325732e-05
5.2697087e-05
5.4016615e-05
5.5291302e-05
5.6394829e-05
5.743661e-05
5.8438305e-05
5.9402163e-05
6.0330599e-05
6.1221578e-05
6.2073849e-05
6.2891876e-05
6.3669366e-05
6.4442526e-05
6.5065144e-05
6.6136597e-05
4.8234712e-10
4.8227508e-10
4.822038e-10
4.821278e-10
4.8204568e-10
4.8195705e-10
4.8186172e-10
4.8175956e-10
4.816505e-10
4.8153444e-10
4.8141133e-10
4.8128117e-10
4.8114402e-10
4.8099988e-10
4.8084858e-10
4.8068985e-10
4.8052347e-10
4.8034932e-10
4.8016748e-10
4.7997799e-10
4.7978079e-10
4.7957573e-10
4.7936247e-10
4.7914065e-10
4.7890951e-10
4.7866775e-10
4.7841468e-10
4.7814985e-10
4.7787285e-10
4.7758311e-10
4.7727959e-10
4.7696101e-10
4.7662258e-10
4.7625893e-10
4.7583861e-10
4.753935e-10
4.7494226e-10
4.7449411e-10
4.7405674e-10
4.7366375e-10
4.7332395e-10
4.7301526e-10
4.7280959e-10
4.7269294e-10
4.7273503e-10
4.7324346e-10
4.7508074e-10
4.8113202e-10
5.0262935e-10
5.6821206e-10
8.241524e-10
1.6535311e-09
5.0085407e-09
1.6016738e-08
5.5593115e-08
1.7031917e-07
4.3292686e-07
9.1466957e-07
1.7133875e-06
2.6404217e-06
3.5477214e-06
4.5662354e-06
5.8507632e-06
7.4046406e-06
9.2702575e-06
1.1440835e-05
1.3895493e-05
1.5602728e-05
1.7271241e-05
1.9067965e-05
2.0962757e-05
2.2964475e-05
2.502958e-05
2.7116872e-05
2.9166048e-05
3.12859e-05
3.3458982e-05
3.5629169e-05
3.7769561e-05
3.9889697e-05
4.1991245e-05
4.4060485e-05
4.6089441e-05
4.8070071e-05
5.0003027e-05
5.1879791e-05
5.3693317e-05
5.5452702e-05
5.7141307e-05
5.8755876e-05
6.030372e-05
6.1793486e-05
6.3233476e-05
6.4520405e-05
6.5705008e-05
6.6846696e-05
6.7937828e-05
6.9023676e-05
6.9910784e-05
7.1425627e-05
4.8244581e-10
4.8237378e-10
4.8230251e-10
4.8222651e-10
4.821444e-10
4.8205577e-10
4.8196042e-10
4.8185826e-10
4.8174917e-10
4.8163308e-10
4.8150992e-10
4.8137968e-10
4.8124237e-10
4.8109797e-10
4.8094636e-10
4.8078725e-10
4.8062045e-10
4.8044584e-10
4.8026336e-10
4.8007295e-10
4.7987456e-10
4.7966812e-10
4.794536e-10
4.7923096e-10
4.7900022e-10
4.7876143e-10
4.7851455e-10
4.7825944e-10
4.7799593e-10
4.7772381e-10
4.7744278e-10
4.7715245e-10
4.7685233e-10
4.7654205e-10
4.7622013e-10
4.7588559e-10
4.7553794e-10
4.7517689e-10
4.7480162e-10
4.7441142e-10
4.7400155e-10
4.7356807e-10
4.7305131e-10
4.7250274e-10
4.7195374e-10
4.7142666e-10
4.7100437e-10
4.7062099e-10
4.7040863e-10
4.7029351e-10
4.7064554e-10
4.7189897e-10
4.7874913e-10
5.011891e-10
5.9836846e-10
9.6290909e-10
2.583754e-09
8.6349063e-09
3.3932957e-08
1.2206374e-07
3.584121e-07
8.2374068e-07
1.6711399e-06
2.695485e-06
3.7194467e-06
4.8700102e-06
6.3407958e-06
8.1430764e-06
1.0310313e-05
1.2791487e-05
1.5530396e-05
1.7396849e-05
1.9222987e-05
2.1177601e-05
2.3236829e-05
2.5405363e-05
2.764181e-05
2.9879657e-05
3.2157716e-05
3.4516859e-05
3.6914107e-05
3.9293262e-05
4.1669352e-05
4.4049985e-05
4.6416839e-05
4.8740061e-05
5.1013118e-05
5.3243402e-05
5.5434107e-05
5.7562505e-05
5.962537e-05
6.1623809e-05
6.355904e-05
6.5415389e-05
6.7190178e-05
6.8892441e-05
7.052583e-05
7.2129901e-05
7.3347504e-05
7.5383385e-05
4.8255668e-10
4.8248469e-10
4.8241346e-10
4.8233752e-10
4.8225545e-10
4.8216685e-10
4.8207154e-10
4.8196941e-10
4.8186035e-10
4.8174429e-10
4.8162115e-10
4.814909e-10
4.8135353e-10
4.8120903e-10
4.8105725e-10
4.80898e-10
4.8073107e-10
4.8055635e-10
4.8037377e-10
4.8018326e-10
4.7998474e-10
4.7977814e-10
4.7956339e-10
4.7934044e-10
4.7910922e-10
4.7886968e-10
4.7862177e-10
4.7836545e-10
4.7810068e-10
4.7782743e-10
4.7754566e-10
4.7725535e-10
4.7695648e-10
4.7664902e-10
4.7633309e-10
4.7600871e-10
4.7567578e-10
4.7533414e-10
4.7498358e-10
4.7462378e-10
4.7425409e-10
4.738743e-10
4.7348206e-10
4.7307576e-10
4.7265443e-10
4.7221707e-10
4.7175899e-10
4.7128064e-10
4.706757e-10
4.7004972e-10
4.6942199e-10
4.6893435e-10
4.6850623e-10
4.6826191e-10
4.6822723e-10
4.6863675e-10
4.7152246e-10
4.8369215e-10
5.35352e-10
7.8678842e-10
1.9566772e-09
7.0219904e-09
2.9967394e-08
1.1998541e-07
3.8275075e-07
9.098679e-07
1.9128099e-06
3.0059048e-06
4.1793966e-06
5.5604077e-06
7.3489635e-06
9.5301595e-06
1.2118615e-05
1.4989786e-05
1.7912165e-05
1.9800946e-05
2.1823405e-05
2.3963547e-05
2.6220558e-05
2.8575557e-05
3.0983926e-05
3.3400449e-05
3.5930453e-05
3.8542575e-05
4.1157997e-05
4.3782461e-05
4.6422532e-05
4.9057987e-05
5.1667517e-05
5.4241616e-05
5.6779098e-05
5.9261185e-05
6.1676387e-05
6.4038839e-05
6.6340529e-05
6.8566472e-05
7.071425e-05
7.282194e-05
7.4651923e-05
7.7550889e-05
4.8268676e-10
4.826148e-10
4.825436e-10
4.8246768e-10
4.8238563e-10
4.8229705e-10
4.8220176e-10
4.8209963e-10
4.8199057e-10
4.8187449e-10
4.8175133e-10
4.8162102e-10
4.8148354e-10
4.8133886e-10
4.8118686e-10
4.8102735e-10
4.8086015e-10
4.8068516e-10
4.805023e-10
4.803115e-10
4.8011268e-10
4.7990578e-10
4.7969073e-10
4.7946747e-10
4.7923592e-10
4.7899602e-10
4.7874771e-10
4.7849093e-10
4.7822562e-10
4.7795172e-10
4.776692e-10
4.7737801e-10
4.7707812e-10
4.767695e-10
4.7645214e-10
4.7612604e-10
4.7579121e-10
4.7544765e-10
4.7509538e-10
4.7473443e-10
4.7436482e-10
4.7398657e-10
4.7359993e-10
4.7320501e-10
4.728017e-10
4.7238986e-10
4.7196848e-10
4.7153771e-10
4.7109328e-10
4.7063369e-10
4.7015586e-10
4.6965918e-10
4.6913884e-10
4.6847115e-10
4.6777195e-10
4.6711953e-10
4.6660406e-10
4.6619801e-10
4.660266e-10
4.6616947e-10
4.6823972e-10
4.7713753e-10
5.2591391e-10
7.8557678e-10
2.1510225e-09
8.5734935e-09
3.9551352e-08
1.6622461e-07
5.1792006e-07
1.2610823e-06
2.4700348e-06
3.7219651e-06
5.1194405e-06
6.8693024e-06
9.1251189e-06
1.1871832e-05
1.4926534e-05
1.8173023e-05
2.0738759e-05
2.2869545e-05
2.5119121e-05
2.7472783e-05
2.9948359e-05
3.2514846e-05
3.5075632e-05
3.7782503e-05
4.0602009e-05
4.3443245e-05
4.631069e-05
4.9214252e-05
5.2129323e-05
5.5017618e-05
5.7869258e-05
6.0693511e-05
6.347308e-05
6.619001e-05
6.8835664e-05
7.1442535e-05
7.376461e-05
7.7487942e-05
4.8282687e-10
4.8275496e-10
4.8268382e-10
4.8260795e-10
4.8252596e-10
4.8243743e-10
4.8234218e-10
4.822401e-10
4.8213108e-10
4.8201503e-10
4.8189188e-10
4.8176158e-10
4.8162407e-10
4.8147931e-10
4.8132719e-10
4.8116756e-10
4.8100024e-10
4.8082513e-10
4.8064215e-10
4.8045122e-10
4.8025227e-10
4.8004523e-10
4.7983003e-10
4.7960661e-10
4.7937489e-10
4.7913481e-10
4.7888632e-10
4.7862934e-10
4.7836382e-10
4.7808971e-10
4.7780696e-10
4.7751552e-10
4.7721536e-10
4.7690643e-10
4.7658871e-10
4.7626216e-10
4.7592678e-10
4.7558255e-10
4.7522946e-10
4.7486751e-10
4.7449672e-10
4.7411709e-10
4.7372866e-10
4.7333149e-10
4.7292565e-10
4.7251119e-10
4.7208823e-10
4.7165675e-10
4.7121729e-10
4.7076992e-10
4.7031467e-10
4.6985039e-10
4.6937707e-10
4.6888964e-10
4.6838484e-10
4.6786094e-10
4.6731653e-10
4.6670494e-10
4.6596564e-10
4.6521916e-10
4.6465479e-10
4.6417141e-10
4.6398615e-10
4.6405315e-10
4.6657765e-10
4.7713493e-10
5.4935379e-10
9.6686159e-10
3.3284137e-09
1.6043183e-08
7.6552813e-08
3.1324331e-07
8.7802747e-07
2.0537801e-06
3.4009049e-06
4.8912613e-06
6.7210861e-06
9.0746435e-06
1.2028594e-05
1.5326691e-05
1.8809214e-05
2.2069569e-05
2.4339543e-05
2.671368e-05
2.9177673e-05
3.1785324e-05
3.4503283e-05
3.7232424e-05
4.0124367e-05
4.3152864e-05
4.6220827e-05
4.9337525e-05
5.2504339e-05
5.5689558e-05
5.8860366e-05
6.2009592e-05
6.5117648e-05
6.8209035e-05
7.0970355e-05
7.548118e-05
4.8296268e-10
4.8289085e-10
4.8281979e-10
4.82744e-10
4.8266209e-10
4.8257364e-10
4.8247847e-10
4.8237646e-10
4.8226751e-10
4.8215154e-10
4.8202847e-10
4.8189822e-10
4.8176075e-10
4.8161601e-10
4.8146389e-10
4.8130426e-10
4.8113697e-10
4.809619e-10
4.8077897e-10
4.805881e-10
4.8038921e-10
4.8018224e-10
4.799671e-10
4.7974373e-10
4.7951207e-10
4.7927205e-10
4.790236e-10
4.7876667e-10
4.7850119e-10
4.7822712e-10
4.779444e-10
4.7765299e-10
4.7735284e-10
4.7704393e-10
4.7672622e-10
4.7639968e-10
4.760643e-10
4.7572006e-10
4.7536695e-10
4.7500497e-10
4.746341e-10
4.7425437e-10
4.7386578e-10
4.7346834e-10
4.7306208e-10
4.7264703e-10
4.7222323e-10
4.7179071e-10
4.7134955e-10
4.7089985e-10
4.7044173e-10
4.6997533e-10
4.6950067e-10
4.6901842e-10
4.6852878e-10
4.6803142e-10
4.6752534e-10
4.6700879e-10
4.6647596e-10
4.6592382e-10
4.6534867e-10
4.6473356e-10
4.6394431e-10
4.6315243e-10
4.6255373e-10
4.6207444e-10
4.6185664e-10
4.6240976e-10
4.6551591e-10
4.9183116e-10
6.5439818e-10
1.7350968e-09
8.1197753e-09
4.5991384e-08
2.1275962e-07
6.9012595e-07
1.8382696e-06
3.2753972e-06
4.8900672e-06
6.8719468e-06
9.4012999e-06
1.2650352e-05
1.6249543e-05
1.9999308e-05
2.3795774e-05
2.6237351e-05
2.8748873e-05
3.1345689e-05
3.4097225e-05
3.6972462e-05
3.9875204e-05
4.298126e-05
4.6237529e-05
4.9548712e-05
5.2928731e-05
5.6372292e-05
5.9827716e-05
6.3325621e-05
6.6472622e-05
7.1713559e-05
4.8308957e-10
4.8301781e-10
4.8294682e-10
4.8287112e-10
4.8278929e-10
4.8270091e-10
4.8260582e-10
4.8250389e-10
4.8239502e-10
4.8227913e-10
4.8215613e-10
4.8202595e-10
4.8188853e-10
4.8174382e-10
4.8159173e-10
4.8143212e-10
4.8126487e-10
4.8108986e-10
4.8090699e-10
4.807162e-10
4.805174e-10
4.8031052e-10
4.8009548e-10
4.7987221e-10
4.7964065e-10
4.7940073e-10
4.7915239e-10
4.7889556e-10
4.7863018e-10
4.7835621e-10
4.7807359e-10
4.7778228e-10
4.7748224e-10
4.7717343e-10
4.7685582e-10
4.7652938e-10
4.761941e-10
4.7584996e-10
4.7549695e-10
4.7513506e-10
4.747643e-10
4.7438466e-10
4.7399618e-10
4.7359885e-10
4.7319269e-10
4.7277775e-10
4.7235403e-10
4.7192159e-10
4.7148045e-10
4.7103066e-10
4.7057227e-10
4.7010535e-10
4.6962994e-10
4.6914616e-10
4.6865416e-10
4.6815409e-10
4.6764607e-10
4.6713039e-10
4.6660766e-10
4.6607812e-10
4.6554011e-10
4.6499331e-10
4.6442964e-10
4.6384616e-10
4.6323843e-10
4.6257526e-10
4.6173705e-10
4.6093525e-10
4.6029489e-10
4.599439e-10
4.5994375e-10
4.6123196e-10
4.7251167e-10
5.6503745e-10
1.1965003e-09
5.3816574e-09
3.48169e-08
1.749752e-07
6.2645692e-07
1.8240583e-06
3.3756127e-06
5.1532543e-06
7.3603314e-06
1.0192627e-05
1.3816652e-05
1.776267e-05
2.1800492e-05
2.5854615e-05
2.8547357e-05
3.1214787e-05
3.3974625e-05
3.6903603e-05
3.9952904e-05
4.3072635e-05
4.6415555e-05
4.9904329e-05
5.3467171e-05
5.7188605e-05
6.0580916e-05
6.6397236e-05
4.8320789e-10
4.831362e-10
4.8306528e-10
4.8298965e-10
4.8290789e-10
4.8281959e-10
4.8272457e-10
4.8262271e-10
4.8251391e-10
4.8239809e-10
4.8227515e-10
4.8214503e-10
4.8200766e-10
4.8186298e-10
4.817109e-10
4.8155131e-10
4.8138408e-10
4.812091e-10
4.8102628e-10
4.8083554e-10
4.8063679e-10
4.8042997e-10
4.8021499e-10
4.7999179e-10
4.797603e-10
4.7952045e-10
4.7927218e-10
4.7901542e-10
4.7875012e-10
4.7847622e-10
4.7819367e-10
4.7790244e-10
4.7760247e-10
4.7729373e-10
4.7697619e-10
4.7664982e-10
4.7631462e-10
4.7597055e-10
4.7561761e-10
4.7525579e-10
4.748851e-10
4.7450555e-10
4.7411713e-10
4.7371988e-10
4.7331381e-10
4.7289894e-10
4.7247532e-10
4.7204297e-10
4.7160193e-10
4.7115225e-10
4.7069398e-10
4.7022717e-10
4.6975188e-10
4.6926816e-10
4.6877609e-10
4.6827573e-10
4.6776716e-10
4.6725048e-10
4.6672583e-10
4.6619341e-10
4.6565343e-10
4.6510599e-10
4.6455202e-10
4.6399174e-10
4.6342358e-10
4.6284582e-10
4.6225194e-10
4.6162942e-10
4.61006e-10
4.6018731e-10
4.5926982e-10
4.5859098e-10
4.5804399e-10
4.5786303e-10
4.5855049e-10
4.647496e-10
5.3408599e-10
1.0289746e-09
4.6246795e-09
3.3884605e-08
1.7886254e-07
6.7180607e-07
2.0338991e-06
3.752821e-06
5.7371055e-06
8.2509143e-06
1.1567183e-05
1.5612454e-05
1.9914498e-05
2.4238696e-05
2.8521792e-05
3.133125e-05
3.4159335e-05
3.710308e-05
4.0222852e-05
4.3450692e-05
4.6827278e-05
5.0508823e-05
5.3882559e-05
5.9959322e-05
4.833183e-10
4.8324666e-10
4.8317582e-10
4.8310025e-10
4.8301856e-10
4.8293032e-10
4.8283537e-10
4.8273358e-10
4.8262484e-10
4.8250908e-10
4.823862e-10
4.8225613e-10
4.8211881e-10
4.8197415e-10
4.8182209e-10
4.8166251e-10
4.8149529e-10
4.8132034e-10
4.8113755e-10
4.8094684e-10
4.8074814e-10
4.8054136e-10
4.8032643e-10
4.8010327e-10
4.7987183e-10
4.7963202e-10
4.793838e-10
4.7912708e-10
4.7886183e-10
4.7858797e-10
4.7830547e-10
4.7801428e-10
4.7771436e-10
4.7740566e-10
4.7708817e-10
4.7676185e-10
4.7642668e-10
4.7608265e-10
4.7572975e-10
4.7536798e-10
4.7499733e-10
4.7461781e-10
4.7422944e-10
4.7383223e-10
4.7342619e-10
4.7301137e-10
4.7258778e-10
4.7215547e-10
4.7171447e-10
4.7126483e-10
4.7080661e-10
4.7033985e-10
4.6986461e-10
4.6938096e-10
4.6888896e-10
4.6838868e-10
4.6788019e-10
4.6736357e-10
4.668389e-10
4.6630626e-10
4.6576575e-10
4.6521746e-10
4.6466157e-10
4.640983e-10
4.6352789e-10
4.6295049e-10
4.6236735e-10
4.6177761e-10
4.6118185e-10
4.6057233e-10
4.5993867e-10
4.5928676e-10
4.5857847e-10
4.5764027e-10
4.5685159e-10
4.5620373e-10
4.5594801e-10
4.5643113e-10
4.6131906e-10
5.3013693e-10
1.0516175e-09
5.2083605e-09
4.2622944e-08
2.2819166e-07
8.6608003e-07
2.4924982e-06
4.4400077e-06
6.7563623e-06
9.722217e-06
1.3609977e-05
1.8095463e-05
2.2738088e-05
2.734646e-05
3.1570787e-05
3.4560405e-05
3.7583385e-05
4.0747754e-05
4.4141878e-05
4.72075e-05
5.3119997e-05
4.8342133e-10
4.8334976e-10
4.8327897e-10
4.8320346e-10
4.8312184e-10
4.8303366e-10
4.8293877e-10
4.8283704e-10
4.8272837e-10
4.8261266e-10
4.8248984e-10
4.8235982e-10
4.8222253e-10
4.820779e-10
4.8192585e-10
4.8176628e-10
4.8159908e-10
4.8142414e-10
4.8124137e-10
4.8105069e-10
4.8085201e-10
4.8064526e-10
4.8043036e-10
4.8020724e-10
4.7997583e-10
4.7973605e-10
4.7948786e-10
4.7923118e-10
4.7896595e-10
4.7869213e-10
4.7840966e-10
4.781185e-10
4.778186e-10
4.7750994e-10
4.7719247e-10
4.7686618e-10
4.7653104e-10
4.7618703e-10
4.7583416e-10
4.7547241e-10
4.7510178e-10
4.7472229e-10
4.7433393e-10
4.7393674e-10
4.7353072e-10
4.7311592e-10
4.7269234e-10
4.7226005e-10
4.7181906e-10
4.7136944e-10
4.7091123e-10
4.7044448e-10
4.6996926e-10
4.6948562e-10
4.6899363e-10
4.6849337e-10
4.679849e-10
4.6746831e-10
4.6694367e-10
4.6641108e-10
4.6587061e-10
4.6532237e-10
4.6476643e-10
4.642029e-10
4.6363189e-10
4.6305352e-10
4.6246796e-10
4.6187558e-10
4.6127633e-10
4.6067129e-10
4.6006133e-10
4.5944456e-10
4.5881991e-10
4.5817571e-10
4.5750418e-10
4.5682317e-10
4.5586216e-10
4.5498825e-10
4.5428028e-10
4.5406269e-10
4.5431393e-10
4.6057629e-10
5.5241884e-10
1.2988994e-09
7.9712501e-09
6.896774e-08
3.544402e-07
1.3791495e-06
3.2498505e-06
5.457506e-06
8.2240548e-06
1.188254e-05
1.6407555e-05
2.1351561e-05
2.6303559e-05
3.1198884e-05
3.5142706e-05
3.8345103e-05
4.1259104e-05
4.6693021e-05
4.8351752e-10
4.83446e-10
4.8337527e-10
4.8329982e-10
4.8321825e-10
4.8313013e-10
4.830353e-10
4.8293362e-10
4.8282501e-10
4.8270935e-10
4.8258658e-10
4.8245661e-10
4.8231936e-10
4.8217475e-10
4.8202272e-10
4.8186315e-10
4.8169596e-10
4.8152103e-10
4.8133827e-10
4.811476e-10
4.8094895e-10
4.8074221e-10
4.8052733e-10
4.8030423e-10
4.8007284e-10
4.7983309e-10
4.7958491e-10
4.7932825e-10
4.7906304e-10
4.7878924e-10
4.7850678e-10
4.7821564e-10
4.7791576e-10
4.7760711e-10
4.7728966e-10
4.7696338e-10
4.7662825e-10
4.7628426e-10
4.759314e-10
4.7556966e-10
4.7519905e-10
4.7481956e-10
4.7443121e-10
4.7403402e-10
4.7362801e-10
4.7321321e-10
4.7278964e-10
4.7235735e-10
4.7191637e-10
4.7146674e-10
4.7100853e-10
4.7054178e-10
4.7006655e-10
4.6958291e-10
4.6909091e-10
4.6859064e-10
4.6808217e-10
4.6756557e-10
4.6704093e-10
4.6650833e-10
4.6596786e-10
4.6541961e-10
4.6486369e-10
4.6430018e-10
4.6372919e-10
4.6315083e-10
4.6256519e-10
4.6197239e-10
4.6137253e-10
4.6076579e-10
4.6015247e-10
4.5953284e-10
4.58907e-10
4.5827682e-10
4.5764044e-10
4.5699891e-10
4.5633986e-10
4.5564767e-10
4.5496553e-10
4.5394594e-10
4.5312282e-10
4.5218724e-10
4.5297769e-10
4.4978125e-10
4.6500473e-10
6.2725061e-10
2.0960784e-09
1.8331776e-08
1.4013623e-07
6.3807189e-07
2.2405461e-06
4.450148e-06
7.0634209e-06
1.0461002e-05
1.4953294e-05
2.0078709e-05
2.5376078e-05
3.0715292e-05
3.5387098e-05
4.083723e-05
4.8360734e-10
4.8353587e-10
4.834652e-10
4.833898e-10
4.8330829e-10
4.8322023e-10
4.8312544e-10
4.8302382e-10
4.8291525e-10
4.8279965e-10
4.8267693e-10
4.82547e-10
4.8240978e-10
4.822652e-10
4.8211317e-10
4.8195361e-10
4.8178642e-10
4.816115e-10
4.8142875e-10
4.8123809e-10
4.8103944e-10
4.8083272e-10
4.8061785e-10
4.8039475e-10
4.8016337e-10
4.7992363e-10
4.7967546e-10
4.794188e-10
4.791536e-10
4.7887981e-10
4.7859736e-10
4.7830622e-10
4.7800635e-10
4.776977e-10
4.7738025e-10
4.7705398e-10
4.7671885e-10
4.7637487e-10
4.76022e-10
4.7566026e-10
4.7528965e-10
4.7491016e-10
4.7452181e-10
4.7412461e-10
4.737186e-10
4.7330379e-10
4.7288021e-10
4.724479e-10
4.7200691e-10
4.7155727e-10
4.7109905e-10
4.7063228e-10
4.7015704e-10
4.6967337e-10
4.6918136e-10
4.6868107e-10
4.6817258e-10
4.6765596e-10
4.6713129e-10
4.6659866e-10
4.6605817e-10
4.655099e-10
4.6495394e-10
4.6439041e-10
4.638194e-10
4.6324102e-10
4.6265538e-10
4.6206258e-10
4.6146274e-10
4.6085597e-10
4.6024238e-10
4.596221e-10
4.5899525e-10
4.583621e-10
4.5772304e-10
4.5707787e-10
4.5642892e-10
4.5577424e-10
4.5511674e-10
4.5443848e-10
4.537316e-10
4.5303333e-10
4.518962e-10
4.5103174e-10
4.5026558e-10
4.5065595e-10
4.5021783e-10
4.8735633e-10
8.8129764e-10
4.7876324e-09
5.1136305e-08
3.2423698e-07
1.3682614e-06
3.4597783e-06
6.0343169e-06
9.3048747e-06
1.3712903e-05
1.9115344e-05
2.4195619e-05
3.2950776e-05
4.8369124e-10
4.8361982e-10
4.835492e-10
4.8347385e-10
4.8339239e-10
4.8330438e-10
4.8320964e-10
4.8310807e-10
4.8299955e-10
4.8288399e-10
4.8276131e-10
4.8263142e-10
4.8249423e-10
4.8234967e-10
4.8219766e-10
4.820381e-10
4.8187091e-10
4.8169599e-10
4.8151324e-10
4.8132259e-10
4.8112394e-10
4.8091722e-10
4.8070235e-10
4.8047926e-10
4.8024787e-10
4.8000813e-10
4.7975996e-10
4.7950331e-10
4.7923811e-10
4.7896431e-10
4.7868186e-10
4.7839071e-10
4.7809083e-10
4.7778218e-10
4.7746473e-10
4.7713845e-10
4.7680332e-10
4.7645932e-10
4.7610645e-10
4.757447e-10
4.7537407e-10
4.7499457e-10
4.7460621e-10
4.74209e-10
4.7380297e-10
4.7338814e-10
4.7296454e-10
4.7253222e-10
4.720912e-10
4.7164154e-10
4.7118329e-10
4.707165e-10
4.7024123e-10
4.6975754e-10
4.6926549e-10
4.6876517e-10
4.6825664e-10
4.6773999e-10
4.6721528e-10
4.6668262e-10
4.6614208e-10
4.6559377e-10
4.6503778e-10
4.6447421e-10
4.6390315e-10
4.6332473e-10
4.6273904e-10
4.6214619e-10
4.6154631e-10
4.6093951e-10
4.6032591e-10
4.5970561e-10
4.5907876e-10
4.5844544e-10
4.5780582e-10
4.5715999e-10
4.5650818e-10
4.5585092e-10
4.5518773e-10
4.5452192e-10
4.5384884e-10
4.5318046e-10
4.5246702e-10
4.5177284e-10
4.5099077e-10
4.4988512e-10
4.4899764e-10
4.4871932e-10
4.4851137e-10
4.5439237e-10
5.7174362e-10
1.8708708e-09
1.7844669e-08
1.5748825e-07
7.8356779e-07
2.7122961e-06
5.2679532e-06
8.6985553e-06
1.2212408e-05
2.1127271e-05
4.8376932e-10
4.8369795e-10
4.8362737e-10
4.8355207e-10
4.8347065e-10
4.8338269e-10
4.83288e-10
4.8318647e-10
4.83078e-10
4.8296249e-10