/*--------------------------------*- C++ -*----------------------------------*\
  =========                 |
  \\      /  F ield         | OpenFOAM: The Open Source CFD Toolbox
   \\    /   O peration     | Website:  https://openfoam.org
    \\  /    A nd           | Version:  12
     \\/     M anipulation  |
\*---------------------------------------------------------------------------*/
FoamFile
{
    format      ascii;
    class       volScalarField;
    location    "1600";
    object      omega;
}
// * * * * * * * * * * * * * * * * * * * * * * * * * * * * * * * * * * * * * //

dimensions      [0 0 -1 0 0 0 0];

internalField   nonuniform List<scalar> 
13056
(
414.10519
169.73048
96.089535
70.413782
59.927131
54.761429
51.741942
49.751552
48.341109
47.296707
46.499821
45.8777
45.382778
44.982613
44.654342
44.381473
44.151607
43.9561
43.785376
43.643641
43.487953
43.445541
43.024469
105.99333
15925793
15925793
15925793
15925793
15925793
15925793
15925793
15925793
15925793
15925793
15925793
15925793
15925793
15925793
15925793
15925793
15925793
15925793
15925793
15925793
15925793
15925793
15925793
15925793
15925793
15925793
15925793
15925793
15925793
15925793
15925793
15925793
15925793
15925793
15925793
15925793
15925793
15925793
15925793
15925793
15925793
15925793
15925793
15925793
15925793
15925793
15925793
15925793
15925793
15925793
15925793
15925793
15925793
15925793
15925793
15925793
15925793
15925793
15925793
15925793
15925793
15925793
15925793
15925793
15925793
15925793
15925793
15925793
15925793
15925793
15925793
15925793
15925793
15925793
15925793
15925793
15925793
15925793
15925793
15925793
15925793
15925793
15925793
15925793
15925793
15925793
15925793
15925793
15925793
15925793
15925793
15925793
15925793
15925793
15925793
15925793
15925793
15925793
15925793
15925793
15925793
15925793
15925793
15925793
15925793
15925793
15925793
15925793
15925793
15925793
15925793
15925793
414.10515
169.73091
96.089954
70.413545
59.925877
54.759231
51.739012
49.748071
48.337205
47.29247
46.495316
45.872977
45.377875
44.977559
44.649161
44.376183
44.146223
43.950633
43.779837
43.638036
43.4823
43.44001
43.017887
102.7468
2727967.4
2723730.5
2723622.7
2723622.6
2723615
2723603.4
2723592.3
2723582.8
2723574.8
2723567.9
2723561.9
2723556.6
2723551.8
2723547.4
2723543.3
2723539.6
2723536.1
2723532.9
2723530
2723527.2
2723524.6
2723522.1
2723519.8
2723517.6
2723515.6
2723513.6
2723511.7
2723509.9
2723508.2
2723506.5
2723505
2723503.4
2723502
2723500.6
2723499.2
2723497.9
2723496.6
2723495.3
2723494.1
2723492.9
2723491.8
2723490.7
2723489.6
2723488.5
2723487.5
2723486.4
2723485.4
2723484.4
2723483.5
2723482.5
2723481.6
2723480.7
2723479.8
2723478.9
2723478
2723477.1
2723476.3
2723475.4
2723474.6
2723473.8
2723473
2723472.2
2723471.4
2723470.6
2723469.8
2723469
2723468.2
2723467.4
2723466.7
2723465.9
2723465.2
2723464.4
2723463.6
2723462.9
2723462.1
2723461.4
2723460.6
2723459.9
2723459.1
2723458.3
2723457.6
2723456.8
2723456.1
2723455.3
2723454.5
2723453.7
2723452.9
2723452.1
2723451.3
2723450.5
2723449.8
2723449.1
2723448.4
2723447.7
2723447.1
2723446.5
2723445.9
2723445.4
2723444.9
2723444.4
2723443.9
2723443.4
2723443
2723442.5
2723442.1
2723441.7
2723441.3
2723440.9
2723440.6
2723440.2
2723439.9
2723439.3
414.10498
169.73249
96.091339
70.412457
59.921234
54.751448
51.728855
49.736149
48.323932
47.278136
46.480132
45.857102
45.361428
44.960635
44.631834
44.358511
44.128253
43.932401
43.761375
43.619361
43.463474
43.421333
42.997135
99.107476
912022.83
910424.6
910282.53
910281.45
910254.32
910218.99
910186.51
910159.04
910135.73
910115.6
910097.96
910082.32
910068.08
910055.05
910043.07
910032.04
910021.87
910012.44
910003.65
909995.43
909987.71
909980.44
909973.56
909967.06
909960.88
909955
909949.4
909944.05
909938.92
909934
909929.28
909924.72
909920.34
909916.11
909912.01
909908.05
909904.2
909900.47
909896.84
909893.31
909889.87
909886.5
909883.21
909879.99
909876.85
909873.77
909870.76
909867.8
909864.91
909862.06
909859.26
909856.5
909853.79
909851.12
909848.48
909845.88
909843.31
909840.78
909838.27
909835.79
909833.33
909830.9
909828.48
909826.09
909823.71
909821.36
909819.01
909816.68
909814.36
909812.06
909809.76
909807.47
909805.18
909802.9
909800.62
909798.34
909796.06
909793.78
909791.5
909789.2
909786.91
909784.6
909782.28
909779.95
909777.61
909775.25
909772.86
909770.45
909768.02
909765.62
909763.31
909761.12
909759.04
909757.05
909755.16
909753.36
909751.63
909749.98
909748.39
909746.87
909745.41
909744
909742.65
909741.34
909740.07
909738.85
909737.66
909736.5
909735.39
909734.24
909733.23
909731.58
414.10469
169.73528
96.09373
70.410506
59.913101
54.737887
51.711206
49.715464
48.300928
47.25331
46.453845
45.829626
45.332972
44.93136
44.601867
44.327951
44.097181
43.90088
43.729459
43.58708
43.430932
43.388984
42.961608
95.42128
424449.09
421869.97
421639.63
421632.2
421573.98
421500.68
421433.84
421377.36
421329.39
421287.91
421251.54
421219.27
421189.87
421162.94
421138.17
421115.37
421094.32
421074.79
421056.58
421039.55
421023.55
421008.46
420994.19
420980.68
420967.86
420955.64
420944
420932.88
420922.21
420911.98
420902.16
420892.68
420883.56
420874.75
420866.22
420857.95
420849.94
420842.17
420834.6
420827.24
420820.05
420813.02
420806.16
420799.45
420792.89
420786.47
420780.18
420774
420767.95
420762
420756.14
420750.39
420744.71
420739.13
420733.61
420728.18
420722.81
420717.5
420712.25
420707.05
420701.91
420696.81
420691.76
420686.75
420681.77
420676.83
420671.92
420667.04
420662.18
420657.34
420652.52
420647.71
420642.92
420638.14
420633.35
420628.56
420623.78
420618.99
420614.2
420609.38
420604.56
420599.72
420594.85
420589.95
420585.02
420580.05
420575.04
420569.98
420564.87
420559.8
420554.95
420550.34
420545.95
420541.77
420537.79
420534
420530.36
420526.88
420523.54
420520.34
420517.26
420514.29
420511.43
420508.67
420506.01
420503.42
420500.92
420498.48
420496.13
420493.7
420491.57
420488.1
414.10427
169.73932
96.097189
70.407673
59.901317
54.718246
51.685651
49.685517
48.267625
47.217369
46.415792
45.789852
45.291779
44.888981
44.558486
44.283713
44.052201
43.85525
43.683257
43.54035
43.383805
43.342163
42.910343
91.75051
238256.3
234343.4
233975.11
233949.76
233848.85
233725.05
233612.66
233517.62
233436.79
233366.86
233305.48
233250.97
233201.28
233155.74
233113.84
233075.22
233039.55
233006.44
232975.55
232946.65
232919.46
232893.82
232869.57
232846.59
232824.76
232803.96
232784.14
232765.19
232747
232729.56
232712.8
232696.63
232681.05
232666.01
232651.43
232637.31
232623.62
232610.33
232597.39
232584.79
232572.48
232560.46
232548.7
232537.21
232525.98
232514.98
232504.19
232493.61
232483.22
232473.01
232462.97
232453.09
232443.35
232433.76
232424.29
232414.95
232405.72
232396.6
232387.57
232378.64
232369.8
232361.03
232352.34
232343.71
232335.15
232326.64
232318.18
232309.77
232301.4
232293.06
232284.75
232276.46
232268.19
232259.94
232251.69
232243.43
232235.17
232226.9
232218.62
232210.31
232201.97
232193.61
232185.19
232176.72
232168.19
232159.6
232150.92
232142.16
232133.31
232124.54
232116.13
232108.16
232100.55
232093.31
232086.41
232079.82
232073.52
232067.48
232061.69
232056.13
232050.78
232045.63
232040.66
232035.87
232031.25
232026.76
232022.42
232018.17
232014.08
232009.87
232006.16
232000.13
414.10371
169.74467
96.1018
70.403939
59.885676
54.692131
51.651643
49.645643
48.223266
47.169487
46.365085
45.736846
45.236876
44.832493
44.500657
44.224738
43.992234
43.794413
43.621654
43.478042
43.320944
43.279757
42.84206
88.101697
151051.03
146085.19
145516.12
145452.22
145298.86
145116.27
144951
144811.08
144691.9
144588.67
144497.97
144417.35
144343.8
144276.35
144214.22
144156.9
144103.93
144054.69
144008.73
143965.69
143925.18
143886.94
143850.75
143816.44
143783.83
143752.73
143723.08
143694.71
143667.48
143641.35
143616.22
143591.97
143568.58
143546
143524.11
143502.89
143482.31
143462.32
143442.84
143423.88
143405.36
143387.24
143369.53
143352.21
143335.27
143318.68
143302.4
143286.43
143270.75
143255.33
143240.16
143225.22
143210.5
143195.99
143181.67
143167.52
143153.55
143139.73
143126.06
143112.53
143099.12
143085.82
143072.63
143059.54
143046.54
143033.62
143020.77
143007.99
142995.27
142982.6
142969.96
142957.35
142944.77
142932.21
142919.63
142907.05
142894.47
142881.87
142869.24
142856.56
142843.85
142831.08
142818.22
142805.28
142792.26
142779.13
142765.86
142752.47
142738.93
142725.5
142712.63
142700.41
142688.76
142677.66
142667.08
142656.99
142647.32
142638.05
142629.17
142620.64
142612.43
142604.52
142596.89
142589.53
142582.42
142575.53
142568.85
142562.32
142556.04
142549.56
142543.86
142534.58
414.103
169.75142
96.107667
70.399289
59.865935
54.659069
51.608519
49.595032
48.166929
47.10865
46.300639
45.669461
45.167065
44.760655
44.427106
44.14972
43.915948
43.717014
43.543276
43.398761
43.240937
43.200342
42.755211
84.469718
104636.82
99032.556
98182.466
98047.582
97835.263
97592.332
97373.183
97187.287
97028.668
96891.085
96770.057
96662.317
96563.978
96473.684
96390.41
96313.494
96242.312
96176.083
96114.189
96056.168
96001.501
95949.857
95900.933
95854.501
95810.338
95768.193
95727.967
95689.455
95652.459
95616.933
95582.744
95549.738
95517.88
95487.093
95457.24
95428.274
95400.175
95372.856
95346.231
95320.286
95294.94
95270.141
95245.879
95222.145
95198.923
95176.162
95153.821
95131.889
95110.343
95089.152
95068.29
95047.739
95027.477
95007.493
94987.763
94968.272
94949.005
94929.944
94911.072
94892.384
94873.866
94855.49
94837.251
94819.145
94801.159
94783.276
94765.48
94747.765
94730.133
94712.561
94695.026
94677.522
94660.056
94642.608
94625.134
94607.641
94590.14
94572.61
94555.022
94537.366
94519.649
94501.844
94483.915
94465.863
94447.682
94429.335
94410.799
94392.077
94373.137
94354.346
94336.323
94319.215
94302.884
94287.327
94272.498
94258.332
94244.764
94231.755
94219.28
94207.299
94195.764
94184.642
94173.916
94163.565
94153.562
94143.865
94134.462
94125.264
94116.413
94107.296
94099.254
94086.179
414.10213
169.75964
96.11491
70.393715
59.841834
54.618529
51.555523
49.532753
48.097546
47.03368
46.221187
45.586359
45.080949
44.672021
44.336341
44.057132
43.821782
43.621465
43.44651
43.300871
43.142125
43.10224
42.64799
80.849758
77658.436
71891.28
70655.189
70403.515
70130.126
69834.106
69568.246
69342.218
69148.991
68981.15
68833.287
68701.448
68581.051
68470.355
68368.1
68273.496
68185.807
68104.1
68027.635
67955.858
67888.144
67824.095
67763.347
67705.626
67650.665
67598.158
67547.989
67499.91
67453.68
67409.244
67366.44
67325.082
67285.126
67246.48
67208.978
67172.56
67137.203
67102.801
67069.249
67036.529
67004.548
66973.245
66942.598
66912.598
66883.223
66854.413
66826.117
66798.318
66770.993
66744.1
66717.607
66691.493
66665.732
66640.307
66615.189
66590.362
66565.806
66541.496
66517.414
66493.552
66469.893
66446.403
66423.074
66399.901
66376.869
66353.955
66331.139
66308.415
66285.783
66263.216
66240.682
66218.177
66195.706
66173.245
66150.739
66128.195
66105.626
66083.007
66060.3
66037.49
66014.589
65991.559
65968.356
65944.978
65921.417
65897.627
65873.577
65849.268
65824.66
65800.229
65776.78
65754.511
65733.245
65712.975
65693.644
65675.166
65657.46
65640.476
65624.181
65608.523
65593.441
65578.894
65564.859
65551.31
65538.211
65525.507
65513.185
65501.127
65489.519
65477.561
65467.007
65449.842
414.1011
169.76942
96.123664
70.387231
59.813108
54.569946
51.49183
49.45778
48.013932
46.943266
46.125317
45.486042
44.97696
44.564961
44.226683
43.945251
43.707977
43.505972
43.329532
43.182525
43.022634
42.983524
42.518375
77.241041
60842.145
55389.53
53643.632
53218.4
52885.781
52552.155
52254.724
52001.336
51784.394
51595.755
51429.348
51280.739
51145.04
51020.103
50904.481
50797.307
50697.784
50604.891
50517.814
50435.943
50358.59
50285.314
50215.714
50149.487
50086.342
50025.937
49968.145
49912.693
49859.311
49807.937
49758.395
49710.474
49664.126
49619.25
49575.657
49533.282
49492.099
49451.991
49412.836
49374.616
49337.24
49300.637
49264.772
49229.631
49195.193
49161.387
49128.158
49095.485
49063.341
49031.68
49000.465
48969.671
48939.269
48909.239
48879.551
48850.181
48821.11
48792.309
48763.755
48735.442
48707.347
48679.431
48651.687
48624.106
48596.673
48569.36
48542.143
48515.016
48487.978
48460.997
48434.037
48407.089
48380.163
48353.229
48326.219
48299.142
48272.016
48244.808
48217.472
48189.992
48162.379
48134.59
48106.567
48078.311
48049.81
48021.008
47991.865
47962.385
47932.514
47902.833
47874.32
47847.22
47821.331
47796.637
47773.07
47750.527
47728.911
47708.163
47688.244
47669.092
47650.635
47632.822
47615.626
47599.018
47582.952
47567.364
47552.237
47537.427
47523.164
47508.464
47495.484
47474.36
414.09988
169.78083
96.134079
70.379873
59.779512
54.512743
51.41658
49.369023
47.914816
46.835994
46.011496
45.366881
44.853387
44.437698
44.096298
43.812192
43.572605
43.36857
43.190342
43.04169
42.880401
42.842034
42.36419
73.647682
49644.968
44927.191
42555.324
41897.703
41508.869
41156.602
40846.651
40582.401
40356.108
40159.363
39985.723
39830.5
39688.986
39558.58
39437.696
39325.438
39221
39123.354
39031.669
38945.323
38863.612
38786.087
38712.335
38642.052
38574.939
38510.646
38449.046
38389.859
38332.806
38277.826
38224.738
38173.325
38123.535
38075.268
38028.33
37982.647
37938.198
37894.861
37852.509
37811.119
37770.631
37730.961
37692.053
37653.89
37616.451
37579.664
37543.469
37507.842
37472.758
37438.168
37404.033
37370.326
37337.015
37304.081
37271.492
37239.222
37207.249
37175.544
37144.083
37112.858
37081.844
37051
37020.318
36989.789
36959.395
36929.106
36898.896
36868.759
36838.692
36808.662
36778.626
36748.577
36718.524
36688.433
36658.231
36627.924
36597.533
36567.021
36536.337
36505.46
36474.403
36443.116
36411.536
36379.659
36347.473
36314.913
36281.932
36248.533
36214.655
36180.953
36148.543
36117.711
36088.246
36060.115
36033.242
36007.514
35982.823
35959.105
35936.315
35914.388
35893.24
35872.815
35853.085
35834.016
35815.558
35797.637
35780.237
35763.19
35746.764
35729.823
35714.856
35690.481
414.09848
169.79391
96.146308
70.371714
59.740839
54.446368
51.328908
49.265364
47.798881
46.710385
45.878113
45.227156
44.70842
44.288344
43.943231
43.655945
43.413604
43.207153
43.026799
42.876189
42.713217
42.675484
42.183078
70.078079
41654.9
37991.446
34930.899
33992.782
33548.034
33192.31
32886.16
32625.669
32403.047
32209.937
32039.723
31887.621
31749.56
31622.377
31504.378
31394.661
31292.447
31196.762
31106.805
31021.973
30941.593
30865.23
30792.487
30723.072
30656.7
30593.036
30531.953
30473.193
30416.482
30361.759
30308.858
30257.564
30207.828
30159.557
30112.564
30066.772
30022.165
29978.628
29936.036
29894.36
29853.596
29813.653
29774.439
29735.932
29698.117
29660.923
29624.289
29588.192
29552.607
29517.49
29482.8
29448.509
29414.585
29381.013
29347.76
29314.798
29282.106
29249.657
29217.425
29185.404
29153.566
29121.871
29090.311
29058.879
29027.552
28996.301
28965.103
28933.947
28902.832
28871.722
28840.576
28809.384
28778.156
28746.854
28715.404
28683.813
28652.098
28620.224
28588.134
28555.808
28523.255
28490.425
28457.249
28423.722
28389.831
28355.503
28320.69
28285.39
28249.538
28213.828
28179.442
28146.697
28115.4
28085.487
28056.882
28029.467
28003.13
27977.806
27953.452
27929.998
27907.358
27885.474
27864.317
27843.852
27824.028
27804.767
27786.051
27767.702
27750.01
27731.745
27715.603
27689.285
414.09688
169.8087
96.160514
70.362871
59.696949
54.370329
51.227985
49.145701
47.664803
46.564937
45.723521
45.065099
44.540188
44.114943
43.765451
43.474415
43.228827
43.019525
42.836661
42.683742
42.518762
42.481533
41.972538
66.543477
35520.047
33133.676
29415.868
28168.076
27662.66
27309.991
27016.417
26768.084
26556.869
26374.576
26214.486
26071.773
25943.34
25825.281
25715.803
25613.997
25519.114
25430.263
25346.696
25267.843
25193.087
25122.017
25054.267
24989.563
24927.644
24868.201
24811.114
24756.152
24703.063
24651.785
24602.171
24554.023
24507.292
24461.897
24417.667
24374.526
24332.461
24291.373
24251.141
24211.733
24173.23
24135.527
24098.484
24062.074
24026.286
23991.058
23956.328
23922.074
23888.277
23854.896
23821.891
23789.234
23756.898
23724.869
23693.117
23661.613
23630.338
23599.267
23568.377
23537.66
23507.089
23476.627
23446.268
23416.003
23385.81
23355.662
23325.536
23295.422
23265.318
23235.189
23204.995
23174.727
23144.393
23113.956
23083.344
23052.564
23021.631
22990.508
22959.14
22927.508
22895.619
22863.42
22830.845
22797.887
22764.531
22730.704
22696.356
22661.482
22626.018
22590.648
22556.544
22524.037
22492.983
22463.269
22434.821
22407.528
22381.281
22356.019
22331.7
22308.257
22285.608
22263.695
22242.492
22221.966
22202.066
22182.715
22163.897
22145.433
22127.62
22109.204
22092.929
22066.354
414.09509
169.82519
96.176854
70.353518
59.647797
54.284231
51.113071
49.008997
47.511307
46.39818
45.54609
44.878946
44.346816
43.915523
43.560906
43.265479
43.016087
42.803445
42.61764
42.462017
42.294665
42.257766
41.730081
63.068562
30468.591
29482.454
25246.426
23699.342
23124.817
22773.055
22492.973
22258.453
22060.451
21890.859
21742.83
21611.459
21494.863
21388.133
21289.373
21197.653
21112.239
21032.319
20957.201
20886.349
20819.2
20755.375
20694.535
20636.428
20580.812
20527.41
20476.107
20426.703
20378.97
20332.844
20288.2
20244.86
20202.771
20161.869
20122.003
20083.096
20045.137
20008.046
19971.71
19936.093
19901.386
19867.467
19834.129
19801.339
19769.09
19737.332
19706.005
19675.084
19644.557
19614.391
19584.548
19554.997
19525.716
19496.698
19467.913
19439.332
19410.937
19382.711
19354.632
19326.689
19298.858
19271.107
19243.432
19215.823
19188.257
19160.711
19133.165
19105.611
19078.043
19050.43
19022.736
18994.954
18967.087
18939.102
18910.933
18882.586
18854.074
18825.359
18796.394
18767.158
18737.657
18707.84
18677.646
18647.067
18616.085
18584.634
18552.663
18520.168
18487.084
18454.05
18422.163
18391.75
18362.744
18334.964
18308.342
18282.774
18258.164
18234.457
18211.613
18189.574
18168.263
18147.628
18127.647
18108.288
18089.505
18071.227
18053.44
18035.972
18019.112
18001.653
17986.231
17961.004
414.09308
169.8433
96.195479
70.34389
59.593463
54.187828
50.983565
48.854341
47.337226
46.208739
45.344271
44.667003
44.126485
43.688162
43.327585
43.027047
42.773226
42.556696
42.367464
42.208693
42.038564
42.001753
41.453348
59.688876
26067.293
26496.236
21967.818
20167.045
19519.141
19164.288
18896.589
18675.788
18491.099
18334.386
18198.683
18078.999
17973.51
17877.505
17789.002
17707.026
17630.837
17559.68
17492.91
17430.016
17370.484
17313.958
17260.122
17208.737
17159.584
17112.41
17067.101
17023.486
16981.361
16940.658
16901.269
16863.039
16825.909
16789.828
16754.666
16720.346
16686.857
16654.135
16622.079
16590.645
16560.168
16530.491
16501.326
16472.631
16444.405
16416.606
16389.179
16362.097
16335.354
16308.922
16282.767
16256.858
16231.176
16205.718
16180.459
16155.368
16130.43
16105.631
16080.956
16056.389
16031.909
16007.489
15983.127
15958.815
15934.527
15910.245
15885.953
15861.644
15837.309
15812.921
15788.45
15763.89
15739.242
15714.473
15689.53
15664.418
15639.143
15613.673
15587.965
15562.002
15535.785
15509.269
15482.401
15455.171
15427.563
15399.514
15370.981
15341.955
15312.38
15282.825
15254.271
15227.037
15201.157
15176.356
15152.569
15129.708
15107.689
15086.463
15065.996
15046.236
15027.118
15008.596
14990.649
14973.249
14956.358
14939.91
14923.897
14908.158
14892.964
14877.199
14863.289
14840.491
414.09089
169.86293
96.216523
70.334296
59.534186
54.081071
50.83907
48.68102
47.141579
45.995409
45.116672
44.427722
43.877517
43.431067
43.063595
42.757142
42.498194
42.277159
42.083958
41.921537
41.748185
41.711107
41.140276
56.444639
22087.378
23834.919
19302.208
17310.912
16590.67
16228.743
15971.815
15764.205
15592.434
15448.179
15324.407
15216.061
15120.493
15034.102
14954.87
14881.764
14814.019
14750.918
14691.856
14636.34
14583.894
14534.188
14486.92
14441.863
14398.811
14357.536
14317.924
14279.826
14243.062
14207.558
14173.223
14139.919
14107.586
14076.179
14045.591
14015.744
13986.624
13958.185
13930.335
13903.024
13876.575
13850.857
13825.596
13800.742
13776.297
13752.229
13728.486
13705.04
13681.887
13659.008
13636.37
13613.942
13591.709
13569.672
13547.807
13526.086
13504.492
13483.018
13461.651
13440.375
13419.17
13398.013
13376.906
13355.839
13334.788
13313.736
13292.674
13271.593
13250.484
13229.324
13208.087
13186.77
13165.369
13143.857
13122.19
13100.371
13078.404
13056.259
13033.901
13011.315
12988.498
12965.413
12942.013
12918.289
12894.224
12869.764
12844.871
12819.536
12793.708
12767.885
12742.924
12719.136
12696.678
12675.15
12654.492
12634.63
12615.491
12597.033
12579.229
12562.032
12545.387
12529.254
12513.616
12498.45
12483.72
12469.371
12455.397
12441.653
12428.386
12414.592
12402.442
12382.482
414.0885
169.88388
96.240091
70.325122
59.4704
53.964175
50.679473
48.488598
46.923655
45.757245
44.862155
44.159797
43.598463
43.142667
42.76726
42.453997
42.18914
41.962912
41.765136
41.598505
41.421446
41.383568
40.789313
53.377101
18422.662
21282.924
17078.127
14971.529
14182.453
13807.957
13558.253
13361.668
13201.02
13067.541
12954.131
12855.675
12768.951
12691.119
12620.183
12555.056
12494.93
12439.113
12387.031
12338.21
12292.209
12248.718
12207.448
12168.178
12130.716
12094.854
12060.479
12027.46
11995.637
11964.935
11935.272
11906.53
11878.647
11851.583
11825.248
11799.568
11774.525
11750.087
11726.171
11702.726
11679.943
11657.76
11635.99
11614.577
11593.523
11572.806
11552.377
11532.206
11512.293
11492.624
11473.168
11453.896
11434.793
11415.864
11397.089
11378.439
11359.899
11341.465
11323.128
11304.871
11286.673
11268.519
11250.411
11232.339
11214.28
11196.221
11178.153
11160.072
11141.966
11123.813
11105.597
11087.313
11068.956
11050.501
11031.916
11013.204
10994.361
10975.364
10956.183
10936.806
10917.229
10897.418
10877.335
10856.972
10836.313
10815.311
10793.934
10772.173
10749.983
10727.794
10706.341
10685.896
10666.626
10648.154
10630.425
10613.375
10596.942
10581.091
10565.797
10551.022
10536.718
10522.851
10509.408
10496.366
10483.696
10471.352
10459.327
10447.495
10436.077
10424.177
10413.72
10396.497
414.08595
169.90588
96.266249
70.316836
59.402764
53.837675
50.505024
48.277017
46.683116
45.493674
44.579941
43.862277
43.288221
42.821731
42.437237
42.116168
41.844536
41.61235
41.409321
41.237853
41.056575
41.01709
40.399715
50.525182
15034.152
18731.843
15178.549
13043.409
12192.374
11799.757
11552.894
11364.465
11212.646
11087.847
10982.856
10892.489
10813.142
10742.458
10678.501
10620.122
10566.461
10516.829
10470.685
10427.566
10387.065
10348.888
10312.751
10278.44
10245.772
10214.555
10184.679
10156.025
10128.453
10101.885
10076.248
10051.44
10027.397
10004.083
9981.4239
9959.3489
9937.8367
9916.8626
9896.3582
9876.27
9856.7011
9837.6326
9818.9388
9800.5621
9782.5025
9764.745
9747.2456
9729.9753
9712.9318
9696.1077
9679.4757
9663.0064
9646.6865
9630.5221
9614.4982
9598.5853
9582.7699
9567.0514
9551.4216
9535.8644
9520.3612
9504.8989
9489.4812
9474.0987
9458.7299
9443.3631
9427.9941
9412.617
9397.2212
9381.7884
9366.3043
9350.7671
9335.1703
9319.4917
9303.7107
9287.826
9271.8337
9255.7111
9239.4348
9222.9951
9206.3871
9189.5818
9172.5478
9155.2789
9137.759
9119.9495
9101.8241
9083.3725
9064.5586
9045.7466
9027.5576
9010.209
8993.7877
8978.0493
8962.9433
8948.4146
8934.4117
8920.9049
8907.8719
8895.2793
8883.0877
8871.269
8859.8102
8848.6922
8837.8906
8827.3647
8817.1118
8807.0186
8797.2835
8787.1132
8778.2016
8763.4787
414.08326
169.92854
96.295005
70.309976
59.332188
53.702489
50.316424
48.046698
46.420115
45.204612
44.269741
43.534694
42.94617
42.467503
42.072651
41.742676
41.463309
41.224317
41.015287
40.838278
40.652254
40.609956
39.971933
47.92132
11923.177
16171.515
13516.483
11447.984
10546.708
10131.712
9883.2333
9699.9576
9554.6695
9436.5108
9338.0561
9254.0346
9180.5805
9115.6459
9057.364
9004.5084
8956.1552
8911.6086
8870.3473
8831.9239
8795.9631
8762.1826
8730.2941
8700.0846
8671.3836
8644.0117
8617.86
8592.8201
8568.7674
8545.6237
8523.3214
8501.7717
8480.9119
8460.7056
8441.0935
8422.0088
8403.4255
8385.3255
8367.6518
8350.3513
8333.4722
8317.0185
8300.9065
8285.0798
8269.5353
8254.2636
8239.2267
8224.395
8209.7654
8195.3342
8181.078
8166.9689
8152.9938
8139.1589
8125.4532
8111.8492
8098.3334
8084.9064
8071.5625
8058.2866
8045.0614
8031.8759
8018.7342
8005.6285
7992.5388
7979.4545
7966.3734
7953.2907
7940.196
7927.0735
7913.912
7900.7108
7887.4628
7874.1485
7860.7603
7847.2915
7833.7353
7820.0719
7806.2826
7792.3594
7778.297
7764.0711
7749.6558
7735.0459
7720.2269
7705.1665
7689.8429
7674.2467
7658.3477
7642.4547
7627.0906
7612.4287
7598.5076
7585.1699
7572.3696
7560.0599
7548.1973
7536.7566
7525.7178
7515.0527
7504.7282
7494.7204
7485.0181
7475.6045
7466.4589
7457.5469
7448.867
7440.3199
7432.081
7423.4567
7415.9224
7403.427
414.08047
169.95142
96.326293
70.305142
59.259856
53.559983
50.114921
47.798659
46.135427
44.890605
43.931901
43.177216
42.572322
42.079858
41.673256
41.333169
41.045012
40.798281
40.582423
40.399091
40.207798
40.160902
39.508143
45.587682
9119.0277
13653.844
12024.581
10120.07
9186.7804
8747.5756
8493.4317
8312.4335
8171.5815
8058.2661
7964.7089
7885.5207
7816.6778
7756.3087
7702.6148
7654.2534
7610.2304
7569.8344
7532.5595
7497.9689
7465.7309
7435.5601
7407.156
7380.3078
7354.8544
7330.6277
7307.5215
7285.4338
7264.2533
7243.9033
7224.3197
7205.4249
7187.1581
7169.4825
7152.3489
7135.6966
7119.4959
7103.7317
7088.3575
7073.3229
7058.6413
7044.3268
7030.3248
7016.5826
7003.0934
6989.8518
6976.8256
6963.9858
6951.3278
6938.8498
6926.5328
6914.3507
6902.2903
6890.357
6878.5431
6866.8242
6855.1864
6843.6303
6832.1524
6820.7391
6809.3746
6798.0491
6786.7663
6775.5201
6764.2927
6753.0742
6741.8631
6730.6557
6719.4426
6708.21
6696.9485
6685.6578
6674.3316
6662.9526
6651.529
6640.0451
6628.4911
6616.8498
6605.106
6593.2532
6581.286
6569.1841
6556.9261
6544.5074
6531.9152
6519.1225
6506.1113
6492.8727
6479.3822
6465.9019
6452.8744
6440.4394
6428.6073
6417.2758
6406.4036
6395.9504
6385.8793
6376.1686
6366.8006
6357.7512
6348.9925
6340.5041
6332.2761
6324.2938
6316.5396
6308.9844
6301.6274
6294.382
6287.4023
6280.0855
6273.7133
6263.0946
414.07763
169.97395
96.359956
70.302969
59.18722
53.412011
49.902397
47.534631
45.830579
44.552981
43.567561
42.790817
42.167498
41.659482
41.239618
40.888104
40.590006
40.334512
40.110924
39.920398
39.723342
39.669287
39.012963
43.532838
6574.335
11284.294
10647.329
9001.5076
8063.0993
7601.047
7337.8919
7156.521
7018.2394
6908.2383
6818.2115
6742.6112
6677.3799
6620.6836
6570.7771
6526.1385
6485.7075
6448.754
6414.7811
6383.3609
6354.216
6327.0439
6301.5271
6277.4586
6254.6856
6233.0496
6212.4487
6192.7851
6173.9582
6155.8949
6138.5334
6121.8047
6105.6517
6090.0369
6074.918
6060.2413
6045.9745
6032.1035
6018.5907
6005.3899
5992.4935
5979.9169
5967.6256
5955.5729
5943.7486
5932.1488
5920.7477
5909.5179
5898.4526
5887.5505
5876.7969
5866.1687
5855.6519
5845.2502
5834.9587
5824.7568
5814.6304
5804.5792
5794.6008
5784.6843
5774.8151
5764.9839
5755.1936
5745.4399
5735.7073
5725.9864
5716.2756
5706.5722
5696.8681
5687.1512
5677.4132
5667.6535
5657.8671
5648.0392
5638.1958
5628.3088
5618.3656
5608.3516
5598.2536
5588.0664
5577.785
5567.3923
5556.8701
5546.2143
5535.4141
5524.4467
5513.2965
5501.9559
5490.4043
5478.8667
5467.7208
5457.0816
5446.9427
5437.2368
5427.9271
5418.9789
5410.3604
5402.0524
5394.0395
5386.3008
5378.8126
5371.5573
5364.5258
5357.7055
5351.0815
5344.6285
5338.3464
5332.1598
5326.2034
5319.9556
5314.5306
5305.4381
414.07479
169.99549
96.395721
70.304085
59.115983
53.260942
49.681439
47.257163
45.50799
44.193998
43.178823
42.377447
41.733511
41.208062
40.773309
40.408951
40.099665
39.8343
39.602002
39.403322
39.200064
39.135318
38.494423
41.749077
4491.8713
9136.2486
9353.9771
8039.7821
7132.8597
6652.8824
6378.3625
6194.2537
6056.8666
5948.8699
5861.238
5788.2183
5725.8883
5672.2567
5625.5923
5584.1336
5546.7705
5512.7556
5481.5938
5452.8657
5426.3385
5401.6917
5378.599
5356.8593
5336.3274
5316.8533
5298.3394
5280.6917
5263.8175
5247.6486
5232.1251
5217.1845
5202.7744
5188.8567
5175.3934
5162.3383
5149.6578
5137.337
5125.3456
5113.6428
5102.2092
5091.056
5080.1623
5069.4889
5059.0227
5048.7599
5038.6807
5028.7601
5018.989
5009.366
4999.8797
4990.5105
4981.2441
4972.0818
4963.0207
4954.0444
4945.1389
4936.3023
4927.5328
4918.8223
4910.1579
4901.5302
4892.9406
4884.3866
4875.8556
4867.3382
4858.8322
4850.3354
4841.8418
4833.3406
4824.8238
4816.2903
4807.737
4799.1509
4790.5716
4781.9608
4773.3046
4764.5904
4755.8066
4746.9485
4738.0121
4728.9826
4719.8445
4710.5937
4701.2214
4691.7078
4682.0396
4672.21
4662.2018
4652.21
4642.5609
4633.3513
4624.5647
4616.1558
4608.0929
4600.3454
4592.8857
4585.6966
4578.7644
4572.0712
4565.5962
4559.3241
4553.2468
4547.3532
4541.6304
4536.0567
4530.632
4525.291
4520.1506
4514.7613
4510.0947
4502.2194
414.07202
170.01535
96.433187
70.30906
59.048046
53.10965
49.45538
46.969717
45.171087
43.816994
42.768911
41.940214
41.273356
40.728484
40.277115
39.898402
39.576596
39.300171
39.058112
38.850226
38.640395
38.560414
37.965301
40.208216
2904.25
7317.8284
8150.3072
7199.3902
6361.1718
5869.8908
5582.6404
5393.7072
5255.6565
5148.4983
5062.2946
4991.0353
4931.126
4880.1443
4836.2751
4797.5462
4762.8226
4731.3404
4702.5984
4676.1845
4651.8281
4629.2424
4608.1329
4588.3039
4569.615
4551.9219
4535.1309
4519.1494
4503.8909
4489.2914
4475.2921
4461.8352
4448.8726
4436.3653
4424.2783
4412.5718
4401.2115
4390.1814
4379.4564
4369.0013
4358.7888
4348.8253
4339.0996
4329.5789
4320.2479
4311.1028
4302.1283
4293.3021
4284.6131
4276.0591
4267.632
4259.3151
4251.0939
4242.9675
4234.9345
4226.9821
4219.0966
4211.2747
4203.515
4195.8115
4188.1531
4180.53
4172.9426
4165.3898
4157.8613
4150.3477
4142.8464
4135.3558
4127.8711
4120.383
4112.8835
4105.3715
4097.8448
4090.2926
4082.7399
4075.1604
4067.5437
4059.879
4052.1557
4044.3691
4036.5164
4028.585
4020.5609
4012.4402
4004.2157
3995.8705
3987.3923
3978.7755
3970.0054
3961.2527
3952.8029
3944.7389
3937.0383
3929.67
3922.6069
3915.822
3909.2908
3902.9979