/*--------------------------------*- C++ -*----------------------------------*\
  =========                 |
  \\      /  F ield         | OpenFOAM: The Open Source CFD Toolbox
   \\    /   O peration     | Website:  https://openfoam.org
    \\  /    A nd           | Version:  12
     \\/     M anipulation  |
\*---------------------------------------------------------------------------*/
FoamFile
{
    format      ascii;
    class       volVectorField;
    location    "1600";
    object      U;
}
// * * * * * * * * * * * * * * * * * * * * * * * * * * * * * * * * * * * * * //

dimensions      [0 1 -1 0 0 0 0];

internalField   nonuniform List<vector> 
7480
(
(0.99717945 8.1007635e-05 1.4989841e-17)
(0.99545431 0.0001854808 0)
(0.99352814 0.00025519114 1.7964229e-19)
(0.99145695 0.00029809421 0)
(0.9892702 0.00032999149 0)
(0.98699003 0.00035200911 0)
(0.98462105 0.00036778704 0)
(0.98215768 0.00038026938 0)
(0.97959571 0.00039202656 0)
(0.97690667 0.00040065229 0)
(0.97413407 0.00042251762 0)
(0.97096907 0.00040427769 0)
(0.96835447 0.00063375769 0)
(0.96221009 0.00086043907 1.1769338e-16)
(0.95210792 0.0014577864 -2.6591598e-18)
(0.93960112 0.0019806594 0)
(0.92554152 0.0023183391 0)
(0.91058287 0.0025039087 0)
(0.89509394 0.0025823698 0)
(0.87950521 0.0025508003 0)
(0.86401286 0.0024702413 0)
(0.84878064 0.0023369772 0)
(0.83384984 0.0021313036 0)
(0.81901869 0.0018956618 0)
(0.80437102 0.0016871536 0)
(0.79007008 0.0015032184 0)
(0.77630139 0.0013244766 0)
(0.76341405 0.0011579348 0)
(0.75123082 0.0010172069 0)
(0.73978867 0.00089410599 0)
(0.72915484 0.00078231304 0)
(0.71938024 0.00067976928 0)
(0.7104863 0.00058587254 0)
(0.70246281 0.0005014023 0)
(0.69527193 0.0004270636 0)
(0.68885794 0.00036286978 0)
(0.68314811 0.00030819077 0)
(0.67807169 0.00026163407 0)
(0.67357103 0.00022150441 0)
(0.6695928 0.0001864825 0)
(0.66607374 0.00015658058 0)
(0.66294378 0.00013212923 0)
(0.66013637 0.00011270768 0)
(0.65759245 9.70594e-05 0)
(0.65527313 8.5001774e-05 0)
(0.65311131 7.660574e-05 0)
(0.65106802 7.1163654e-05 0)
(0.6491038 6.8014047e-05 0)
(0.64718445 6.6436751e-05 0)
(0.64528776 6.6509352e-05 0)
(0.64338199 6.8237696e-05 0)
(0.64143376 7.0840126e-05 0)
(0.6394195 7.3818047e-05 0)
(0.63733141 7.6664244e-05 0)
(0.63517407 7.9035699e-05 0)
(0.63295843 8.0661942e-05 0)
(0.63069721 8.1438505e-05 0)
(0.62840612 8.1216199e-05 0)
(0.62610423 8.0099597e-05 0)
(0.62380286 7.8522664e-05 0)
(0.62150615 7.6758517e-05 0)
(0.61921595 7.4900019e-05 0)
(0.61693629 7.285791e-05 0)
(0.61467405 7.0629516e-05 0)
(0.61243487 6.8312918e-05 0)
(0.61022157 6.5939622e-05 0)
(0.60803774 6.3464236e-05 0)
(0.60588845 6.0926823e-05 0)
(0.60377449 5.850466e-05 0)
(0.601691 5.6287861e-05 0)
(0.5996333 5.4224032e-05 0)
(0.59760009 5.2259244e-05 0)
(0.59559127 5.0379087e-05 0)
(0.59360654 4.8546894e-05 0)
(0.59164732 4.6710041e-05 0)
(0.58971635 4.4886349e-05 0)
(0.5878133 4.3156646e-05 0)
(0.58593506 4.153554e-05 0)
(0.58407873 4.0017163e-05 0)
(0.58224327 3.8561403e-05 0)
(0.58042878 3.7149598e-05 0)
(0.57863613 3.5755879e-05 0)
(0.57686722 3.4375337e-05 0)
(0.57512145 3.3078157e-05 0)
(0.57339582 3.1858275e-05 0)
(0.57168893 3.069381e-05 0)
(0.5699999 2.958778e-05 0)
(0.56832917 2.8490313e-05 0)
(0.5666786 2.7414508e-05 0)
(0.565047 2.640979e-05 0)
(0.56343191 2.5454456e-05 0)
(0.56183234 2.4543864e-05 0)
(0.56024799 2.367761e-05 0)
(0.55867756 2.2831625e-05 0)
(0.55712418 2.20578e-05 0)
(0.55557017 2.1373621e-05 0)
(0.55405303 2.0236482e-05 0)
(0.55242724 3.3336132e-05 3.8777623e-20)
(0.55106527 2.2114542e-05 -2.1940905e-19)
(0.54855501 3.3067744e-05 -5.1017063e-18)
(0.99846854 0.00034770438 0)
(0.99849085 0.00051626588 0)
(0.99854976 0.00061644707 -2.323276e-19)
(0.99854883 0.00061385681 -2.9379036e-18)
(0.99852181 0.00062363163 0)
(0.99847431 0.00062986398 0)
(0.99841012 0.00063288909 0)
(0.99832542 0.00063563689 0)
(0.99821529 0.00064099226 0)
(0.99806557 0.00064675803 0)
(0.99787379 0.00067125397 0)
(0.99755988 0.00067979039 0)
(0.99715814 0.00088028345 0)
(0.99658005 0.001405744 0)
(0.99574492 0.0020269158 0)
(0.99422855 0.0024020492 0)
(0.99176716 0.002537144 0)
(0.98836051 0.0025551975 0)
(0.98411948 0.002510386 0)
(0.97917023 0.0024353556 0)
(0.97353986 0.0023488156 0)
(0.96723024 0.0022654879 0)
(0.96031112 0.0022160084 0)
(0.95302534 0.0022010313 0)
(0.94537656 0.0021782241 0)
(0.93740468 0.0021234937 0)
(0.92912306 0.0020394516 0)
(0.92047817 0.0019260022 0)
(0.91165386 0.0017975983 0)
(0.90273185 0.0016631331 0)
(0.89378327 0.0015234482 0)
(0.88486464 0.0013841494 0)
(0.87603957 0.0012466941 0)
(0.86737445 0.0011131593 0)
(0.85893359 0.00098677545 0)
(0.85077511 0.00087020078 0)
(0.84294942 0.00076425774 0)
(0.83552375 0.00067122623 0)
(0.82846903 0.00059225373 0)
(0.8217538 0.00052422299 0)
(0.81538074 0.00046482413 0)
(0.80935234 0.00041378235 0)
(0.80366601 0.0003706028 0)
(0.79830035 0.000333886 0)
(0.79322316 0.00030230351 0)
(0.78841849 0.00027600259 0)
(0.78385945 0.00025498413 0)
(0.77951803 0.00023805843 0)
(0.77537526 0.00022374248 0)
(0.77142297 0.00021347179 0)
(0.76757008 0.00020721507 0)
(0.76380229 0.00020261648 0)
(0.76012019 0.00019854957 0)
(0.75652669 0.00019437924 0)
(0.75302284 0.00019000483 0)
(0.74960459 0.00018531922 0)
(0.7462651 0.0001802744 0)
(0.74299868 0.00017488188 0)
(0.73978667 0.00016926088 0)
(0.73661915 0.00016358139 0)
(0.73349461 0.00015792634 0)
(0.73041478 0.00015229679 0)
(0.72738203 0.00014651163 0)
(0.7243997 0.00014062049 0)
(0.72147 0.00013481069 0)
(0.71859282 0.00012907874 0)
(0.71576956 0.00012335083 0)
(0.71299903 0.00011776396 0)
(0.71027558 0.0001125788 0)
(0.70759372 0.00010781633 0)
(0.70495174 0.00010331093 0)
(0.70235099 9.8985442e-05 0)
(0.69979241 9.4850976e-05 0)
(0.69727542 9.085629e-05 0)
(0.69480066 8.6926086e-05 0)
(0.69236828 8.3121981e-05 0)
(0.68997473 7.9572448e-05 0)
(0.68761613 7.6251943e-05 0)
(0.68529095 7.3124156e-05 0)
(0.68299936 7.0121878e-05 0)
(0.68074152 6.7227856e-05 0)
(0.67851788 6.4408372e-05 0)
(0.67632827 6.166936e-05 0)
(0.67417035 5.9121426e-05 0)
(0.67204104 5.6722363e-05 0)
(0.66993974 5.4430955e-05 0)
(0.66786615 5.2255978e-05 0)
(0.6658205 5.0119914e-05 0)
(0.66380307 4.8059847e-05 0)
(0.66181157 4.6146686e-05 0)
(0.65984358 4.4326846e-05 0)
(0.65789857 4.2593488e-05 0)
(0.65597656 4.0950536e-05 0)
(0.65407539 3.9358936e-05 0)
(0.65219726 3.7926505e-05 0)
(0.65032396 3.6556731e-05 0)
(0.648494 3.5718958e-05 0)
(0.64655939 3.6773787e-05 0)
(0.64491119 3.4834904e-05 0)
(0.64194819 3.7422399e-05 0)
(0.99850257 0.00034301265 0)
(0.99850923 0.00043731678 0)
(0.99854077 0.00045981747 0)
(0.9985551 0.00046016204 0)
(0.99854025 0.00046305196 0)
(0.99850538 0.00046794618 0)
(0.99845646 0.00047437744 0)
(0.99839037 0.00048344382 0)
(0.99830186 0.00049709171 0)
(0.99817969 0.00051500998 0)
(0.99801536 0.00055114412 0)
(0.99776282 0.00060765582 0)
(0.9974183 0.00084914668 0)
(0.99717923 0.0014284835 0)
(0.99721836 0.0020441175 0)
(0.99745919 0.0024942727 0)
(0.99771844 0.002784842 0)
(0.99786235 0.0029912397 0)
(0.99783921 0.0031354337 0)
(0.99761546 0.0032217064 0)
(0.99715972 0.0032658108 0)
(0.99645145 0.003284768 0)
(0.99547261 0.0032787535 0)
(0.99420743 0.0032531979 0)
(0.99263369 0.003196343 0)
(0.99063908 0.0031118802 0)
(0.98813715 0.0030001562 0)
(0.98498318 0.002876266 0)
(0.9811955 0.0027555448 0)
(0.97675069 0.0026322304 0)
(0.97160743 0.0024939521 0)
(0.96582339 0.0023389541 0)
(0.95943943 0.0021793989 0)
(0.95251459 0.0020194907 0)
(0.94513112 0.0018610758 0)
(0.93739009 0.0017055733 0)
(0.9294085 0.0015539015 0)
(0.92130565 0.0014082984 0)
(0.91321077 0.0012719166 0)
(0.90523101 0.0011464533 0)
(0.8974515 0.0010320635 0)
(0.88993999 0.00092900766 0)
(0.88274152 0.00084080928 0)
(0.87579408 0.00076717558 0)
(0.86909605 0.00070383521 0)
(0.86267153 0.00064821461 0)
(0.85653372 0.00059906695 0)
(0.85069775 0.00055615531 0)
(0.84514766 0.00051867204 0)
(0.83985467 0.00048643736 0)
(0.83479947 0.0004606472 0)
(0.82996368 0.00044031141 0)
(0.82532432 0.00042259114 0)
(0.82086896 0.00040550236 0)
(0.81658608 0.00038878253 0)
(0.81245717 0.00037266246 0)
(0.80846446 0.00035731205 0)
(0.80458816 0.00034324575 0)
(0.80078108 0.00032998972 0)
(0.79704858 0.00031682331 0)
(0.79339634 0.00030377871 0)
(0.78982398 0.00029102133 0)
(0.78632762 0.0002783732 0)
(0.78290573 0.0002658824 0)
(0.77955781 0.00025379188 0)
(0.77628174 0.00024204018 0)
(0.77307706 0.00023062783 0)
(0.76993496 0.00021986527 0)
(0.7668461 0.00020995079 0)
(0.76380798 0.00020072062 0)
(0.7608218 0.00019188663 0)
(0.75788945 0.00018336673 0)
(0.75501128 0.00017521815 0)
(0.75218595 0.00016737874 0)
(0.74941366 0.00015976042 0)
(0.746692 0.00015249989 0)
(0.74401509 0.00014576619 0)
(0.74137952 0.00013945567 0)
(0.7387851 0.00013347156 0)
(0.73623256 0.000127716 0)
(0.73372179 0.00012217587 0)
(0.731253 0.00011681919 0)
(0.72882432 0.0001116798 0)
(0.72643221 0.00010690821 0)
(0.72407392 0.00010240948 0)
(0.72174949 9.8104603e-05 0)
(0.71945881 9.4003533e-05 0)
(0.71720209 9.0008058e-05 0)
(0.71497839 8.6188118e-05 0)
(0.71278474 8.2639536e-05 0)
(0.71061888 7.9267119e-05 0)
(0.7084806 7.6047124e-05 0)
(0.7063701 7.2994003e-05 0)
(0.70428463 7.0052995e-05 0)
(0.70222579 6.7422643e-05 0)
(0.70017515 6.4842249e-05 0)
(0.69817183 6.3330372e-05 0)
(0.69606584 6.0976633e-05 0)
(0.69426316 6.4404792e-05 0)
(0.6910471 5.9079374e-05 -4.1179285e-20)
(0.99853107 0.00033360636 0)
(0.99852831 0.00042234771 0)
(0.99855209 0.00047740377 0)
(0.99856392 0.000509456 0)
(0.99854877 0.00053424093 0)
(0.99851363 0.00055698049 0)
(0.99846439 0.00057785649 0)
(0.99839836 0.00059828083 0)
(0.99831023 0.0006216687 0)
(0.99819041 0.00064952288 0)
(0.99802908 0.00069928734 0)
(0.99779664 0.00077052948 0)
(0.99749647 0.001022113 0)
(0.99728432 0.0015264591 0)
(0.99731757 0.002061632 0)
(0.9975672 0.0024751274 0)
(0.99789628 0.002743842 0)
(0.99821174 0.0029168787 0)
(0.99849475 0.003017822 0)
(0.99874543 0.0030587312 0)
(0.9989598 0.0030640026 0)
(0.99913595 0.0030496121 0)
(0.99927443 0.0030266596 0)
(0.99937457 0.0029967757 0)
(0.99943439 0.0029628813 0)
(0.99944208 0.0029248336 0)
(0.99937789 0.0028824641 0)
(0.99921338 0.002838816 0)
(0.99891636 0.0027931295 0)
(0.99844543 0.0027403283 0)
(0.99775728 0.0026805667 0)
(0.99673488 0.0026164834 0)
(0.9952892 0.0025471396 0)
(0.9933315 0.0024716194 0)
(0.99077213 0.0023897675 0)
(0.9875261 0.0023017726 0)
(0.98351991 0.0022060148 0)
(0.97869317 0.0020975144 0)
(0.97310735 0.0019796737 0)
(0.96683407 0.0018582181 0)
(0.95995539 0.0017335036 0)
(0.95259642 0.0016061525 0)
(0.944924 0.0014783831 0)
(0.93712615 0.001357594 0)
(0.92934738 0.0012482886 0)
(0.92170272 0.0011478972 0)
(0.91428094 0.0010553133 0)
(0.90716789 0.00097499186 0)
(0.90027377 0.00090720679 0)
(0.89359862 0.00084901266 0)
(0.88721361 0.00079879476 0)
(0.88113678 0.00075351252 0)
(0.87537317 0.00071202643 0)
(0.86989668 0.00067393859 0)
(0.86466564 0.00063874844 0)
(0.85964476 0.00060623932 0)
(0.85481589 0.00057632575 0)
(0.85016116 0.00054876562 0)
(0.84567396 0.00052329763 0)
(0.84134247 0.0004994271 0)
(0.83714897 0.00047668788 0)
(0.83307622 0.0004551374 0)
(0.82910896 0.00043426187 0)
(0.82524339 0.0004138166 0)
(0.82147828 0.00039412969 0)
(0.81780867 0.00037517749 0)
(0.81422965 0.00035726226 0)
(0.81071803 0.00034072215 0)
(0.80726752 0.00032529778 0)
(0.80388481 0.00031060527 0)
(0.80057201 0.00029642857 0)
(0.79732842 0.00028278639 0)
(0.7941524 0.00026978164 0)
(0.79104163 0.00025730831 0)
(0.78799582 0.00024532397 0)
(0.78500791 0.0002340785 0)
(0.78207002 0.00022365539 0)
(0.77918144 0.00021379967 0)
(0.77634357 0.00020438875 0)
(0.77355693 0.00019533548 0)
(0.77082065 0.00018663853 0)
(0.76813462 0.00017828908 0)
(0.76549431 0.00017035905 0)
(0.76289528 0.00016299194 0)
(0.76033577 0.00015601905 0)
(0.75781659 0.00014932967 0)
(0.75533758 0.00014294368 0)
(0.75289882 0.00013676053 0)
(0.75049768 0.00013088746 0)
(0.7481306 0.00012542589 0)
(0.74579579 0.00012022922 0)
(0.74349342 0.00011525497 0)
(0.7412238 0.00011053959 0)
(0.7389834 0.00010601753 0)
(0.73677311 0.0001019864 0)
(0.7345746 9.7965285e-05 0)
(0.7324274 9.5657499e-05 0)
(0.73018024 9.1422011e-05 0)
(0.7282524 9.9935449e-05 0)
(0.72482986 8.5155346e-05 3.3089455e-20)
(0.99855874 0.0003373102 0)
(0.99854956 0.00042464816 0)
(0.99856419 0.0004824959 0)
(0.99856969 0.00051102549 0)
(0.99855195 0.000527901 0)
(0.99851577 0.00054309497 0)
(0.99846602 0.00055788258 0)
(0.99840024 0.00057391231 0)
(0.9983132 0.00059505604 0)
(0.99819634 0.00062482842 0)
(0.99804081 0.00067823025 0)
(0.99782751 0.00077043455 0)
(0.99756459 0.0010088853 0)
(0.99737686 0.0014592557 0)
(0.99740135 0.0019620046 0)
(0.99762451 0.002370332 0)
(0.99793118 0.0026436154 0)
(0.99823412 0.0028222039 0)
(0.99851465 0.0029360117 0)
(0.99877469 0.002999243 0)
(0.99901024 0.0030308197 0)
(0.99922038 0.0030450248 0)
(0.99940876 0.003045973 0)
(0.99958159 0.0030400485 0)
(0.9997435 0.0030244615 0)
(0.99989429 0.0029969211 0)
(1.0000314 0.0029572077 0)
(1.0001524 0.0029076607 0)
(1.0002566 0.002851858 0)
(1.0003449 0.0027921215 0)
(1.000415 0.0027294218 0)
(1.0004597 0.0026648606 0)
(1.0004695 0.0026002014 0)
(1.0004305 0.0025371577 0)
(1.0003208 0.0024770825 0)
(1.0001069 0.0024204802 0)
(0.99974147 0.0023670214 0)
(0.99914707 0.0023168596 0)
(0.9981892 0.0022684082 0)
(0.99674523 0.0022177274 0)
(0.99468728 0.0021621034 0)
(0.99187941 0.0021001668 0)
(0.98819284 0.0020335234 0)
(0.98361136 0.0019563338 0)
(0.97820712 0.0018636085 0)
(0.9720628 0.0017620952 0)
(0.96529078 0.0016540116 0)
(0.95805944 0.0015413443 0)
(0.95058965 0.0014321571 0)
(0.94304941 0.00133286 0)
(0.93559618 0.0012414183 0)
(0.92834346 0.0011559612 0)
(0.9214061 0.0010801371 0)
(0.91470866 0.0010151939 0)
(0.90822198 0.00095691117 0)
(0.9019702 0.00090239881 0)
(0.89597611 0.00085121053 0)
(0.8902629 0.00080413359 0)
(0.88484196 0.00076146414 0)
(0.87966311 0.00072191303 0)
(0.87468394 0.0006852326 0)
(0.86988048 0.000651327 0)
(0.86523908 0.000618947 0)
(0.86075852 0.00058760812 0)
(0.85642654 0.00055788657 0)
(0.85222647 0.00052995781 0)
(0.84814102 0.0005037225 0)
(0.84416434 0.00047933743 0)
(0.84029448 0.00045672152 0)
(0.83652655 0.00043536262 0)
(0.83285242 0.00041491438 0)
(0.82926557 0.00039534209 0)
(0.82576264 0.00037671801 0)
(0.8223408 0.00035887327 0)
(0.81899835 0.00034194129 0)
(0.81571957 0.00032624391 0)
(0.81249764 0.00031157331 0)
(0.80933825 0.00029752292 0)
(0.80624294 0.00028405521 0)
(0.80321051 0.00027113636 0)
(0.80023875 0.000258761 0)
(0.79732708 0.00024698809 0)
(0.79446641 0.00023592193 0)
(0.79165267 0.00022560012 0)
(0.78888627 0.00021577384 0)
(0.78616852 0.00020633148 0)
(0.78349873 0.00019731411 0)
(0.78087662 0.00018864214 0)
(0.77829678 0.00018045946 0)
(0.77575562 0.00017283467 0)
(0.77325237 0.00016556449 0)
(0.77078749 0.00015859328 0)
(0.76836123 0.00015199208 0)
(0.76596881 0.00014569032 0)
(0.76361033 0.00014008045 0)
(0.76126792 0.00013442589 0)
(0.75898149 0.00013123405 0)
(0.75659862 0.00012491058 1.7993279e-20)
(0.75455137 0.00013917727 0)
(0.75093314 0.00011309629 0)
(0.99858485 0.00034324465 0)
(0.99857018 0.00042451443 0)
(0.99857619 0.00048056319 0)
(0.99857615 0.00051127069 0)
(0.99855703 0.00053305191 0)
(0.99852106 0.00055527464 0)
(0.99847176 0.00057866202 0)
(0.99840694 0.00060419817 0)
(0.99832164 0.00063565634 0)
(0.99820844 0.00067744894 0)
(0.99805989 0.00074428768 0)
(0.99786431 0.00085478061 0)
(0.99763373 0.0010885537 0)
(0.99746956 0.0015026124 0)
(0.99748892 0.0019750263 0)
(0.99768896 0.0023667588 0)
(0.99797261 0.0026337219 0)
(0.99825929 0.0028103011 0)
(0.99852703 0.0029260191 0)
(0.99877624 0.0029923288 0)
(0.99900446 0.0030252071 0)
(0.99921073 0.0030341657 0)
(0.99939809 0.0030295562 0)
(0.9995716 0.0030149999 0)
(0.99973568 0.0029905665 0)
(0.99989119 0.0029547439 0)
(1.0000356 0.0029084371 0)
(1.0001664 0.0028548113 0)
(1.0002839 0.0027983107 0)
(1.0003903 0.0027406851 0)
(1.0004865 0.0026808438 0)
(1.0005721 0.0026191927 0)
(1.0006467 0.0025577007 0)
(1.0007107 0.0024979506 0)
(1.0007655 0.0024410879 0)
(1.0008115 0.0023878816 0)
(1.0008484 0.0023390248 0)
(1.0008743 0.0022945847 0)
(1.0008828 0.0022540289 0)
(1.000863 0.002217653 0)
(1.0007963 0.0021856759 0)
(1.0006501 0.0021577929 0)
(1.0003663 0.0021328611 0)
(0.99986006 0.0021092184 0)
(0.99895607 0.0020841832 0)
(0.99748944 0.002054058 0)
(0.99530303 0.0020155677 0)
(0.99221872 0.0019709412 0)
(0.98820218 0.0019168131 0)
(0.98330265 0.0018448065 0)
(0.97760864 0.0017595584 0)
(0.97123699 0.0016645374 0)
(0.9643669 0.0015622412 0)
(0.95723282 0.0014613162 0)
(0.95002687 0.0013680825 0)
(0.94290366 0.0012809835 0)
(0.93596154 0.0011985439 0)
(0.92930569 0.001124755 0)
(0.9228456 0.0010604583 0)
(0.91655942 0.0010013931 0)
(0.91048843 0.00094545584 0)
(0.9046654 0.00089265925 0)
(0.89911514 0.00084304925 0)
(0.89379907 0.00079699387 0)
(0.88867503 0.00075413012 0)
(0.88372307 0.00071442912 0)
(0.87892994 0.00067732299 0)
(0.87431473 0.00064264187 0)
(0.86987319 0.00061030079 0)
(0.86558104 0.00058017691 0)
(0.86141505 0.00055179525 0)
(0.85736706 0.00052473874 0)
(0.85343406 0.00049906353 0)
(0.84960966 0.00047467869 0)
(0.84588418 0.00045163831 0)
(0.84225089 0.00043025017 0)
(0.83870611 0.0004103376 0)
(0.83524648 0.00039135419 0)
(0.83186756 0.000373213 0)
(0.82856495 0.00035588012 0)
(0.82533519 0.00033930613 0)
(0.822177 0.00032370062 0)
(0.81907403 0.00030912339 0)
(0.81602638 0.0002953985 0)
(0.81303737 0.0002822441 0)
(0.81010754 0.00026960492 0)
(0.80723491 0.00025754949 0)
(0.80441852 0.00024606008 0)
(0.80164882 0.00023529438 0)
(0.79892374 0.00022521209 0)
(0.79624392 0.00021556842 0)
(0.79360979 0.00020631357 0)
(0.79102118 0.00019757234 0)
(0.78847129 0.00018927291 0)
(0.78595973 0.00018188145 0)
(0.78346952 0.00017437924 0)
(0.781041 0.0001701579 0)
(0.77851996 0.00016121565 0)
(0.77635208 0.00018214154 4.7348702e-20)
(0.77253679 0.00014294611 0)
(0.99860938 0.00035050675 0)
(0.99859035 0.00042574431 0)
(0.99858912 0.00048128778 0)
(0.99858423 0.00051597115 0)
(0.99856362 0.00054206614 0)
(0.99852745 0.00056751124 0)
(0.99847815 0.00059352654 0)
(0.99841394 0.00062146277 0)
(0.9983303 0.00065550353 0)
(0.99822093 0.00070128497 0)
(0.99807986 0.00077308073 0)
(0.9979009 0.00089095988 0)
(0.99769871 0.0011161001 0)
(0.99755609 0.0014939841 0)
(0.99757201 0.0019305848 0)
(0.99775136 0.0023015996 0)
(0.99801388 0.0025622461 0)
(0.9982859 0.002738635 0)
(0.99854327 0.0028572991 0)
(0.9987846 0.0029288615 0)
(0.9990075 0.0029656517 0)
(0.99921032 0.0029810498 0)
(0.99939513 0.0029820229 0)
(0.99956631 0.0029733768 0)
(0.99972771 0.0029552454 0)
(0.99987995 0.0029265157 0)
(1.0000213 0.0028879473 0)
(1.00015 0.0028421398 0)
(1.0002664 0.0027925735 0)
(1.0003725 0.0027402794 0)
(1.0004695 0.0026842766 0)
(1.0005567 0.0026253823 0)
(1.0006338 0.0025657976 0)
(1.0007017 0.0025071362 0)
(1.000761 0.0024505678 0)
(1.0008128 0.0023970235 0)
(1.0008584 0.002347161 0)
(1.0008986 0.0023008737 0)
(1.0009346 0.0022584019 0)
(1.000967 0.0022202847 0)
(1.0009967 0.0021863987 0)
(1.0010239 0.0021566207 0)
(1.0010482 0.002130792 0)
(1.0010675 0.0021084154 0)
(1.0010743 0.0020891861 0)
(1.0010524 0.0020727307 0)
(1.0009757 0.0020588266 0)
(1.0007898 0.0020466121 0)
(1.0004195 0.0020338502 0)
(0.99968642 0.0020181032 0)
(0.99839092 0.0019963318 0)
(0.99635545 0.0019652231 0)
(0.99337755 0.0019253785 0)
(0.98941691 0.0018731388 0)
(0.98458276 0.0018035074 0)
(0.97897987 0.0017211088 0)
(0.97275478 0.0016279999 0)
(0.96610644 0.0015289549 0)
(0.95926838 0.0014333234 0)
(0.95241078 0.001345166 0)
(0.94565605 0.0012632466 0)
(0.93909045 0.0011864624 0)
(0.93278618 0.0011183996 0)
(0.92658316 0.0010572556 0)
(0.92052073 0.00099863506 0)
(0.91465337 0.0009423046 0)
(0.9090284 0.00088906339 0)
(0.90363133 0.00083991608 0)
(0.89843122 0.00079455908 0)
(0.89341103 0.00075281942 0)
(0.88856156 0.00071370031 0)
(0.88388585 0.00067659694 0)
(0.87937379 0.00064173017 0)
(0.8750075 0.00060914192 0)
(0.87076784 0.00057860855 0)
(0.86666243 0.00055011876 0)
(0.86269203 0.00052349109 0)
(0.85884025 0.00049830438 0)
(0.85509336 0.00047445809 0)
(0.85144394 0.00045178971 0)
(0.84788765 0.00043020019 0)
(0.84441921 0.00040986802 0)
(0.84103289 0.00039092033 0)
(0.83772431 0.00037316158 0)
(0.83449012 0.00035617684 0)
(0.83132748 0.00033990079 0)
(0.82823264 0.00032440285 0)
(0.82520375 0.00030978042 0)
(0.82222524 0.00029611676 0)
(0.81930009 0.00028320826 0)
(0.81642994 0.00027082343 0)
(0.81361424 0.00025894372 0)
(0.81085196 0.00024777693 0)
(0.80813341 0.00023724165 0)
(0.80545847 0.00022782991 0)
(0.80281159 0.00021822438 0)
(0.8002334 0.00021277832 0)
(0.79756691 0.00020079915 0)
(0.79527262 0.000229176 4.4501003e-20)
(0.79125157 0.00017515538 0)
(0.99863257 0.00035911426 0)
(0.99861018 0.00042897885 0)
(0.99860286 0.00048387807 0)
(0.99859346 0.00052135127 0)
(0.99857114 0.0005503891 0)
(0.99853468 0.00057835905 0)
(0.99848559 0.00060747154 0)
(0.99842234 0.00063951889 0)
(0.9983409 0.00067880121 0)
(0.99823597 0.00073157793 0)
(0.99810305 0.00081130807 0)
(0.99793995 0.00093798607 0)
(0.99776283 0.0011586813 0)
(0.99763965 0.0015080347 0)
(0.99765356 0.0019139118 0)
(0.99781455 0.0022681259 0)
(0.99805713 0.0025250131 0)
(0.99831465 0.0027023969 0)
(0.99856161 0.0028240938 0)
(0.99879514 0.0029004451 0)
(0.99901278 0.0029426042 0)
(0.9992123 0.0029621673 0)
(0.99939495 0.0029665234 0)
(0.99956447 0.002960171 0)
(0.9997242 0.0029435055 0)
(0.99987477 0.0029158166 0)
(1.0000146 0.0028778843 0)
(1.0001423 0.002832162 0)
(1.0002579 0.0027819081 0)
(1.0003633 0.002728509 0)
(1.0004594 0.0026716754 0)
(1.0005459 0.0026123954 0)
(1.0006223 0.0025527239 0)
(1.0006893 0.0024942188 0)
(1.0007481 0.0024380352 0)
(1.0007999 0.0023850722 0)
(1.0008458 0.0023358976 0)
(1.000887 0.002290495 0)
(1.0009243 0.0022490462 0)
(1.0009586 0.0022118021 0)
(1.0009907 0.0021784668 0)
(1.0010211 0.0021489014 0)
(1.0010503 0.0021229924 0)
(1.0010788 0.0021004728 0)
(1.0011074 0.0020809826 0)
(1.0011361 0.0020640663 0)
(1.0011648 0.002049415 0)
(1.0011931 0.0020365746 0)
(1.0012192 0.0020253124 0)
(1.0012368 0.0020158193 0)
(1.0012288 0.0020079106 0)
(1.0011662 0.0020009471 0)
(1.0009876 0.0019937836 0)
(1.0005974 0.0019841143 0)
(0.99977634 0.0019684055 0)
(0.99831215 0.0019432903 0)
(0.99601443 0.0019075405 0)
(0.99266841 0.0018585758 0)
(0.98835942 0.0017963594 0)
(0.9832453 0.0017223055 0)
(0.97747478 0.0016375053 0)
(0.97122872 0.0015450545 0)
(0.96472994 0.0014515303 0)
(0.9581705 0.0013641728 0)
(0.95166197 0.0012843285 0)
(0.94527645 0.001208895 0)
(0.93911291 0.0011406172 0)
(0.93302652 0.0010788337 0)
(0.92703483 0.0010197672 0)
(0.92120789 0.00096289905 0)
(0.91560996 0.00090907622 0)
(0.910224 0.00085918086 0)
(0.90501672 0.00081278949 0)
(0.89997551 0.00076965342 0)
(0.89509918 0.00072904541 0)
(0.89039814 0.00069084139 0)
(0.8858671 0.00065534051 0)
(0.88148724 0.00062227346 0)
(0.87724555 0.00059119217 0)
(0.87313641 0.00056178169 0)
(0.86915267 0.00053399999 0)
(0.86528098 0.00050799859 0)
(0.86152674 0.00048374354 0)
(0.8578829 0.00046096956 0)
(0.85433759 0.00043932093 0)
(0.85088216 0.00041871811 0)
(0.84751066 0.00039917474 0)
(0.84421869 0.0003807217 0)
(0.84100201 0.00036351807 0)
(0.837856 0.00034733681 0)
(0.83477709 0.00033184108 0)
(0.83176272 0.00031700101 0)
(0.82881059 0.00030313642 0)
(0.82590711 0.00029010686 0)
(0.82305419 0.00027838571 0)
(0.82023801 0.00026637179 0)
(0.81749891 0.0002594696 0)
(0.81467586 0.00024406226 -7.367811e-21)
(0.81224591 0.00028064579 0)
(0.80800495 0.00021006615 -1.1979696e-20)
(0.99865462 0.00036872862 0)
(0.99862965 0.0004338255 0)
(0.99861722 0.00048772769 0)
(0.99860375 0.00052729945 0)
(0.99857973 0.00055916964 0)
(0.99854304 0.00059001581 0)
(0.99849434 0.00062253515 0)
(0.99843226 0.00065867122 0)
(0.99835325 0.0007026228 0)
(0.99825299 0.00076094687 0)
(0.99812838 0.00084629234 0)
(0.9979801 0.00097768397 0)
(0.99782493 0.0011915947 0)
(0.99771908 0.0015139465 0)
(0.99773207 0.0018893669 0)
(0.99787684 0.0022250442 0)
(0.99810062 0.0024753583 0)
(0.99834389 0.0026512484 0)
(0.99858055 0.0027739157 0)
(0.99880628 0.0028535509 0)
(0.99901846 0.0028996658 0)
(0.99921445 0.0029226511 0)
(0.99939481 0.0029299439 0)
(0.99956259 0.0029259015 0)
(0.99972072 0.0029113561 0)
(0.99986982 0.0028859963 0)
(1.0000086 0.0028506672 0)
(1.0001355 0.0028077059 0)
(1.0002509 0.0027601414 0)
(1.0003561 0.002709464 0)
(1.0004521 0.0026555746 0)
(1.0005386 0.0025992489 0)
(1.0006152 0.0025422812 0)
(1.0006825 0.0024861729 0)
(1.0007417 0.0024320481 0)
(1.0007938 0.0023807723 0)
(1.00084 0.0023329169 0)
(1.0008814 0.0022885583 0)
(1.0009189 0.0022478556 0)
(1.0009531 0.002211051 0)
(1.0009849 0.0021780053 0)
(1.0010151 0.0021486803 0)
(1.0010443 0.0021230155 0)
(1.0010733 0.0021006715 0)
(1.0011025 0.0020811779 0)
(1.0011325 0.0020640027 0)
(1.0011632 0.0020487511 0)
(1.0011947 0.0020351776 0)
(1.0012268 0.0020232481 0)
(1.0012596 0.0020129204 0)
(1.0012934 0.0020038249 0)
(1.001328 0.0019955104 0)
(1.0013627 0.0019872928 0)
(1.0013953 0.0019787532 0)
(1.0014154 0.0019699879 0)
(1.0014006 0.0019610668 0)
(1.0013054 0.001951476 0)
(1.0010525 0.0019410557 0)
(1.0004444 0.001926823 0)
(0.99924472 0.0019039506 0)
(0.99723482 0.0018711367 0)
(0.99421874 0.001823645 0)
(0.99012161 0.0017612632 0)
(0.98520788 0.001690793 0)
(0.97966106 0.0016107742 0)
(0.97366236 0.0015235463 0)
(0.96742233 0.0014346387 0)
(0.9611158 0.0013507413 0)
(0.95484069 0.0012742362 0)
(0.9486573 0.0012021616 0)
(0.94266054 0.001136472 0)
(0.93670717 0.0010761389 0)
(0.93082882 0.0010177263 0)
(0.92510195 0.0009611788 0)
(0.91958569 0.00090771732 0)
(0.91425047 0.0008581406 0)
(0.90907766 0.00081201356 0)
(0.90406931 0.00076896777 0)
(0.89923447 0.00072853666 0)
(0.89457015 0.0006905287 0)
(0.89006257 0.00065502255 0)
(0.88569485 0.00062179997 0)
(0.88147065 0.00059055904 0)
(0.87738862 0.00056138773 0)
(0.87343478 0.00053397512 0)
(0.86959737 0.00050806399 0)
(0.86586969 0.00048360388 0)
(0.86224287 0.00046059223 0)
(0.85872338 0.00043914755 0)
(0.85529934 0.0004189887 0)
(0.85196097 0.00039978577 0)
(0.84870208 0.00038149027 0)
(0.84551746 0.00036440326 0)
(0.84240076 0.00034836333 0)
(0.83935161 0.00033395048 0)
(0.8363502 0.00031921828 0)
(0.83343557 0.00031064128 0)
(0.8304412 0.00029141141 0)
(0.82786322 0.00033697876 4.2732943e-20)
(0.82338355 0.00024800122 0)
(0.99867572 0.00037919138 0)
(0.99864879 0.00044012014 0)
(0.99863214 0.00049286293 0)
(0.99861508 0.00053411244 0)
(0.99858944 0.00056864723 0)
(0.99855255 0.00060225857 0)
(0.99850436 0.00063788464 0)
(0.99844358 0.00067769442 0)
(0.99836724 0.00072587582 0)
(0.99827189 0.00078915117 0)
(0.99815569 0.00087936853 0)
(0.99802135 0.001014046 0)
(0.99788559 0.0012216205 0)
(0.99779524 0.0015210297 0)
(0.99780818 0.0018692795 0)
(0.99793874 0.0021876042 0)
(0.99814498 0.0024316788 0)
(0.99837436 0.0026067327 0)
(0.99860085 0.0027310916 0)
(0.99881878 0.0028145209 0)
(0.99902532 0.0028650962 0)
(0.99921754 0.0028921841 0)
(0.99939537 0.0029030487 0)
(0.99956124 0.0029019366 0)
(0.99971764 0.0028900083 0)
(0.99986518 0.0028672383 0)
(1.0000027 0.0028344942 0)
(1.0001289 0.0027939639 0)
(1.0002438 0.0027484321 0)
(1.0003488 0.00269942 0)
(1.0004446 0.0026470163 0)
(1.0005311 0.0025919611 0)
(1.0006079 0.002535984 0)
(1.0006756 0.0024806398 0)
(1.0007353 0.0024270866 0)
(1.0007879 0.0023762082 0)
(1.0008347 0.00232861 0)
(1.0008767 0.0022844437 0)
(1.0009147 0.0022438761 0)
(1.0009494 0.0022071595 0)
(1.0009817 0.0021742154 0)
(1.0010123 0.0021449806 0)
(1.0010418 0.0021193529 0)
(1.0010709 0.0020969821 0)
(1.0011002 0.0020774254 0)
(1.0011299 0.0020602141 0)
(1.0011603 0.0020450312 0)
(1.0011913 0.002031674 0)
(1.0012233 0.0020199946 0)
(1.0012564 0.0020097701 0)
(1.0012911 0.0020005442 0)
(1.0013277 0.0019918188 0)
(1.0013659 0.0019831004 0)
(1.0014048 0.0019741052 0)
(1.0014442 0.0019648813 0)
(1.0014837 0.0019553025 0)
(1.0015225 0.0019455608 0)
(1.0015595 0.0019355373 0)
(1.0015887 0.0019250414 0)
(1.0015909 0.0019144372 0)
(1.0015227 0.0019034739 0)
(1.0013145 0.0018917091 0)
(1.0007601 0.0018774868 0)
(0.99960065 0.0018551371 0)
(0.9975999 0.0018226577 0)
(0.99456056 0.0017738339 0)
(0.99043101 0.0017093886 0)
(0.98548632 0.0016388769 0)
(0.97997141 0.0015612741 0)
(0.97408448 0.0014781717 0)
(0.96802442 0.0013940097 0)
(0.96192776 0.0013152044 0)
(0.95586742 0.0012432148 0)
(0.94989531 0.0011751434 0)
(0.94407048 0.001112676 0)
(0.93824364 0.001054108 0)
(0.93249146 0.00099677976 0)
(0.92690027 0.00094174153 0)
(0.9214897 0.00089026016 0)
(0.91623896 0.0008421533 0)
(0.91114473 0.00079717383 0)
(0.90621323 0.00075490898 0)
(0.90145145 0.00071510333 0)
(0.89685388 0.00067813453 0)
(0.89240643 0.00064361413 0)
(0.88810545 0.0006110665 0)
(0.88394621 0.00058053512 0)
(0.87991429 0.00055185357 0)
(0.87600925 0.0005250043 0)
(0.87222591 0.00049990367 0)
(0.86855397 0.00047619303 0)
(0.86498347 0.00045375776 0)
(0.86150581 0.00043284904 0)
(0.85812226 0.00041323173 0)
(0.85482952 0.00039558526 0)
(0.85160085 0.00037765591 0)
(0.84847247 0.00036705335 0)
(0.84527183 0.000343358 0)
(0.84252861 0.00039857848 0)
(0.83778691 0.00028927796 0)
(0.99869605 0.00039036768 0)
(0.99866765 0.00044769262 0)
(0.99864756 0.00049922019 0)
(0.99862739 0.0005417711 0)
(0.99860025 0.0005786931 0)
(0.9985632 0.00061489088 0)
(0.99851564 0.00065342977 0)
(0.99845636 0.00069672173 0)
(0.9983829 0.00074891597 0)
(0.99829265 0.00081667101 0)
(0.99818482 0.0009109384 0)
(0.9980635 0.0010474321 0)
(0.99794492 0.0012484029 0)
(0.9978683 0.0015272984 0)
(0.99788176 0.0018502938 0)
(0.99799989 0.0021512101 0)
(0.99818981 0.0023880646 0)
(0.9984057 0.0025613917 0)
(0.99862213 0.0026865128 0)
(0.99883226 0.0027726516 0)
(0.99903299 0.0028267961 0)
(0.99922124 0.0028573131 0)
(0.99939634 0.0028711593 0)
(0.99956014 0.0028725051 0)
(0.99971473 0.0028627681 0)
(0.99986063 0.0028421879 0)
(0.99999685 0.0028116856 0)
(1.0001222 0.0027733374 0)
(1.0002367 0.0027297366 0)
(1.0003413 0.002682445 0)
(1.000437 0.0026317546 0)
(1.0005234 0.0025784139 0)