/*--------------------------------*- C++ -*----------------------------------*\
  =========                 |
  \\      /  F ield         | OpenFOAM: The Open Source CFD Toolbox
   \\    /   O peration     | Website:  https://openfoam.org
    \\  /    A nd           | Version:  12
     \\/     M anipulation  |
\*---------------------------------------------------------------------------*/
FoamFile
{
    format      ascii;
    class       volVectorField;
    location    "1600";
    object      wallShearStress;
}
// * * * * * * * * * * * * * * * * * * * * * * * * * * * * * * * * * * * * * //

dimensions      [0 2 -2 0 0 0 0];

internalField   uniform (0 0 0);

boundaryField
{
    bottom
    {
        type            calculated;
        value           nonuniform List<vector> 
112
(
(-0.0052235472 -3.4938837e-05 0)
(-0.0025562898 -5.6714354e-07 7.1389493e-19)
(-0.0024924263 -6.9550762e-09 7.363754e-19)
(-0.0024963919 -5.1647811e-09 -2.7825632e-19)
(-0.0024466141 -1.2861923e-08 0)
(-0.002382493 -1.3917451e-08 0)
(-0.0023225247 -1.2420992e-08 0)
(-0.0022707771 -1.0629186e-08 0)
(-0.0022259654 -9.1842187e-09 0)
(-0.0021865003 -8.0563075e-09 -8.5862373e-19)
(-0.0021512902 -7.1480621e-09 0)
(-0.0021195548 -6.4529318e-09 -6.8770708e-19)
(-0.0020902035 -5.9123434e-09 6.3010073e-19)
(-0.0020629713 -5.4325803e-09 -5.789747e-19)
(-0.0020376259 -5.0004568e-09 0)
(-0.0020140186 -4.6062116e-09 4.9090477e-19)
(-0.0019919994 -4.2553846e-09 0)
(-0.0019713561 -3.9481564e-09 -2.1038959e-19)
(-0.0019519258 -3.674387e-09 0)
(-0.0019335872 -3.4314248e-09 -3.6570987e-19)
(-0.0019161959 -3.2150178e-09 3.4265393e-19)
(-0.0018996644 -3.0189024e-09 0)
(-0.0018839095 -2.83943e-09 0)
(-0.0018688743 -2.674519e-09 0)
(-0.0018544937 -2.5253535e-09 -2.6914206e-19)
(-0.0018406958 -2.3869052e-09 0)
(-0.0018274629 -2.2585674e-09 0)
(-0.0018147281 -2.1436726e-09 0)
(-0.001802434 -2.0360663e-09 0)
(-0.0017905771 -1.9346192e-09 -2.0620071e-19)
(-0.0017791126 -1.8428876e-09 1.9641278e-19)
(-0.0017679936 -1.7569375e-09 0)
(-0.0017572173 -1.6747936e-09 0)
(-0.0017467596 -1.599853e-09 0)
(-0.0017365743 -1.530783e-09 1.631471e-19)
(-0.0017266518 -1.4638094e-09 0)
(-0.0017169908 -1.40058e-09 0)
(-0.0017075601 -1.3430728e-09 -1.4314769e-19)
(-0.001698331 -1.2886774e-09 0)
(-0.0016893046 -1.237307e-09 0)
(-0.0016804503 -1.1902444e-09 0)
(-0.0016717508 -1.1453432e-09 1.2207333e-19)
(-0.0016632058 -1.1011453e-09 -5.8679419e-20)
(-0.0016548177 -1.0578427e-09 1.1274821e-19)
(-0.001646583 -1.0168108e-09 0)
(-0.0016384827 -9.7867346e-10 0)
(-0.001630503 -9.422227e-10 -1.5063417e-19)
(-0.001622642 -9.0685663e-10 0)
(-0.0016148945 -8.7311959e-10 9.3062977e-20)
(-0.001607249 -8.4126937e-10 0)
(-0.0015996956 -8.1083898e-10 0)
(-0.0015922292 -7.8154575e-10 -4.1648964e-20)
(-0.0015848442 -7.5322829e-10 -4.0141473e-20)
(-0.0015775373 -7.2608865e-10 0)
(-0.0015702988 -7.0021435e-10 -7.463159e-20)
(-0.0015631235 -6.7520122e-10 0)
(-0.0015560079 -6.5107089e-10 0)
(-0.0015489458 -6.2791778e-10 0)
(-0.001541931 -6.0552807e-10 0)
(-0.0015349617 -5.8383437e-10 0)
(-0.0015280321 -5.6309241e-10 0)
(-0.0015211339 -5.4305375e-10 0)
(-0.0015142658 -5.2349071e-10 0)
(-0.0015074248 -5.0455133e-10 0)
(-0.0015006063 -4.8627545e-10 -5.1829062e-20)
(-0.0014938044 -4.6865834e-10 0)
(-0.0014870137 -4.5155074e-10 -2.406474e-20)
(-0.0014802321 -4.3478852e-10 0)
(-0.0014734589 -4.185387e-10 -2.2304955e-20)
(-0.0014666861 -4.0302681e-10 4.2956258e-20)
(-0.0014599046 -3.8800572e-10 4.1356204e-20)
(-0.001453113 -3.7317474e-10 -1.9887939e-20)
(-0.0014463127 -3.5872532e-10 0)
(-0.001439495 -3.4507456e-10 0)
(-0.0014326439 -3.3190336e-10 3.5376379e-20)
(-0.0014257614 -3.1871515e-10 -3.3971123e-20)
(-0.0014188511 -3.0577859e-10 0)
(-0.0014119042 -2.9341235e-10 0)
(-0.0014049087 -2.8147011e-10 -3.0000965e-20)
(-0.0013978607 -2.6965558e-10 0)
(-0.0013907619 -2.581151e-10 0)
(-0.0013836002 -2.4711831e-10 0)
(-0.001376361 -2.3642098e-10 0)
(-0.0013690435 -2.2582686e-10 0)
(-0.0013616441 -2.155621e-10 0)
(-0.0013541466 -2.0568625e-10 0)
(-0.0013465404 -1.9595413e-10 0)
(-0.0013388252 -1.8640459e-10 1.9868325e-20)
(-0.0013309859 -1.773301e-10 -1.8901036e-20)
(-0.0013231739 -1.687116e-10 0)
(-0.0013156485 -1.6064441e-10 0)
(-0.0013084745 -1.5360196e-10 0)
(-0.0013015937 -1.4711183e-10 0)
(-0.0012950135 -1.4071294e-10 0)
(-0.0012887182 -1.3477188e-10 0)
(-0.0012826817 -1.2937823e-10 0)
(-0.0012768799 -1.2439993e-10 0)
(-0.0012712988 -1.1967757e-10 -1.275617e-20)
(-0.0012659291 -1.152292e-10 0)
(-0.0012607551 -1.1115189e-10 0)
(-0.0012557585 -1.0741586e-10 0)
(-0.0012509264 -1.0388177e-10 0)
(-0.0012462531 -1.0049946e-10 0)
(-0.0012417305 -9.7328179e-11 0)
(-0.0012373475 -9.4467957e-11 0)
(-0.0012330866 -9.1835909e-11 0)
(-0.0012289446 -8.9678525e-11 0)
(-0.0012248809 -8.725072e-11 0)
(-0.001220962 -8.7146632e-11 0)
(-0.0012169062 -1.5034303e-10 0)
(-0.0012133242 -1.0224995e-10 -1.098178e-20)
(-0.0012074991 -1.1557081e-10 0)
)
;
    }
    back
    {
        type            empty;
    }
    front
    {
        type            empty;
    }
    inlet
    {
        type            calculated;
        value           uniform (0 0 0);
    }
    outlet
    {
        type            calculated;
        value           uniform (0 0 0);
    }
    top
    {
        type            calculated;
        value           uniform (0 0 0);
    }
    slipsurface
    {
        type            calculated;
        value           uniform (0 0 0);
    }
}


// ************************************************************************* //
