/*--------------------------------*- C++ -*----------------------------------*\
  =========                 |
  \\      /  F ield         | OpenFOAM: The Open Source CFD Toolbox
   \\    /   O peration     | Website:  https://openfoam.org
    \\  /    A nd           | Version:  12
     \\/     M anipulation  |
\*---------------------------------------------------------------------------*/
FoamFile
{
    format      ascii;
    class       volScalarField;
    location    "1600";
    object      yPlus;
}
// * * * * * * * * * * * * * * * * * * * * * * * * * * * * * * * * * * * * * //

dimensions      [];

internalField   uniform 0;

boundaryField
{
    inlet
    {
        type            calculated;
        value           uniform 0;
    }
    top
    {
        type            calculated;
        value           uniform 0;
    }
    outlet
    {
        type            calculated;
        value           uniform 0;
    }
    slipsurface
    {
        type            calculated;
        value           uniform 0;
    }
    bottom
    {
        type            calculated;
        value           nonuniform List<scalar> 
100
(
0.11816731
0.11669048
0.11523943
0.11398392
0.11308554
0.11262851
0.11283126
0.11341982
0.11456413
0.11578095
0.11948172
0.11316807
8.0948637
41.976247
67.274021
83.765043
93.457219
98.416406
100.96486
100.87481
100.33463
99.325312
98.070888
96.728839
95.352323
93.968403
92.603227
91.293984
90.079208
88.945016
87.892845
86.929319
86.058821
85.281192
84.591834
83.983351
83.446053
82.970569
82.550661
82.181663
81.856951
81.568427
81.308877
81.071025
80.851783
80.641639
80.438692
80.239697
80.041444
79.841814
79.638478
79.428644
79.210468
78.983829
78.749966
78.510604
78.267422
78.022144
77.776315
77.530954
77.286562
77.043395
76.801792
76.562332
76.325586
76.091873
75.861502
75.63471
75.411278
75.190622
74.972308
74.756293
74.5427
74.331601
74.123183
73.917649
73.714816
73.514269
73.315741
73.119234
72.924853
72.732768
72.543112
72.355705
72.17019
71.986452
71.804499
71.624468
71.446499
71.270401
71.095887
70.922877
70.751436
70.581476
70.413204
70.245004
70.080197
69.905594
69.75752
69.486162
)
;
    }
    frontandback
    {
        type            empty;
    }
}


// ************************************************************************* //
