#      distance             U_x             U_y             U_z wallShearStr... wallShearStr... wallShearStr...               p         epsilon               k             nut
              0      0.99977233               0               0               0               0               0     0.005912667    0.0037419254   8.8611817e-05   1.8885602e-07
   0.0021021021      0.99976512               0               0               0               0               0    0.0059431723    0.0037417644   8.8594797e-05   1.8879161e-07
   0.0042042042       0.9997579               0               0               0               0               0    0.0059736776    0.0037416034   8.8577777e-05   1.8872719e-07
   0.0063063063      0.99975069               0               0               0               0               0     0.006004183    0.0037414425   8.8560757e-05   1.8866277e-07
   0.0084084084      0.99974347               0               0               0               0               0    0.0060346883    0.0037412815   8.8543737e-05   1.8859836e-07
    0.010510511      0.99973493               0               0               0               0               0    0.0060693544    0.0037411585   8.8528183e-05    1.885383e-07
    0.012612613      0.99972558               0               0               0               0               0    0.0061066047    0.0037410591   8.8513538e-05   1.8848095e-07
    0.014714715      0.99971623               0               0               0               0               0     0.006143855    0.0037409597   8.8498894e-05    1.884236e-07
    0.016816817      0.99970687               0               0               0               0               0    0.0061811053    0.0037408603    8.848425e-05   1.8836625e-07
    0.018918919      0.99969752               0               0               0               0               0    0.0062183555    0.0037407609   8.8469606e-05   1.8830889e-07
    0.021021021       0.9996878               0               0               0               0               0    0.0062566633    0.0037406698   8.8455233e-05   1.8825229e-07
    0.023123123      0.99967563               0               0               0               0               0    0.0063020801     0.003740634   8.8442681e-05   1.8820068e-07
    0.025225225      0.99966345               0               0               0               0               0    0.0063474969    0.0037405982    8.843013e-05   1.8814906e-07
    0.027327327      0.99965128               0               0               0               0               0    0.0063929137    0.0037405625   8.8417578e-05   1.8809745e-07
    0.029429429      0.99963911               0               0               0               0               0    0.0064383305    0.0037405267   8.8405027e-05   1.8804584e-07
    0.031531532      0.99962598               0               0               0               0               0    0.0064862931    0.0037405086   8.8392975e-05   1.8799547e-07
    0.033633634      0.99961007               0               0               0               0               0    0.0065416916    0.0037405422   8.8382381e-05   1.8794874e-07
    0.035735736      0.99959416               0               0               0               0               0    0.0065970901    0.0037405757   8.8371788e-05     1.87902e-07
    0.037837838      0.99957825               0               0               0               0               0    0.0066524887    0.0037406093   8.8361195e-05   1.8785527e-07
     0.03993994      0.99956234               0               0               0               0               0    0.0067078872    0.0037406429   8.8350602e-05   1.8780853e-07
    0.042042042      0.99954183               0               0               0               0               0    0.0067745554    0.0037407484   8.8341788e-05   1.8776578e-07
    0.044144144      0.99952089               0               0               0               0               0    0.0068422798    0.0037408606   8.8333141e-05   1.8772339e-07
    0.046246246      0.99949995               0               0               0               0               0    0.0069100042    0.0037409729   8.8324494e-05     1.87681e-07
    0.048348348      0.99947876               0               0               0               0               0    0.0069782968    0.0037410885   8.8315922e-05   1.8763877e-07
     0.05045045      0.99945102               0               0               0               0               0    0.0070615047    0.0037412926   8.8309316e-05   1.8760047e-07
    0.052552553      0.99942327               0               0               0               0               0    0.0071447127    0.0037414967    8.830271e-05   1.8756217e-07
    0.054654655      0.99939553               0               0               0               0               0    0.0072279206    0.0037417007   8.8296104e-05   1.8752388e-07
    0.056756757       0.9993624               0               0               0               0               0    0.0073221431    0.0037419668   8.8290767e-05   1.8748788e-07
    0.058858859      0.99932503               0               0               0               0               0    0.0074250492    0.0037422817    8.828643e-05   1.8745369e-07
    0.060960961      0.99928767               0               0               0               0               0    0.0075279553    0.0037425966   8.8282093e-05   1.8741949e-07
    0.063063063      0.99924469               0               0               0               0               0    0.0076419566    0.0037429693   8.8278871e-05   1.8738715e-07
    0.065165165      0.99919412               0               0               0               0               0    0.0077709582    0.0037434201   8.8277158e-05   1.8735732e-07
    0.067267267      0.99914355               0               0               0               0               0    0.0078999598    0.0037438709   8.8275444e-05   1.8732748e-07
    0.069369369      0.99908048               0               0               0               0               0    0.0080491218    0.0037444268   8.8275695e-05   1.8730074e-07
    0.071471471      0.99900849               0               0               0               0               0    0.0082126579    0.0037450575   8.8277347e-05    1.872762e-07
    0.073573574       0.9989365               0               0               0               0               0     0.008376194    0.0037456883   8.8278998e-05   1.8725166e-07
    0.075675676      0.99883737               0               0               0               0               0    0.0085910468    0.0037465723   8.8284839e-05   1.8723226e-07
    0.077777778      0.99873793               0               0               0               0               0    0.0088064823    0.0037474592   8.8290727e-05   1.8721292e-07
     0.07987988      0.99859913               0               0               0               0               0    0.0090634744    0.0037484558   8.8300664e-05   1.8720527e-07
    0.081981982      0.99843387               0               0               0               0               0    0.0093484057    0.0037495263   8.8313322e-05   1.8720549e-07
    0.084084084       0.9982438               0               0               0               0               0    0.0096887554    0.0037516032   8.8332078e-05   1.8718144e-07
    0.086186186      0.99801195               0               0               0               0               0     0.010122457    0.0037553755   8.8361106e-05   1.8711651e-07
    0.088288288      0.99766303               0  -9.8991694e-22               0               0               0     0.010600809    0.0037550927   8.8380416e-05   1.8721438e-07
     0.09039039      0.99700735               0  -4.5739646e-21               0               0               0     0.011196169    0.0037441837   8.8374263e-05   1.8773886e-07
    0.092492492      0.99644456               0   1.5570571e-17               0               0               0     0.012128926    0.0038240382   8.8587382e-05   1.8554418e-07
    0.094594595      0.99612674               0   7.2224633e-17               0               0               0     0.013951353    0.0041432231   8.9378694e-05   1.7617944e-07
    0.096696697      0.90818252               0    1.098295e-16  -0.00068841136  -3.1503598e-06               0     0.015351498         5.91597    8.212122e-05   1.5327815e-07
    0.098798799      0.64727296               0   1.0983326e-16   -0.0027356749  -1.2519201e-05               0     0.015918103       23.496496   5.8976283e-05   1.0365711e-07
      0.1009009      0.38631114               0   8.5170998e-17   -0.0045751713   -1.789818e-05  -1.6500152e-18     0.015135191       42.830966   3.5479409e-05    5.839293e-08
       0.103003      0.12527966               0   2.7620725e-17   -0.0061376447  -1.7957341e-05  -5.5000508e-18     0.012552923       64.504028   1.1513288e-05   1.8937887e-08
     0.10510511               0               0               0   -0.0065702025  -1.3165509e-05  -5.8951375e-18     0.010285903       76.102022   1.1298355e-08   1.6797408e-12
     0.10720721               0               0               0   -0.0059600087     -3.8969e-06  -3.1017967e-18    0.0083098109       78.402158   1.1933803e-08   1.4440779e-12
     0.10930931               0               0               0   -0.0055850762  -1.2771115e-07  -2.8238185e-19     0.007206845       77.229704   1.1574378e-08   1.3036697e-12
     0.11141141               0               0               0    -0.005369537  -8.4467151e-08   2.5546986e-18    0.0066954363       73.704514   1.0540911e-08   1.2277981e-12
     0.11351351               0               0               0   -0.0051978886  -6.3442296e-08   1.7280228e-18    0.0063252919       70.440824   9.6321594e-09   1.1685968e-12
     0.11561562               0               0               0   -0.0050492411  -5.4061405e-08  -1.0186481e-18    0.0060291773       67.314173   8.7887655e-09   1.1181317e-12
     0.11771772               0               0               0   -0.0049257404  -4.7406438e-08  -1.1905169e-18    0.0057595517        64.65732   8.1091919e-09   1.0769299e-12
     0.11981982               0               0               0   -0.0048130417  -4.1922424e-08  -2.5634932e-19    0.0055013046       62.202273   7.4999891e-09   1.0397074e-12
     0.12192192               0               0               0   -0.0047155181  -3.7882943e-08               0    0.0052883012       60.085724   6.9996652e-09   1.0079828e-12
     0.12402402               0               0               0   -0.0046237337  -3.4389782e-08               0    0.0050924087       58.097193   6.5405189e-09    9.783374e-13
     0.12612613               0               0               0   -0.0045429423  -3.1536248e-08               0    0.0049357511       56.366753   6.1579281e-09    9.525876e-13
     0.12822823               0               0               0    -0.004466141  -2.8914874e-08               0    0.0047933343       54.729991   5.8031241e-09   9.2825175e-13
     0.13033033               0               0               0   -0.0043979889  -2.6684996e-08               0    0.0046725898       53.294609   5.5035472e-09   9.0690377e-13
     0.13243243               0               0               0   -0.0043331478  -2.4604984e-08               0    0.0045601417       51.936318   5.2251116e-09   8.8669955e-13
     0.13453453               0               0               0   -0.0042749077  -2.2831645e-08  -3.9856601e-19    0.0044579501       50.729065   4.9854874e-09   8.6872787e-13
     0.13663664               0               0               0   -0.0042195876  -2.1193974e-08  -9.7345021e-19    0.0043602959        49.58863   4.7630326e-09   8.5174382e-13
     0.13873874               0               0               0   -0.0041690995   -1.977865e-08  -1.1784744e-18    0.0042709641       48.557213   4.5671314e-09   8.3636687e-13
     0.14084084               0               0               0   -0.0041212899  -1.8486581e-08  -1.1784745e-18    0.0041862458       47.586228   4.3859497e-09   8.2188077e-13
     0.14294294               0               0               0   -0.0040769356  -1.7338632e-08  -1.1039793e-18    0.0041097379       46.691989   4.2225929e-09    8.085268e-13
     0.14504505               0               0               0   -0.0040351601  -1.6298248e-08  -9.7388408e-19    0.0040393579        45.85503   4.0725398e-09    7.960178e-13
     0.14714715               0               0               0   -0.0039957672  -1.5349981e-08  -7.2336304e-19    0.0039743089       45.070108   3.9340532e-09   7.8427855e-13
     0.14924925               0               0               0   -0.0039589522  -1.4501387e-08  -3.4253582e-19    0.0039150282       44.341491   3.8080823e-09    7.733722e-13
     0.15135135               0               0               0   -0.0039236297  -1.3709306e-08  -6.9364617e-20    0.0038577786       43.645111   3.6890076e-09   7.6294241e-13
     0.15345345               0               0               0   -0.0038908969   -1.301529e-08   1.6995817e-20    0.0038040534       43.004669   3.5818997e-09   7.5333957e-13
     0.15555556               0               0               0   -0.0038589351  -1.2348031e-08  -1.1257136e-21    0.0037515728       42.380735   3.4782042e-09   7.4398038e-13
     0.15765766               0               0               0   -0.0038295881   -1.177153e-08  -3.7363015e-19    0.0037033137       41.812797   3.3860825e-09    7.354476e-13
     0.15975976               0               0               0   -0.0038004306  -1.1200884e-08  -6.8222699e-19    0.0036554377       41.248864   3.2947616e-09   7.2697407e-13
     0.16186186               0               0               0   -0.0037739653  -1.0713427e-08  -8.2698281e-20    0.0036130051        40.74186   3.2148199e-09   7.1934256e-13
     0.16396396               0               0               0   -0.0037475001  -1.0225971e-08   5.1683043e-19    0.0035705726       40.234857   3.1348782e-09   7.1171105e-13
     0.16606607               0               0               0   -0.0037232061  -9.8029753e-09   5.8945449e-19    0.0035317742       39.773258   3.0637371e-09    7.047522e-13
     0.16816817               0               0               0   -0.0036992115  -9.3888643e-09   5.8945455e-19    0.0034934767       39.317918   2.9938089e-09   6.9788606e-13
     0.17027027               0               0               0   -0.0036766317  -9.0147858e-09   3.4102593e-19    0.0034575443       38.891897   2.9294072e-09   6.9145455e-13
     0.17237237               0               0               0    -0.003654761  -8.6607709e-09  -3.1911566e-20    0.0034227972        38.48057   2.8677751e-09   6.8524085e-13
     0.17447447               0               0               0   -0.0036336783  -8.3274883e-09  -2.4574378e-19    0.0033894162       38.085413   2.8091112e-09   6.7926727e-13
     0.17657658               0               0               0   -0.0036136547  -8.0220693e-09  -2.4574381e-19    0.0033578714       37.711988   2.7544366e-09   6.7361637e-13
     0.17867868               0               0               0   -0.0035938888   -7.723057e-09  -2.5759238e-19    0.0033267796       37.343805   2.7007006e-09   6.6804343e-13
     0.18078078               0               0               0   -0.0035754829  -7.4578441e-09  -3.3194953e-19    0.0032980776       37.003275    2.651916e-09   6.6288174e-13
     0.18288288               0               0               0   -0.0035570769  -7.1926313e-09  -4.0630669e-19    0.0032693756       36.662745   2.6031315e-09   6.5772006e-13
     0.18498498               0               0               0   -0.0035399019  -6.9564763e-09  -2.7344523e-19    0.0032427467       36.347025   2.5586864e-09   6.5292794e-13
     0.18708709               0               0               0   -0.0035229217  -6.7249232e-09  -1.0776645e-19     0.003216446       36.035233   2.5149285e-09   6.4819435e-13
     0.18918919               0               0               0   -0.0035066205  -6.5086096e-09    6.383939e-20    0.0031912313       35.737021   2.4734937e-09   6.4366324e-13
     0.19129129               0               0               0   -0.0034909038  -6.3054156e-09   2.4054775e-19    0.0031669513       35.450499   2.4340587e-09   6.3930646e-13
     0.19339339               0               0               0   -0.0034753903   -6.106523e-09   3.5623034e-19    0.0031430099       35.168011   2.3952996e-09   6.3500991e-13
      0.1954955               0               0               0   -0.0034607995  -5.9271539e-09   1.9492114e-19    0.0031206047       34.903835   2.3596081e-09   6.3098677e-13
      0.1975976               0               0               0   -0.0034462086  -5.7477848e-09   3.3611938e-20    0.0030981996        34.63966   2.3239166e-09   6.2696364e-13
      0.1996997               0               0               0   -0.0034324173  -5.5844878e-09               0    0.0030770387       34.391229   2.2908099e-09     6.23176e-13
      0.2018018               0               0               0   -0.0034188364  -5.4254213e-09               0    0.0030562053       34.146943   2.2583836e-09   6.1945035e-13
      0.2039039               0               0               0   -0.0034055914  -5.2728385e-09  -4.3646658e-20    0.0030359165       33.909225   2.2270149e-09   6.1582304e-13
     0.20600601               0               0               0   -0.0033929194   -5.131321e-09  -1.6178139e-19     0.003016557       33.682715   2.1974513e-09   6.1236357e-13
     0.20810811               0               0               0   -0.0033802474  -4.9898034e-09  -2.7991612e-19    0.0029971975       33.456205   2.1678878e-09   6.0890409e-13
     0.21021021               0               0               0    -0.003368325   -4.862044e-09  -2.9021594e-19    0.0029790261       33.244253   2.1406262e-09    6.056629e-13
     0.21231231               0               0               0   -0.0033564742  -4.7355987e-09  -2.9021598e-19    0.0029609681       33.033692   2.1135846e-09   6.0244256e-13
     0.21441441               0               0               0    -0.003344937  -4.6146424e-09  -2.4198354e-19    0.0029433349       32.829179   2.0874827e-09   5.9931306e-13
     0.21651652               0               0               0   -0.0033338321  -4.5012541e-09  -1.2725196e-19    0.0029262872       32.633007   2.0626764e-09    5.963088e-13
     0.21861862               0               0               0   -0.0033227272  -4.3878657e-09  -1.2520373e-20    0.0029092395       32.436834   2.0378701e-09   5.9330454e-13
     0.22072072               0               0               0   -0.0033122276  -4.2846415e-09               0    0.0028931219       32.252272   2.0148369e-09   5.9047474e-13
     0.22282282               0               0               0   -0.0033018022  -4.1826623e-09               0    0.0028771182       32.069132    1.992021e-09    5.876663e-13
     0.22492492               0               0               0   -0.0032915772  -4.0838875e-09               0    0.0028614508       31.889814   1.9697792e-09   5.8491538e-13
     0.22702703               0               0               0   -0.0032817729  -3.9918334e-09               0    0.0028464885       31.718511   1.9487418e-09   5.8228507e-13
     0.22912913               0               0               0   -0.0032719686  -3.8997793e-09               0    0.0028315263       31.547208   1.9277044e-09   5.7965476e-13
     0.23123123               0               0               0   -0.0032625719   -3.813977e-09  -5.7481543e-20    0.0028171136       31.383623   1.9078083e-09   5.7714078e-13
     0.23333333               0               0               0   -0.0032533377   -3.730668e-09  -1.3788648e-19    0.0028029201       31.223115   1.8883674e-09    5.746732e-13
     0.23543544               0               0               0   -0.0032441379  -3.6478684e-09  -2.0813334e-19    0.0027887735       31.063255   1.8690206e-09   5.7221538e-13
     0.23753754               0               0               0   -0.0032354282  -3.5723401e-09  -1.3342276e-19    0.0027752974       30.912627   1.8510183e-09   5.6989681e-13
     0.23963964               0               0               0   -0.0032267185  -3.4968118e-09  -5.8712183e-20    0.0027618214       30.761999   1.8330159e-09   5.6757823e-13
     0.24174174               0               0               0   -0.0032181892  -3.4238453e-09   1.7161363e-20    0.0027486558       30.614751   1.8154985e-09   5.6531068e-13
     0.24384384               0               0               0    -0.003209963  -3.3551844e-09   9.4989501e-20     0.002736012       30.473183   1.7987962e-09   5.6312887e-13
     0.24594595               0               0               0   -0.0032017368  -3.2865234e-09   1.7281764e-19    0.0027233682       30.331616   1.7820938e-09   5.6094706e-13
     0.24804805               0               0               0   -0.0031937951  -3.2217266e-09   1.5520076e-19    0.0027111557       30.195347   1.7661408e-09   5.5884536e-13
     0.25015015               0               0               0   -0.0031860162  -3.1591422e-09   8.2935158e-20    0.0026991902       30.062111   1.7506169e-09   5.5678953e-13
     0.25225225               0               0               0   -0.0031782373  -3.0965579e-09   1.0669552e-20    0.0026872247       29.928875   1.7350929e-09    5.547337e-13
     0.25435435               0               0               0   -0.0031708121   -3.038625e-09               0    0.0026756728       29.802192   1.7204826e-09   5.5277705e-13
     0.25645646               0               0               0   -0.0031634482  -2.9814979e-09               0    0.0026641925       29.676642   1.7060306e-09   5.5083759e-13
     0.25855856               0               0               0   -0.0031560922  -2.9244719e-09   1.1558515e-21    0.0026527232        29.55124   1.6915988e-09   5.4890035e-13
     0.26066066               0               0               0   -0.0031491138  -2.8722571e-09   5.7279075e-20    0.0026417733       29.432799   1.6781246e-09   5.4706854e-13
     0.26276276               0               0               0   -0.0031421353  -2.8200423e-09    1.134023e-19    0.0026308235       29.314358   1.6646504e-09   5.4523673e-13
     0.26486486               0               0               0   -0.0031352066  -2.7684355e-09   1.6173958e-19    0.0026199586       29.196831   1.6513003e-09   5.4341876e-13
     0.26696697               0               0               0   -0.0031285868  -2.7206041e-09   1.6173961e-19    0.0026096216       29.084975     1.63872e-09   5.4168675e-13
     0.26906907               0               0               0    -0.003121967  -2.6727727e-09   1.6173965e-19    0.0025992846       28.973119   1.6261397e-09   5.3995474e-13
     0.27117117               0               0               0   -0.0031154158  -2.6257469e-09   1.5065522e-19    0.0025890463       28.862514   1.6137272e-09   5.3824172e-13
     0.27327327               0               0               0   -0.0031091307  -2.5818491e-09   9.6527304e-20    0.0025791912        28.75677   1.6019659e-09   5.3660249e-13
     0.27537538               0               0               0   -0.0031028457  -2.5379514e-09    4.239939e-20    0.0025693362       28.651025   1.5902047e-09   5.3496325e-13
     0.27747748               0               0               0   -0.0030966285  -2.4948275e-09  -9.8698616e-21    0.0025595566       28.546513   1.5786065e-09   5.3334275e-13
     0.27957958               0               0               0   -0.0030906565  -2.4545011e-09  -5.5419926e-20    0.0025500493       28.446455   1.5675979e-09   5.3178994e-13
     0.28168168               0               0               0   -0.0030846845  -2.4141747e-09  -1.0096999e-19    0.0025405421       28.346398   1.5565893e-09   5.3023714e-13
     0.28378378               0               0               0   -0.0030787629  -2.3744073e-09  -1.3867395e-19    0.0025310984       28.247253      1.5457e-09   5.2869822e-13
     0.28588589               0               0               0    -0.003073084  -2.3373261e-09  -1.3867399e-19    0.0025219605       28.152498   1.5353845e-09   5.2722604e-13
     0.28798799               0               0               0    -0.003067405   -2.300245e-09  -1.3867402e-19    0.0025128226       28.057743   1.5250689e-09   5.2575385e-13
     0.29009009               0               0               0   -0.0030617451  -2.2633668e-09  -1.3564053e-19    0.0025037145        27.96333   1.5147976e-09   5.2428688e-13
     0.29219219               0               0               0   -0.0030563409  -2.2292181e-09  -9.1812408e-20    0.0024950073       27.873525   1.5051213e-09      5.2289e-13
     0.29429429               0               0               0   -0.0030509367  -2.1950694e-09  -4.7984286e-20       0.0024863        27.78372   1.4954451e-09   5.2149312e-13
      0.2963964               0               0               0   -0.0030455324  -2.1609207e-09  -4.1561637e-21    0.0024775928       27.693915   1.4857689e-09   5.2009624e-13
      0.2984985               0               0               0   -0.0030403618  -2.1291747e-09               0    0.0024692485         27.6083   1.4766274e-09   5.1876317e-13
      0.3006006               0               0               0   -0.0030352157  -2.0976805e-09               0    0.0024609423       27.523124    1.467542e-09   5.1743679e-13
      0.3027027               0               0               0   -0.0030300696  -2.0661862e-09               0    0.0024526361       27.437947   1.4584565e-09   5.1611041e-13
      0.3048048               0               0               0    -0.003025088   -2.036335e-09   2.3466388e-20    0.0024445265       27.355709   1.4497417e-09   5.1482883e-13
     0.30690691               0               0               0   -0.0030201848  -2.0072654e-09   5.8097683e-20    0.0024365106       27.274868   1.4412033e-09   5.1356857e-13
     0.30900901               0               0               0   -0.0030152815  -1.9781958e-09   9.2728978e-20    0.0024284946       27.194027   1.4326649e-09   5.1230832e-13
     0.31111111               0               0               0   -0.0030104661  -1.9499795e-09   1.0785713e-19    0.0024205716       27.114748   1.4243213e-09   5.1107189e-13
     0.31321321               0               0               0   -0.0030057917  -1.9231324e-09   9.1682076e-20     0.002412798       27.037975   1.4162904e-09   5.0987371e-13
     0.31531532               0               0               0   -0.0030011172  -1.8962854e-09   7.5507022e-20    0.0024050244       26.961202   1.4082595e-09   5.0867554e-13
     0.31741742               0               0               0   -0.0029964473  -1.8694815e-09   5.9611257e-20     0.002397257        26.88451   1.4002386e-09    5.074786e-13
     0.31951952               0               0               0   -0.0029919886   -1.844668e-09   5.6621076e-20    0.0023897779        26.81156   1.3926793e-09   5.0633877e-13
     0.32162162               0               0               0   -0.0029875299  -1.8198545e-09   5.3630896e-20    0.0023822989       26.738609     1.38512e-09   5.0519893e-13
     0.32372372               0               0               0   -0.0029830713   -1.795041e-09   5.0640716e-20    0.0023748198       26.665659   1.3775607e-09    5.040591e-13
     0.32582583               0               0               0   -0.0029787321  -1.7713137e-09   5.8495891e-20    0.0023675424       26.594817   1.3702587e-09   5.0295149e-13
     0.32792793               0               0               0   -0.0029744771  -1.7483521e-09   7.3994119e-20     0.002360407       26.525461   1.3631382e-09   5.0186658e-13
     0.33003003               0               0               0   -0.0029702222  -1.7253904e-09   8.9492347e-20    0.0023532715       26.456105   1.3560176e-09   5.0078167e-13
     0.33213213               0               0               0   -0.0029659821  -1.7025595e-09   1.0156774e-19    0.0023461558        26.38701   1.3489285e-09   4.9970075e-13
     0.33423423               0               0               0   -0.0029619198  -1.6812947e-09   7.2637371e-20    0.0023392754       26.321039   1.3422166e-09   4.9866762e-13
     0.33633634               0               0               0   -0.0029578575  -1.6600299e-09   4.3706998e-20     0.002332395       26.255068   1.3355048e-09   4.9763449e-13
     0.33843844               0               0               0   -0.0029537953  -1.6387651e-09   1.4776626e-20    0.0023255147       26.189097   1.3287929e-09   4.9660137e-13
     0.34054054               0               0               0   -0.0029498222  -1.6182664e-09  -1.8076309e-20    0.0023187219       26.124687   1.3222677e-09   4.9559215e-13
     0.34264264               0               0               0   -0.0029459424  -1.5985677e-09  -5.5024431e-20    0.0023120207       26.061908   1.3159373e-09    4.946079e-13
     0.34474474               0               0               0   -0.0029420625   -1.578869e-09  -9.1972552e-20    0.0023053195       25.999128   1.3096069e-09   4.9362365e-13
     0.34684685               0               0               0   -0.0029381827  -1.5591704e-09  -1.2892067e-19    0.0022986183       25.936349   1.3032764e-09    4.926394e-13
     0.34894895               0               0               0   -0.0029344445  -1.5406556e-09  -1.3558097e-19    0.0022920682        25.87604   1.2972382e-09     4.91693e-13
     0.35105105               0               0               0   -0.0029307375  -1.5224013e-09  -1.3558103e-19    0.0022855515       25.816274   1.2912642e-09   4.9075492e-13
     0.35315315               0               0               0   -0.0029270305  -1.5041469e-09  -1.3558108e-19    0.0022790347       25.756508   1.2852902e-09   4.8981683e-13