/*--------------------------------*- C++ -*----------------------------------*\
  =========                 |
  \\      /  F ield         | OpenFOAM: The Open Source CFD Toolbox
   \\    /   O peration     | Website:  https://openfoam.org
    \\  /    A nd           | Version:  12
     \\/     M anipulation  |
\*---------------------------------------------------------------------------*/
FoamFile
{
    format      ascii;
    class       volScalarField;
    location    "300";
    object      nuTilda;
}
// * * * * * * * * * * * * * * * * * * * * * * * * * * * * * * * * * * * * * //

dimensions      [0 2 -1 0 0 0 0];

internalField   nonuniform List<scalar> 
7480
(
1.7180434e-06
1.4389666e-06
1.3086739e-06
1.277993e-06
1.3001969e-06
1.3627832e-06
1.4686807e-06
1.6268779e-06
1.8534415e-06
2.1731806e-06
2.6187174e-06
3.2262661e-06
4.016917e-06
4.9544061e-06
5.9137301e-06
6.7312693e-06
7.3023946e-06
7.6167455e-06
7.7514019e-06
7.7222013e-06
7.6319523e-06
7.5046525e-06
7.3602896e-06
7.2200024e-06
7.1136178e-06
7.0467305e-06
7.010997e-06
6.9956877e-06
6.9932216e-06
6.9993731e-06
7.0104147e-06
7.0228066e-06
7.0346701e-06
7.0133643e-06
6.9772398e-06
6.9414226e-06
6.9102737e-06
6.8846034e-06
6.8633629e-06
6.8447582e-06
6.8272534e-06
6.8100548e-06
6.7929781e-06
6.7765187e-06
6.7635592e-06
6.7619538e-06
6.801091e-06
6.951187e-06
7.3242982e-06
7.9590641e-06
8.5880234e-06
9.0182653e-06
9.3329525e-06
9.5475821e-06
9.6840702e-06
9.7685232e-06
9.8230007e-06
9.8620651e-06
9.8922129e-06
9.9171876e-06
9.9386616e-06
9.9574869e-06
9.9743328e-06
9.9898273e-06
1.0004361e-05
1.0018268e-05
1.0031925e-05
1.0045553e-05
1.0059257e-05
1.0073137e-05
1.008732e-05
1.0101942e-05
1.0117132e-05
1.013301e-05
1.0149693e-05
1.0167292e-05
1.0185917e-05
1.0205673e-05
1.0226658e-05
1.0248957e-05
1.0272643e-05
1.0297759e-05
1.0324219e-05
1.0350992e-05
1.0365724e-05
1.0106378e-05
4.3238064e-06
4.0198228e-06
4.0424655e-06
4.0586109e-06
4.0684287e-06
4.0760397e-06
4.0812341e-06
4.0844829e-06
4.086288e-06
4.0870274e-06
4.0869219e-06
4.0862018e-06
4.0849171e-06
4.0807914e-06
1.9517186e-06
1.9008921e-06
1.8454369e-06
1.790358e-06
1.737274e-06
1.6874558e-06
1.6404349e-06
1.6035395e-06
1.5673893e-06
1.579012e-06
1.616148e-06
1.6858737e-06
1.7988845e-06
1.9723267e-06
2.2256852e-06
2.5729705e-06
3.0352605e-06
3.595951e-06
4.2419125e-06
4.9678713e-06
5.7656671e-06
6.536192e-06
7.2488679e-06
7.9057145e-06
8.5030338e-06
9.0405178e-06
9.5216422e-06
9.9527617e-06
1.0345516e-05
1.0711694e-05
1.1054492e-05
1.1373824e-05
1.166603e-05
1.1925397e-05
1.2154936e-05
1.2363894e-05
1.2562155e-05
1.2763871e-05
1.2974067e-05
1.3191627e-05
1.3413413e-05
1.3636909e-05
1.3860097e-05
1.4080617e-05
1.4299552e-05
1.4500018e-05
1.4692427e-05
1.4905548e-05
1.5184647e-05
1.5557461e-05
1.5965008e-05
1.6335311e-05
1.6654079e-05
1.6920565e-05
1.7144672e-05
1.7337216e-05
1.750717e-05
1.7662489e-05
1.7808894e-05
1.7950386e-05
1.8087231e-05
1.8219077e-05
1.8346181e-05
1.8469374e-05
1.8588883e-05
1.870527e-05
1.8819547e-05
1.893214e-05
1.9043077e-05
1.9152445e-05
1.9260458e-05
1.9367383e-05
1.9473484e-05
1.9579002e-05
1.9684173e-05
1.9789221e-05
1.9894358e-05
1.9999792e-05
2.0105711e-05
2.0212282e-05
2.0319652e-05
2.0427909e-05
2.053689e-05
2.0644707e-05
2.0729143e-05
2.0547812e-05
1.7381652e-05
1.5978274e-05
1.4923277e-05
1.4266657e-05
1.3831586e-05
1.3537099e-05
1.3329538e-05
1.3179389e-05
1.3068261e-05
1.2984389e-05
1.2919713e-05
1.2869121e-05
1.2828519e-05
1.2795049e-05
1.9764203e-06
1.958604e-06
1.9388406e-06
1.9181276e-06
1.8967492e-06
1.8742915e-06
1.85056e-06
1.8255022e-06
1.7990903e-06
1.7731044e-06
1.7484223e-06
1.726077e-06
1.7074413e-06
1.6938996e-06
1.6811389e-06
1.6827685e-06
1.6951003e-06
1.7395289e-06
1.8242816e-06
1.9591734e-06
2.1594819e-06
2.4441229e-06
2.8255804e-06
3.3324637e-06
3.9458524e-06
4.6598848e-06
5.4846867e-06
6.3682784e-06
7.2696096e-06
8.1581528e-06
9.0092362e-06
9.8030582e-06
1.051379e-05
1.1156697e-05
1.1761147e-05
1.2345807e-05
1.2913293e-05
1.3462603e-05
1.3988619e-05
1.4494554e-05
1.4984352e-05
1.5461723e-05
1.5927229e-05
1.6379212e-05
1.6818092e-05
1.7241135e-05
1.7646856e-05
1.8038632e-05
1.8435718e-05
1.8849603e-05
1.9274082e-05
1.9697068e-05
2.0101669e-05
2.0483974e-05
2.084637e-05
2.1189989e-05
2.151548e-05
2.1827388e-05
2.2131324e-05
2.2430738e-05
2.2722616e-05
2.3005816e-05
2.3280566e-05
2.3547896e-05
2.380734e-05
2.4059933e-05
2.4307256e-05
2.4549477e-05
2.4786346e-05
2.5017869e-05
2.5244259e-05
2.5465778e-05
2.5682686e-05
2.5895217e-05
2.6103595e-05
2.6308038e-05
2.6508758e-05
2.6705962e-05
2.6899852e-05
2.7090619e-05
2.7278446e-05
2.7463483e-05
2.7645699e-05
2.7823982e-05
2.7984639e-05
2.8003895e-05
2.6872445e-05
2.6277407e-05
2.5824544e-05
2.5548411e-05
2.5381036e-05
2.5286216e-05
2.523505e-05
2.5210331e-05
2.5201388e-05
2.5202205e-05
2.5207078e-05
2.521806e-05
2.5218303e-05
2.5252319e-05
1.9837081e-06
1.9747575e-06
1.9649929e-06
1.9547778e-06
1.9441931e-06
1.9332415e-06
1.9219228e-06
1.9101296e-06
1.8978303e-06
1.8848723e-06
1.8711933e-06
1.8567219e-06
1.8414545e-06
1.8256253e-06
1.8098497e-06
1.794482e-06
1.7796991e-06
1.7661326e-06
1.7551497e-06
1.7473638e-06
1.7431085e-06
1.746475e-06
1.7585653e-06
1.7900396e-06
1.8579585e-06
1.9733436e-06
2.1535501e-06
2.4196668e-06
2.7937752e-06
3.3120744e-06
3.9819568e-06
4.7878752e-06
5.726363e-06
6.7405166e-06
7.7794447e-06
8.8062673e-06
9.7969801e-06
1.0739769e-05
1.1634113e-05
1.2485957e-05
1.3303799e-05
1.4096476e-05
1.4859637e-05
1.5593073e-05
1.6313757e-05
1.7023634e-05
1.7711306e-05
1.8374357e-05
1.9018688e-05
1.9649042e-05
2.0267532e-05
2.0873413e-05
2.1465804e-05
2.2042908e-05
2.26025e-05
2.3143092e-05
2.3664272e-05
2.417541e-05
2.4680544e-05
2.5180548e-05
2.5665739e-05
2.613769e-05
2.6597517e-05
2.7046531e-05
2.7482744e-05
2.7909215e-05
2.8327669e-05
2.8737279e-05
2.9137653e-05
2.9528925e-05
2.9911351e-05
3.0285184e-05
3.0650646e-05
3.1007934e-05
3.1357227e-05
3.1698691e-05
3.2032478e-05
3.2358736e-05
3.2677605e-05
3.2989214e-05
3.3293693e-05
3.3591159e-05
3.3881629e-05
3.4164801e-05
3.4435165e-05
3.4651643e-05
3.4507785e-05
3.4475606e-05
3.4464555e-05
3.4504928e-05
3.4585184e-05
3.4695925e-05
3.4825195e-05
3.4964109e-05
3.5106433e-05
3.5249328e-05
3.5387256e-05
3.5529955e-05
3.5635984e-05
3.5848962e-05
1.987271e-06
1.9819477e-06
1.9762022e-06
1.9702048e-06
1.9639907e-06
1.9575621e-06
1.9509157e-06
1.9440436e-06
1.9369389e-06
1.9295842e-06
1.9219571e-06
1.9140283e-06
1.905766e-06
1.8971312e-06
1.8881372e-06
1.8787592e-06
1.8690126e-06
1.8587964e-06
1.8480795e-06
1.8370915e-06
1.8261818e-06
1.8155534e-06
1.8054e-06
1.7962156e-06
1.7895058e-06
1.7832191e-06
1.7841121e-06
1.789574e-06
1.806378e-06
1.8388861e-06
1.9114011e-06
2.0408746e-06
2.2511688e-06
2.5717097e-06
3.0328071e-06
3.6873252e-06
4.5098962e-06
5.4888089e-06
6.5954798e-06
7.7680581e-06
8.9573527e-06
1.0127376e-05
1.1257288e-05
1.2340644e-05
1.3382976e-05
1.4395346e-05
1.5383686e-05
1.6346836e-05
1.7283242e-05
1.8193461e-05
1.9080219e-05
1.9941019e-05
2.0787398e-05
2.1613271e-05
2.2418801e-05
2.3204099e-05
2.3968743e-05
2.4715994e-05
2.5448987e-05
2.6170258e-05
2.6876924e-05
2.7568285e-05
2.8244414e-05
2.8906459e-05
2.9548865e-05
3.0182087e-05
3.0804818e-05
3.1414064e-05
3.2010357e-05
3.2594223e-05
3.3166012e-05
3.3725998e-05
3.4274421e-05
3.4811492e-05
3.5337402e-05
3.5852322e-05
3.6356407e-05
3.6849799e-05
3.7332633e-05
3.7805026e-05
3.82671e-05
3.8718967e-05
3.9160674e-05
3.9592294e-05
4.0011993e-05
4.040954e-05
4.070316e-05
4.1007156e-05
4.1295214e-05
4.1582586e-05
4.1874713e-05
4.2173878e-05
4.2477316e-05
4.2781174e-05
4.3081723e-05
4.3377896e-05
4.3663358e-05
4.3955029e-05
4.4183428e-05
4.4610368e-05
1.9894737e-06
1.9859943e-06
1.9822621e-06
1.978371e-06
1.9743395e-06
1.9701681e-06
1.9658527e-06
1.9613885e-06
1.9567711e-06
1.9519955e-06
1.9470572e-06
1.9419516e-06
1.9366742e-06
1.9312193e-06
1.9255802e-06
1.9197469e-06
1.91371e-06
1.907454e-06
1.9009552e-06
1.8941919e-06
1.8871561e-06
1.8798207e-06
1.8722295e-06
1.8641241e-06
1.8557356e-06
1.847229e-06
1.8388824e-06
1.8308663e-06
1.8233475e-06
1.8174616e-06
1.8112265e-06
1.8114016e-06
1.8149929e-06
1.8273109e-06
1.8549578e-06
1.9114861e-06
2.0254735e-06
2.2231979e-06
2.5412135e-06
3.0176138e-06
3.7244839e-06
4.6360637e-06
5.7372549e-06
6.9880656e-06
8.3167193e-06
9.6651021e-06
1.099329e-05
1.2282636e-05
1.3531444e-05
1.4745738e-05
1.593134e-05
1.7089293e-05
1.8219874e-05
1.9324412e-05
2.0404169e-05
2.14604e-05
2.2493052e-05
2.3502635e-05
2.449117e-05
2.5461403e-05
2.6413778e-05
2.7348026e-05
2.8263986e-05
2.9162481e-05
3.0040979e-05
3.0903406e-05
3.1750843e-05
3.2582597e-05
3.3398576e-05
3.4199079e-05
3.4984452e-05
3.5755009e-05
3.6511031e-05
3.7252772e-05
3.7980463e-05
3.869431e-05
3.9394502e-05
4.0081209e-05
4.0754587e-05
4.1414777e-05
4.2061919e-05
4.269614e-05
4.331752e-05
4.3926263e-05
4.4521938e-05
4.5103575e-05
4.5655039e-05
4.6197207e-05
4.6716479e-05
4.7216922e-05
4.7705605e-05
4.8188393e-05
4.8666931e-05
4.9140371e-05
4.9606506e-05
5.0065401e-05
5.050951e-05
5.0962771e-05
5.132537e-05
5.1991383e-05
1.9910282e-06
1.9886014e-06
1.9860124e-06
1.9833168e-06
1.9805254e-06
1.9776378e-06
1.9746512e-06
1.9715621e-06
1.9683668e-06
1.9650617e-06
1.9616433e-06
1.9581082e-06
1.9544539e-06
1.9506778e-06
1.9467779e-06
1.9427516e-06
1.9385957e-06
1.9343058e-06
1.9298765e-06
1.9253015e-06
1.9205716e-06
1.9156758e-06
1.9106061e-06
1.905344e-06
1.8998672e-06
1.8941721e-06
1.8882384e-06
1.8820666e-06
1.8756323e-06
1.8689334e-06
1.8619559e-06
1.8550691e-06
1.848438e-06
1.8421922e-06
1.8373652e-06
1.8324734e-06
1.8329448e-06
1.8370125e-06
1.850313e-06
1.8806492e-06
1.9416387e-06
2.0703373e-06
2.3020536e-06
2.68352e-06
3.2757459e-06
4.1401579e-06
5.2453794e-06
6.5662636e-06
8.0206489e-06
9.5311459e-06
1.1038401e-05
1.2510505e-05
1.3941377e-05
1.5337965e-05
1.6706998e-05
1.8050163e-05
1.936631e-05
2.0655124e-05
2.1918164e-05
2.3157671e-05
2.4374838e-05
2.5570175e-05
2.674403e-05
2.7897148e-05
2.9028728e-05
3.013968e-05
3.1231382e-05
3.2304324e-05
3.3358626e-05
3.439452e-05
3.5412336e-05
3.6412411e-05
3.7395067e-05
3.8360607e-05
3.9309308e-05
4.0241422e-05
4.1157182e-05
4.2056796e-05
4.2940457e-05
4.3808342e-05
4.4660618e-05
4.5497439e-05
4.6318918e-05
4.7125285e-05
4.7916602e-05
4.8693834e-05
4.9457723e-05
5.02093e-05
5.0938927e-05
5.1644672e-05
5.2330915e-05
5.3003463e-05
5.3665774e-05
5.4318847e-05
5.4961587e-05
5.5594983e-05
5.6210189e-05
5.6838265e-05
5.7347156e-05
5.8275491e-05
1.9922147e-06
1.9904421e-06
1.9885594e-06
1.9866015e-06
1.9845751e-06
1.9824797e-06
1.9803132e-06
1.9780731e-06
1.9757569e-06
1.9733618e-06
1.9708854e-06
1.9683251e-06
1.9656786e-06
1.9629438e-06
1.9601188e-06
1.9572015e-06
1.9541896e-06
1.9510804e-06
1.9478703e-06
1.944556e-06
1.9411332e-06
1.9375977e-06
1.933945e-06
1.9301707e-06
1.9262694e-06
1.9222351e-06
1.9180601e-06
1.9137356e-06
1.9092527e-06
1.9045953e-06
1.899757e-06
1.8947157e-06
1.8894694e-06
1.8840036e-06
1.8783021e-06
1.8723706e-06
1.8665419e-06
1.8609497e-06
1.8559103e-06
1.8521748e-06
1.8494193e-06
1.8510183e-06
1.8579549e-06
1.8779062e-06
1.9206137e-06
2.0147393e-06
2.2034456e-06
2.5423464e-06
3.095549e-06
3.9690961e-06
5.1324801e-06
6.5543461e-06
8.1493217e-06
9.8200339e-06
1.1493597e-05
1.3133969e-05
1.4736142e-05
1.6307505e-05
1.7853077e-05
1.9372988e-05
2.0866594e-05
2.2334881e-05
2.3779159e-05
2.520008e-05
2.659732e-05
2.7971068e-05
2.9322222e-05
3.0651475e-05
3.1959208e-05
3.3245767e-05
3.4511487e-05
3.5756693e-05
3.6981728e-05
3.8186926e-05
3.937259e-05
4.0539009e-05
4.168645e-05
4.2815159e-05
4.3925363e-05
4.5017273e-05
4.6091086e-05
4.7146979e-05
4.8185098e-05
4.9205663e-05
5.0208899e-05
5.1195655e-05
5.2169645e-05
5.3130044e-05
5.4070214e-05
5.498585e-05
5.587829e-05
5.6751844e-05
5.7610322e-05
5.8455816e-05
5.9288108e-05
6.0109077e-05
6.0908625e-05
6.1725137e-05
6.2392715e-05
6.3605555e-05
1.9931773e-06
1.9918368e-06
1.9904184e-06
1.9889449e-06
1.9874204e-06
1.9858445e-06
1.9842157e-06
1.9825321e-06
1.980792e-06
1.9789932e-06
1.977134e-06
1.9752124e-06
1.9732267e-06
1.9711753e-06
1.9690564e-06
1.9668685e-06
1.9646097e-06
1.9622778e-06
1.9598701e-06
1.957384e-06
1.9548164e-06
1.9521643e-06
1.9494246e-06
1.9465939e-06
1.9436692e-06
1.9406471e-06
1.9375242e-06
1.9342968e-06
1.9309613e-06
1.9275131e-06
1.9239477e-06
1.9202587e-06
1.916438e-06
1.9124779e-06
1.9083631e-06
1.9040878e-06
1.8996293e-06
1.8950072e-06
1.8901064e-06
1.8850314e-06
1.8798947e-06
1.8749255e-06
1.8702225e-06
1.8665475e-06
1.8632716e-06
1.8641344e-06
1.8691064e-06
1.8849424e-06
1.9226028e-06
2.0049763e-06
2.1874577e-06
2.5347475e-06
3.1261328e-06
4.0882075e-06
5.3871839e-06
6.9799096e-06
8.7542887e-06
1.0598662e-05
1.2436371e-05
1.4237988e-05
1.6005665e-05
1.7748103e-05
1.9467597e-05
2.1162453e-05
2.2831927e-05
2.4476613e-05
2.6096965e-05
2.7693141e-05
2.9265514e-05
3.0814523e-05
3.2340428e-05
3.3843465e-05
3.5323941e-05
3.6782153e-05
3.8218379e-05
3.96329e-05
4.1025987e-05
4.239789e-05
4.3748851e-05
4.50791e-05
4.6388844e-05
4.7678274e-05
4.8947555e-05
5.0196886e-05
5.1426533e-05
5.2636854e-05
5.3831109e-05
5.5009762e-05
5.6168874e-05
5.7303873e-05
5.8413875e-05
5.9501332e-05
6.0569573e-05
6.1621183e-05
6.2656615e-05
6.3678607e-05
6.4675895e-05
6.5694408e-05
6.6533051e-05
6.8051621e-05
1.9939993e-06
1.9929578e-06
1.9918593e-06
1.990719e-06
1.9895397e-06
1.9883211e-06
1.9870618e-06
1.9857606e-06
1.9844161e-06
1.9830267e-06
1.981591e-06
1.9801076e-06
1.9785752e-06
1.9769923e-06
1.9753577e-06
1.9736701e-06
1.971928e-06
1.9701297e-06
1.9682732e-06
1.9663565e-06
1.9643772e-06
1.962333e-06
1.9602215e-06
1.9580403e-06
1.9557867e-06
1.9534583e-06
1.9510524e-06
1.9485664e-06
1.9459976e-06
1.9433431e-06
1.9406e-06
1.9377651e-06
1.9348349e-06
1.9318059e-06
1.9286739e-06
1.9254349e-06
1.9220824e-06
1.9186108e-06
1.9150085e-06
1.9112619e-06
1.9073655e-06
1.9033094e-06
1.8990893e-06
1.8946723e-06
1.890093e-06
1.8856378e-06
1.8813979e-06
1.8780183e-06
1.8750765e-06
1.8759136e-06
1.8809534e-06
1.8972037e-06
1.9376395e-06
2.0305077e-06
2.2434615e-06
2.6571069e-06
3.3860933e-06
4.5432572e-06
6.0812333e-06
7.9161761e-06
9.9041362e-06
1.1927728e-05
1.3926008e-05
1.5888982e-05
1.7825811e-05
1.9740947e-05
2.1632509e-05
2.3499133e-05
2.5341414e-05
2.7159678e-05
2.895367e-05
3.072339e-05
3.2469026e-05
3.4190669e-05
3.5888445e-05
3.7562547e-05
3.9213159e-05
4.0840467e-05
4.2444673e-05
4.4025976e-05
4.5584555e-05
4.7120577e-05
4.8634202e-05
5.0125587e-05
5.1594981e-05
5.3042293e-05
5.4469836e-05
5.5879178e-05
5.7268504e-05
5.863401e-05
5.9973578e-05
6.1287977e-05
6.2579618e-05
6.3851098e-05
6.5103292e-05
6.6339726e-05
6.7548041e-05
6.8781892e-05
6.9803828e-05
7.1648577e-05
1.9947276e-06
1.9939008e-06
1.9930309e-06
1.9921287e-06
1.9911959e-06
1.9902322e-06
1.9892366e-06
1.9882081e-06
1.9871456e-06
1.9860479e-06
1.984914e-06
1.9837427e-06
1.9825329e-06
1.9812836e-06
1.9799937e-06
1.9786621e-06
1.9772877e-06
1.975869e-06
1.9744047e-06
1.9728931e-06
1.9713324e-06
1.9697208e-06
1.9680564e-06
1.9663375e-06
1.9645619e-06
1.9627276e-06
1.9608328e-06
1.9588751e-06
1.9568525e-06
1.9547628e-06
1.9526035e-06
1.9503722e-06
1.9480664e-06
1.9456833e-06
1.9432203e-06
1.9406746e-06
1.9380434e-06
1.9353234e-06
1.9325117e-06
1.9296045e-06
1.9265972e-06
1.9234833e-06
1.9202569e-06
1.9169054e-06
1.9134211e-06
1.9097903e-06
1.9060129e-06
1.9020465e-06
1.897928e-06
1.8939255e-06
1.8901617e-06
1.8871839e-06
1.8851594e-06
1.8866146e-06
1.8935323e-06
1.9151588e-06
1.9685016e-06
2.1012204e-06
2.4006703e-06
2.9684557e-06
4.0028122e-06
5.4892439e-06
7.3664807e-06
9.4812179e-06
1.1679345e-05
1.3867653e-05
1.6021954e-05
1.8150447e-05
2.0259117e-05
2.2345966e-05
2.4408971e-05
2.644825e-05
2.8463699e-05
3.0454769e-05
3.2421266e-05
3.4363146e-05
3.6280314e-05
3.8172765e-05
4.0040554e-05
4.188374e-05
4.3702391e-05
4.549658e-05
4.7266402e-05
4.9011935e-05
5.073335e-05
5.243018e-05
5.4103995e-05
5.5756892e-05
5.7388467e-05
5.899603e-05
6.0577045e-05
6.2131006e-05
6.3659264e-05
6.5164059e-05
6.6646424e-05
6.8110535e-05
6.9542974e-05
7.1005255e-05
7.2222555e-05
7.4413345e-05
1.9953816e-06
1.9947135e-06
1.9940122e-06
1.9932853e-06
1.992534e-06
1.9917579e-06
1.9909563e-06
1.9901284e-06
1.9892732e-06
1.98839e-06
1.9874778e-06
1.9865358e-06
1.9855629e-06
1.9845585e-06
1.9835216e-06
1.9824513e-06
1.9813467e-06
1.9802067e-06
1.9790301e-06
1.9778156e-06
1.9765619e-06
1.9752675e-06
1.9739311e-06
1.9725509e-06
1.9711256e-06
1.9696536e-06
1.9681332e-06
1.9665627e-06
1.9649404e-06
1.9632646e-06
1.9615334e-06
1.9597448e-06
1.9578968e-06
1.9559872e-06
1.9540139e-06
1.9519747e-06
1.9498671e-06
1.9476891e-06
1.945438e-06
1.9431116e-06
1.9407072e-06
1.9382221e-06
1.935653e-06
1.9329967e-06
1.9302494e-06
1.9274052e-06
1.9244586e-06
1.9213973e-06
1.9182135e-06
1.9148936e-06
1.9114406e-06
1.9078046e-06
1.9040925e-06
1.9004607e-06
1.8974053e-06
1.8941995e-06
1.8944301e-06
1.8976297e-06
1.9098468e-06
1.9454309e-06
2.033309e-06
2.2635773e-06
2.7482541e-06
3.6725827e-06
5.1441988e-06
7.08964e-06
9.3479925e-06
1.1728057e-05
1.4108471e-05
1.6455184e-05
1.8776815e-05
2.1080091e-05
2.3362611e-05
2.5622184e-05
2.7858657e-05
3.0071462e-05
3.2259829e-05
3.44234e-05
3.6561886e-05
3.8675009e-05
4.0762576e-05
4.2824436e-05
4.486052e-05
4.6870746e-05
4.8855114e-05
5.0812784e-05
5.2744854e-05
5.4653561e-05
5.6539246e-05
5.8400261e-05
6.0234185e-05
6.2039708e-05
6.381718e-05
6.5568248e-05
6.729384e-05
6.8998607e-05
7.0668051e-05
7.2371626e-05
7.3796238e-05
7.6352471e-05
1.9959635e-06
1.9954158e-06
1.994842e-06
1.9942476e-06
1.9936333e-06
1.9929989e-06
1.9923438e-06
1.9916673e-06
1.9909687e-06
1.9902473e-06
1.9895024e-06
1.9887331e-06
1.9879389e-06
1.9871191e-06
1.9862728e-06
1.9853994e-06
1.984498e-06
1.9835678e-06
1.9826079e-06
1.9816172e-06
1.9805946e-06
1.979539e-06
1.9784492e-06
1.977324e-06
1.9761622e-06
1.9749624e-06
1.9737235e-06
1.972444e-06
1.9711225e-06
1.9697577e-06
1.968348e-06
1.9668919e-06
1.9653877e-06
1.9638337e-06
1.9622282e-06
1.9605694e-06
1.9588553e-06
1.9570842e-06
1.9552541e-06
1.953363e-06
1.9514087e-06
1.949389e-06
1.9473017e-06
1.9451444e-06
1.9429146e-06
1.9406096e-06
1.9382264e-06
1.9357619e-06
1.9332124e-06
1.9305724e-06
1.9278369e-06
1.9249943e-06
1.9220372e-06
1.918956e-06
1.9157328e-06
1.9122981e-06
1.908945e-06
1.9057797e-06
1.9032084e-06
1.9017039e-06
1.90336e-06
1.9114236e-06
1.9376692e-06
2.0072682e-06
2.20077e-06
2.6458779e-06
3.5388131e-06
5.0567211e-06
7.1217841e-06
9.552372e-06
1.212406e-05
1.4697289e-05
1.7236959e-05
1.9753849e-05
2.2253704e-05
2.4733339e-05
2.7190854e-05
2.962582e-05
3.2037193e-05
3.4424025e-05
3.6785672e-05
3.9121546e-05
4.1431246e-05
4.3714392e-05
4.5970663e-05
4.8198755e-05
5.0399468e-05
5.257498e-05
5.4725827e-05
5.685111e-05
5.8948762e-05
6.101708e-05
6.305559e-05
6.5065238e-05
6.7046627e-05
6.9004671e-05
7.0923736e-05
7.2881237e-05
7.4524951e-05
7.7465626e-05
1.9964723e-06
1.9960179e-06
1.9955425e-06
1.9950504e-06
1.9945419e-06
1.9940169e-06
1.9934748e-06
1.9929151e-06
1.9923372e-06
1.9917405e-06
1.9911244e-06
1.9904884e-06
1.9898318e-06
1.9891541e-06
1.9884546e-06
1.9877327e-06
1.9869878e-06
1.9862192e-06
1.985426e-06
1.9846075e-06
1.9837627e-06
1.9828908e-06
1.9819907e-06
1.9810615e-06
1.9801022e-06
1.9791118e-06
1.9780891e-06
1.9770331e-06
1.9759427e-06
1.9748167e-06
1.9736538e-06
1.9724529e-06
1.9712125e-06
1.9699313e-06
1.9686078e-06
1.9672407e-06
1.9658283e-06
1.9643692e-06
1.9628618e-06
1.9613043e-06
1.9596952e-06
1.9580326e-06
1.9563145e-06
1.9545391e-06
1.9527042e-06
1.9508078e-06
1.9488475e-06
1.9468211e-06
1.9447261e-06
1.94256e-06
1.9403203e-06
1.9380043e-06
1.9356085e-06
1.9331285e-06
1.9305554e-06
1.9278813e-06
1.9250899e-06
1.9221875e-06
1.9191168e-06
1.9159911e-06
1.9129726e-06
1.9104468e-06
1.9084788e-06
1.9095731e-06
1.9159078e-06
1.9380386e-06
2.0006771e-06
2.1847555e-06
2.6357458e-06
3.5820789e-06
5.2302507e-06
7.4878158e-06
1.0131369e-05
1.2907431e-05
1.5675065e-05
1.8409955e-05
2.1125669e-05
2.3825106e-05
2.6504555e-05
2.91625e-05
3.1797874e-05
3.4409293e-05
3.6995832e-05
3.9556591e-05
4.2090689e-05
4.4596174e-05
4.7073577e-05
4.9524913e-05
5.1950484e-05
5.4349733e-05
5.6720936e-05
5.9062264e-05
6.1372644e-05
6.3652306e-05
6.5901367e-05
6.8124787e-05
7.0305694e-05
7.2529419e-05
7.4403777e-05
7.7748593e-05
1.996911e-06
1.9965299e-06
1.996132e-06
1.9957201e-06
1.9952948e-06
1.9948556e-06
1.9944022e-06
1.9939341e-06
1.9934509e-06
1.9929521e-06
1.9924371e-06
1.9919056e-06
1.9913569e-06
1.9907906e-06
1.9902062e-06
1.9896031e-06
1.9889808e-06
1.9883388e-06
1.9876762e-06
1.9869926e-06
1.9862871e-06
1.985559e-06
1.9848075e-06
1.9840318e-06
1.983231e-06
1.9824044e-06
1.9815509e-06
1.9806698e-06
1.9797601e-06
1.9788208e-06
1.977851e-06
1.9768495e-06
1.9758153e-06
1.9747472e-06
1.973644e-06
1.9725047e-06
1.9713279e-06
1.9701123e-06
1.9688567e-06
1.9675597e-06
1.9662198e-06
1.9648357e-06
1.9634056e-06
1.9619281e-06
1.9604014e-06
1.9588238e-06
1.9571933e-06
1.9555081e-06
1.9537661e-06
1.9519654e-06
1.9501039e-06
1.9481796e-06
1.9461906e-06
1.9441345e-06
1.9420086e-06
1.9398103e-06
1.9375346e-06
1.9351769e-06
1.9327266e-06
1.9301739e-06
1.9275182e-06
1.924708e-06
1.9217943e-06
1.9189625e-06
1.9165677e-06
1.9145723e-06
1.9155166e-06
1.9214786e-06
1.9432391e-06
2.0078611e-06
2.2097757e-06
2.7173949e-06
3.8231357e-06
5.7056162e-06
8.2379531e-06
1.1130897e-05
1.411817e-05
1.708179e-05
2.0016507e-05
2.293512e-05
2.5836699e-05
2.8718356e-05
3.1578996e-05
3.4416871e-05
3.7230203e-05
4.0016155e-05
4.277487e-05
4.5508093e-05
4.8215553e-05
5.089658e-05
5.3549573e-05
5.6172673e-05
5.8764386e-05
6.1324279e-05
6.3851873e-05
6.6351965e-05
6.880632e-05
7.1308083e-05
7.3424259e-05
7.719232e-05
1.9972852e-06
1.9969628e-06
1.9966266e-06
1.9962788e-06
1.9959196e-06
1.9955489e-06
1.9951661e-06
1.9947711e-06
1.9943633e-06
1.9939424e-06
1.9935079e-06
1.9930595e-06
1.9925967e-06
1.9921191e-06
1.9916262e-06
1.9911177e-06
1.990593e-06
1.9900516e-06
1.989493e-06
1.9889167e-06
1.9883219e-06
1.9877082e-06
1.9870748e-06
1.9864211e-06
1.9857463e-06
1.9850498e-06
1.9843309e-06
1.9835887e-06
1.9828225e-06
1.9820315e-06
1.9812149e-06
1.9803717e-06
1.9795011e-06
1.9786021e-06
1.9776738e-06
1.9767152e-06
1.9757251e-06
1.9747027e-06
1.9736467e-06
1.972556e-06
1.9714295e-06
1.970266e-06
1.969064e-06
1.9678224e-06
1.9665397e-06
1.9652144e-06
1.9638451e-06
1.96243e-06
1.9609675e-06
1.959456e-06
1.9578938e-06
1.9562791e-06
1.9546103e-06
1.9528855e-06
1.9511026e-06
1.9492595e-06
1.9473539e-06
1.9453834e-06
1.9433456e-06
1.9412367e-06
1.9390531e-06
1.936785e-06
1.9344233e-06
1.9319644e-06
1.9293623e-06
1.9266458e-06
1.9240083e-06
1.921767e-06
1.9200156e-06
1.9211221e-06
1.9279321e-06
1.9535114e-06
2.0305898e-06
2.2867762e-06
2.919149e-06
4.3436374e-06
6.5812729e-06
9.4495104e-06
1.2602961e-05
1.5794165e-05
1.8953191e-05
2.2092191e-05
2.5217526e-05
2.832529e-05
3.1413007e-05
3.447698e-05
3.7516726e-05
4.0533625e-05
4.3526528e-05
4.6494176e-05
4.9434723e-05
5.2346189e-05
5.5226745e-05
5.8075346e-05
6.0890849e-05
6.3677692e-05
6.6416124e-05
6.9206957e-05
7.1575576e-05
7.5784111e-05
1.997604e-06
1.9973291e-06
1.9970428e-06
1.9967467e-06
1.9964409e-06
1.9961254e-06
1.9957997e-06
1.9954635e-06
1.9951166e-06
1.9947585e-06
1.9943889e-06
1.9940076e-06
1.993614e-06
1.9932078e-06
1.9927887e-06
1.9923564e-06
1.9919103e-06
1.99145e-06
1.9909752e-06
1.9904853e-06
1.9899798e-06
1.9894581e-06
1.9889199e-06
1.9883644e-06
1.9877911e-06
1.9871994e-06
1.9865887e-06
1.9859583e-06
1.9853076e-06
1.9846359e-06
1.9839425e-06
1.9832267e-06
1.9824877e-06
1.9817247e-06
1.9809369e-06
1.9801234e-06
1.9792835e-06
1.9784162e-06
1.9775205e-06
1.9765956e-06
1.9756404e-06
1.974654e-06
1.9736352e-06
1.9725829e-06
1.9714959e-06
1.9703731e-06
1.9692131e-06
1.9680146e-06
1.9667762e-06
1.9654965e-06
1.9641741e-06
1.9628077e-06
1.9613956e-06
1.9599364e-06
1.9584283e-06
1.9568694e-06
1.9552579e-06
1.9535919e-06
1.9518695e-06
1.9500885e-06
1.9482469e-06
1.9463424e-06
1.9443719e-06
1.942332e-06
1.9402136e-06
1.9380077e-06
1.9357105e-06
1.9332761e-06
1.9307405e-06
1.9282999e-06
1.9262178e-06
1.9250103e-06
1.926663e-06
1.9359866e-06
1.9697618e-06
2.0789508e-06
2.444612e-06
3.3445236e-06
5.1938542e-06
7.9036633e-06
1.1150927e-05
1.4562516e-05
1.7958215e-05
2.1323936e-05
2.4674915e-05
2.8008075e-05
3.1322187e-05
3.4618795e-05
3.78956e-05
4.1150334e-05
4.4380479e-05
4.7583698e-05
5.0757786e-05
5.3901079e-05
5.7011704e-05
6.0093559e-05
6.31252e-05
6.6214912e-05
6.8845653e-05
7.3511195e-05
1.9978792e-06
1.9976431e-06
1.9973975e-06
1.9971435e-06
1.9968814e-06
1.9966108e-06
1.9963316e-06
1.9960435e-06
1.9957461e-06
1.9954393e-06
1.9951226e-06
1.9947958e-06
1.9944586e-06
1.9941107e-06
1.9937518e-06
1.9933814e-06
1.9929993e-06
1.9926052e-06
1.9921985e-06
1.991779e-06
1.9913462e-06
1.9908996e-06
1.9904388e-06
1.9899632e-06
1.9894725e-06
1.9889661e-06
1.9884435e-06
1.9879041e-06
1.9873473e-06
1.9867727e-06
1.9861796e-06
1.9855673e-06
1.9849353e-06
1.9842829e-06
1.9836093e-06
1.9829139e-06
1.982196e-06
1.9814547e-06
1.9806893e-06
1.979899e-06
1.979083e-06
1.9782404e-06
1.9773702e-06
1.9764716e-06
1.9755435e-06
1.9745849e-06
1.9735948e-06
1.9725719e-06
1.9715152e-06
1.9704235e-06
1.9692956e-06
1.9681302e-06
1.9669262e-06
1.9656821e-06
1.9643967e-06
1.9630682e-06
1.9616951e-06
1.9602758e-06
1.9588087e-06
1.9572919e-06
1.9557238e-06
1.9541025e-06
1.9524261e-06
1.9506926e-06
1.9488999e-06
1.9470451e-06
1.9451251e-06
1.9431311e-06
1.9410536e-06
1.9388908e-06
1.9365929e-06
1.9342035e-06
1.9320978e-06
1.929614e-06
1.9297608e-06
1.9326868e-06
1.9475567e-06
1.9977837e-06
2.1879208e-06
2.7505077e-06
4.1447836e-06
6.5797131e-06
9.8209718e-06
1.3417357e-05
1.7052897e-05
2.0648952e-05
2.4225598e-05
2.7792307e-05
3.1345271e-05
3.488168e-05
3.8398239e-05
4.1892038e-05
4.5360351e-05
4.8800797e-05
5.2210676e-05
5.559316e-05
5.8924914e-05
6.2321471e-05
6.5222522e-05
7.03599e-05
1.9981219e-06
1.9979178e-06
1.9977057e-06
1.9974865e-06
1.9972603e-06
1.9970268e-06
1.9967859e-06
1.9965373e-06
1.9962807e-06
1.996016e-06
1.9957429e-06
1.995461e-06
1.9951702e-06
1.9948702e-06
1.9945607e-06
1.9942414e-06
1.993912e-06
1.9935721e-06
1.9932216e-06
1.99286e-06
1.9924869e-06
1.992102e-06
1.9917048e-06
1.9912951e-06
1.9908722e-06
1.9904359e-06
1.9899857e-06
1.989521e-06
1.9890415e-06
1.9885466e-06
1.9880358e-06
1.9875086e-06
1.9869645e-06
1.9864028e-06
1.9858231e-06
1.9852246e-06
1.9846067e-06
1.9839689e-06
1.9833104e-06
1.9826306e-06
1.9819287e-06
1.981204e-06
1.9804557e-06
1.9796831e-06
1.9788852e-06
1.9780613e-06
1.9772104e-06
1.9763314e-06
1.9754236e-06
1.9744858e-06
1.9735171e-06
1.9725164e-06
1.9714826e-06
1.9704147e-06
1.9693113e-06
1.9681713e-06
1.9669932e-06
1.9657757e-06
1.9645174e-06
1.9632169e-06
1.9618725e-06
1.9604827e-06
1.959046e-06
1.9575605e-06
1.9560246e-06
1.9544364e-06
1.9527941e-06
1.9510957e-06
1.9493385e-06
1.9475188e-06
1.9456302e-06
1.9436529e-06
1.9416217e-06
1.939376e-06
1.9371678e-06
1.9352182e-06
1.9334615e-06
1.9342689e-06
1.940484e-06
1.9667273e-06
2.0591091e-06
2.4141046e-06
3.3814056e-06
5.4982044e-06
8.6466262e-06
1.237814e-05
1.6248531e-05
2.0090718e-05
2.3908788e-05
2.7715966e-05
3.1509646e-05
3.5287053e-05
3.9045016e-05
4.2780311e-05
4.6489334e-05
5.0174348e-05
5.3809926e-05
5.75186e-05
6.0695925e-05
6.6317344e-05
1.9983412e-06
1.9981639e-06
1.9979797e-06
1.9977893e-06
1.9975929e-06
1.9973902e-06
1.9971811e-06
1.9969653e-06
1.9967427e-06
1.996513e-06
1.996276e-06
1.9960315e-06
1.9957792e-06
1.9955189e-06
1.9952504e-06
1.9949734e-06
1.9946877e-06
1.994393e-06
1.994089e-06
1.9937754e-06
1.9934519e-06
1.9931182e-06
1.9927739e-06
1.9924187e-06
1.9920521e-06
1.991674e-06
1.9912837e-06
1.9908811e-06
1.9904656e-06
1.9900368e-06
1.9895943e-06
1.9891376e-06
1.9886663e-06
1.9881798e-06
1.9876778e-06
1.9871595e-06
1.9866246e-06
1.9860724e-06
1.9855024e-06
1.9849141e-06
1.9843066e-06
1.9836796e-06
1.9830322e-06
1.9823638e-06
1.9816737e-06
1.9809611e-06
1.9802253e-06
1.9794654e-06
1.9786806e-06
1.97787e-06
1.9770328e-06
1.9761681e-06
1.975275e-06
1.9743525e-06
1.9733996e-06
1.9724151e-06
1.971398e-06
1.9703471e-06
1.9692611e-06
1.9681388e-06
1.966979e-06
1.9657802e-06
1.9645412e-06
1.9632603e-06
1.9619363e-06
1.9605673e-06
1.9591519e-06
1.9576885e-06
1.9561752e-06
1.9546102e-06
1.9529919e-06
1.9513169e-06
1.9495823e-06
1.9477807e-06
1.9458945e-06
1.9439275e-06
1.9418182e-06
1.9397921e-06
1.9380252e-06
1.9374187e-06
1.9397506e-06
1.953565e-06
2.0052902e-06
2.2195665e-06
2.8912811e-06
4.6940835e-06
7.6805799e-06
1.1495835e-05
1.5591143e-05
1.9682744e-05
2.3744401e-05
2.7794576e-05
3.1832369e-05
3.5854584e-05
3.985728e-05
4.3841818e-05
4.7780558e-05
5.1802828e-05
5.5259243e-05
6.1373044e-05
1.9985446e-06
1.9983896e-06
1.9982288e-06
1.9980627e-06
1.9978913e-06
1.9977144e-06
1.9975319e-06
1.9973436e-06
1.9971494e-06
1.996949e-06
1.9967422e-06
1.9965289e-06
1.9963089e-06
1.9960819e-06
1.9958477e-06
1.9956062e-06
1.9953571e-06
1.9951001e-06
1.994835e-06
1.9945616e-06
1.9942796e-06
1.9939887e-06
1.9936886e-06
1.993379e-06
1.9930595e-06
1.99273e-06
1.9923899e-06
1.9920391e-06
1.9916771e-06
1.9913036e-06
1.9909181e-06
1.9905204e-06
1.9901099e-06
1.9896863e-06
1.9892491e-06
1.9887979e-06
1.9883323e-06
1.9878516e-06
1.9873555e-06
1.9868435e-06
1.9863149e-06
1.9857693e-06
1.9852061e-06
1.9846247e-06
1.9840245e-06
1.9834048e-06
1.9827649e-06
1.9821043e-06
1.981422e-06
1.9807175e-06
1.9799899e-06
1.9792386e-06
1.9784626e-06
1.9776612e-06
1.9768336e-06
1.9759786e-06
1.9750955e-06
1.9741831e-06
1.9732405e-06
1.9722665e-06
1.9712601e-06
1.9702202e-06
1.9691455e-06
1.9680348e-06
1.9668868e-06
1.9657001e-06
1.9644735e-06
1.9632053e-06
1.9618942e-06
1.9605385e-06
1.9591367e-06
1.9576872e-06
1.956188e-06
1.9546379e-06
1.9530333e-06
1.95137e-06
1.9496367e-06
1.947835e-06
1.9458959e-06
1.9439341e-06
1.9421648e-06
1.9406132e-06
1.9415811e-06
1.9487155e-06
1.98038e-06
2.1039763e-06
2.6023931e-06
4.0320443e-06
6.855997e-06
1.0752549e-05
1.5080647e-05
1.9434728e-05
2.3748726e-05
2.8047534e-05
3.2333823e-05
3.6609419e-05
4.0845298e-05
4.5177677e-05
4.8911771e-05
5.552084e-05
1.998738e-06
1.998602e-06
1.9984609e-06
1.9983152e-06
1.9981648e-06
1.9980097e-06
1.9978497e-06
1.9976846e-06
1.9975143e-06
1.9973386e-06
1.9971574e-06
1.9969704e-06