/*--------------------------------*- C++ -*----------------------------------*\
  =========                 |
  \\      /  F ield         | OpenFOAM: The Open Source CFD Toolbox
   \\    /   O peration     | Website:  https://openfoam.org
    \\  /    A nd           | Version:  12
     \\/     M anipulation  |
\*---------------------------------------------------------------------------*/
FoamFile
{
    format      ascii;
    class       volScalarField;
    location    "300";
    object      p;
}
// * * * * * * * * * * * * * * * * * * * * * * * * * * * * * * * * * * * * * //

dimensions      [0 2 -2 0 0 0 0];

internalField   nonuniform List<scalar> 
13056
(
0.0040318788
0.0040515563
0.0040946173
0.0041491159
0.0042133708
0.0042873033
0.0043702559
0.0044615136
0.0045607405
0.0046679834
0.0047835892
0.0049082071
0.0050428692
0.0051891351
0.0053492928
0.0055267714
0.0057265746
0.0059570422
0.0062298908
0.0065724665
0.0070108708
0.0077027195
0.0085871481
0.012572166
0.0091080154
0.0039952146
0.0038882827
0.0043604877
0.0044814193
0.0044241902
0.0043461014
0.0042774664
0.0042096395
0.0041401366
0.0040717034
0.0040062434
0.0039443003
0.0038854688
0.0038295031
0.0037762209
0.0037254601
0.0036770695
0.0036306861
0.0035863337
0.0035436258
0.0035025655
0.003463053
0.0034246614
0.0033876035
0.0033517399
0.0033167027
0.0032826233
0.0032494903
0.0032170703
0.0031852183
0.0031541383
0.0031237104
0.0030936546
0.0030640206
0.0030349576
0.0030063381
0.0029779284
0.0029497624
0.0029220168
0.0028945961
0.0028672424
0.002840022
0.0028130095
0.0027862336
0.0027595139
0.0027327858
0.0027060677
0.0026795086
0.0026530128
0.0026263672
0.002599637
0.0025728584
0.0025461024
0.0025192255
0.0024921143
0.0024647887
0.0024373531
0.0024098
0.0023819285
0.0023537264
0.0023251789
0.0022964281
0.0022673858
0.0022378249
0.0022077929
0.0021773017
0.0021464239
0.0021150039
0.0020828899
0.002050066
0.0020166718
0.0019826234
0.0019476428
0.0019117232
0.0018748967
0.0018371671
0.0017983003
0.0017581181
0.0017166518
0.001673903
0.0016296122
0.001583508
0.0015356482
0.0014859292
0.0014339666
0.0013795297
0.0013226353
0.0012631185
0.0012014843
0.0011397836
0.0010791879
0.0010195241
0.00096068194
0.00090282719
0.00084586149
0.00078956514
0.00073398228
0.0006793092
0.00062556795
0.00057259404
0.00052050426
0.00046942144
0.00041967223
0.00037156933
0.00032507301
0.00028184673
0.00024036067
0.00021224526
0.00017587109
0.00029313693
-0.00023138549
0.0040318788
0.0040515564
0.0040946173
0.0041491159
0.0042133708
0.0042873033
0.0043702559
0.0044615136
0.0045607405
0.0046679834
0.0047835892
0.0049082071
0.0050428692
0.0051891352
0.0053492928
0.0055267715
0.0057265747
0.0059570424
0.006229891
0.0065724668
0.0070108712
0.0077027205
0.0085871504
0.012554937
0.0091088268
0.0039958809
0.0038883816
0.004360525
0.0044814458
0.0044242126
0.0043461211
0.0042774838
0.004209655
0.0041401506
0.0040717162
0.0040062551
0.0039443111
0.0038854787
0.0038295123
0.0037762295
0.003725468
0.0036770769
0.0036306931
0.0035863402
0.003543632
0.0035025714
0.0034630585
0.0034246667
0.0033876084
0.0033517446
0.0033167072
0.0032826275
0.0032494943
0.0032170742
0.003185222
0.0031541418
0.0031237137
0.0030936578
0.0030640237
0.0030349605
0.0030063409
0.0029779311
0.002949765
0.0029220193
0.0028945986
0.0028672447
0.0028400242
0.0028130116
0.0027862356
0.0027595159
0.0027327877
0.0027060696
0.0026795103
0.0026530145
0.0026263689
0.0025996386
0.0025728599
0.0025461039
0.0025192269
0.0024921157
0.0024647901
0.0024373544
0.0024098012
0.0023819297
0.0023537275
0.00232518
0.0022964292
0.0022673868
0.0022378259
0.0022077939
0.0021773026
0.0021464247
0.0021150047
0.0020828907
0.0020500668
0.0020166726
0.0019826241
0.0019476435
0.0019117239
0.0018748973
0.0018371677
0.0017983008
0.0017581186
0.0017166523
0.0016739035
0.0016296126
0.0015835085
0.0015356487
0.0014859296
0.001433967
0.0013795301
0.0013226357
0.0012631188
0.0012014846
0.0011397839
0.0010791882
0.0010195244
0.0009606822
0.00090282745
0.00084586173
0.00078956537
0.0007339825
0.00067930941
0.00062556815
0.00057259423
0.00052050445
0.00046942162
0.00041967241
0.0003715695
0.00032507318
0.0002818469
0.00024036083
0.00021224542
0.00017587125
0.00029313711
-0.00023138536
0.0040318788
0.0040515564
0.0040946173
0.0041491159
0.0042133708
0.0042873033
0.0043702559
0.0044615136
0.0045607405
0.0046679834
0.0047835893
0.0049082072
0.0050428693
0.0051891353
0.0053492929
0.0055267716
0.0057265748
0.0059570426
0.0062298913
0.0065724672
0.0070108717
0.0077027215
0.0085871521
0.012538568
0.0091097109
0.0039966507
0.0038884989
0.0043605697
0.0044814774
0.0044242394
0.0043461446
0.0042775046
0.0042096736
0.0041401674
0.0040717314
0.0040062691
0.0039443239
0.0038854906
0.0038295233
0.0037762397
0.0037254776
0.0036770859
0.0036307014
0.0035863481
0.0035436394
0.0035025784
0.0034630651
0.0034246729
0.0033876144
0.0033517502
0.0033167125
0.0032826326
0.0032494992
0.0032170788
0.0031852264
0.003154146
0.0031237178
0.0030936617
0.0030640274
0.0030349641
0.0030063443
0.0029779344
0.0029497681
0.0029220223
0.0028946014
0.0028672475
0.0028400269
0.0028130142
0.0027862381
0.0027595183
0.00273279
0.0027060718
0.0026795125
0.0026530165
0.0026263708
0.0025996405
0.0025728617
0.0025461057
0.0025192286
0.0024921173
0.0024647916
0.0024373559
0.0024098027
0.0023819311
0.0023537289
0.0023251813
0.0022964304
0.002267388
0.002237827
0.002207795
0.0021773037
0.0021464258
0.0021150057
0.0020828917
0.0020500677
0.0020166735
0.0019826249
0.0019476443
0.0019117246
0.0018748981
0.0018371684
0.0017983015
0.0017581193
0.001716653
0.0016739041
0.0016296132
0.001583509
0.0015356492
0.0014859301
0.0014339675
0.0013795305
0.0013226361
0.0012631192
0.001201485
0.0011397843
0.0010791885
0.0010195247
0.00096068252
0.00090282774
0.00084586202
0.00078956564
0.00073398277
0.00067930967
0.0006255684
0.00057259447
0.00052050468
0.00046942184
0.00041967262
0.0003715697
0.00032507338
0.00028184709
0.00024036101
0.00021224561
0.00017587144
0.00029313733
-0.00023138522
0.0040318788
0.0040515564
0.0040946173
0.004149116
0.0042133708
0.0042873033
0.0043702559
0.0044615137
0.0045607406
0.0046679835
0.0047835893
0.0049082072
0.0050428694
0.0051891353
0.005349293
0.0055267718
0.005726575
0.0059570427
0.0062298915
0.0065724676
0.0070108721
0.0077027223
0.0085871538
0.012523974
0.0091107013
0.0039973601
0.0038886096
0.0043606137
0.0044815085
0.0044242657
0.0043461677
0.004277525
0.0042096918
0.0041401838
0.0040717464
0.0040062828
0.0039443365
0.0038855022
0.0038295341
0.0037762497
0.003725487
0.0036770946
0.0036307097
0.0035863558
0.0035436466
0.0035025852
0.0034630715
0.003424679
0.0033876202
0.0033517557
0.0033167177
0.0032826376
0.0032495039
0.0032170833
0.0031852307
0.0031541501
0.0031237217
0.0030936654
0.003064031
0.0030349675
0.0030063476
0.0029779376
0.0029497712
0.0029220253
0.0028946043
0.0028672502
0.0028400295
0.0028130167
0.0027862405
0.0027595206
0.0027327923
0.0027060739
0.0026795145
0.0026530185
0.0026263727
0.0025996423
0.0025728635
0.0025461074
0.0025192303
0.0024921189
0.0024647932
0.0024373574
0.0024098041
0.0023819325
0.0023537302
0.0023251825
0.0022964317
0.0022673892
0.0022378282
0.0022077961
0.0021773047
0.0021464268
0.0021150067
0.0020828926
0.0020500686
0.0020166743
0.0019826258
0.0019476451
0.0019117254
0.0018748988
0.0018371691
0.0017983022
0.00175812
0.0017166536
0.0016739047
0.0016296138
0.0015835096
0.0015356497
0.0014859306
0.001433968
0.001379531
0.0013226365
0.0012631196
0.0012014854
0.0011397846
0.0010791888
0.0010195251
0.00096068282
0.00090282804
0.0008458623
0.00078956591
0.00073398302
0.00067930991
0.00062556864
0.0005725947
0.0005205049
0.00046942205
0.00041967282
0.0003715699
0.00032507357
0.00028184728
0.0002403612
0.00021224579
0.00017587161
0.00029313755
-0.00023138508
0.0040318788
0.0040515564
0.0040946173
0.004149116
0.0042133708
0.0042873033
0.0043702559
0.0044615137
0.0045607406
0.0046679835
0.0047835893
0.0049082073
0.0050428694
0.0051891354
0.0053492931
0.0055267719
0.0057265751
0.0059570429
0.0062298918
0.0065724679
0.0070108725
0.007702723
0.0085871559
0.012509573
0.0091118513
0.0039980066
0.0038887222
0.0043606592
0.0044815405
0.0044242928
0.0043461914
0.004277546
0.0042097106
0.0041402007
0.0040717618
0.0040062969
0.0039443495
0.0038855142
0.0038295452
0.0037762601
0.0037254966
0.0036771036
0.0036307181
0.0035863637
0.0035436541
0.0035025923
0.0034630782
0.0034246853
0.0033876261
0.0033517614
0.0033167231
0.0032826427
0.0032495088
0.003217088
0.0031852351
0.0031541543
0.0031237258
0.0030936693
0.0030640347
0.0030349711
0.003006351
0.0029779408
0.0029497743
0.0029220283
0.0028946072
0.002867253
0.0028400322
0.0028130193
0.002786243
0.002759523
0.0027327946
0.0027060761
0.0026795167
0.0026530206
0.0026263747
0.0025996443
0.0025728653
0.0025461092
0.002519232
0.0024921205
0.0024647948
0.0024373589
0.0024098056
0.0023819339
0.0023537316
0.0023251839
0.0022964329
0.0022673904
0.0022378294
0.0022077972
0.0021773058
0.0021464279
0.0021150077
0.0020828936
0.0020500695
0.0020166752
0.0019826266
0.0019476459
0.0019117262
0.0018748996
0.0018371698
0.0017983029
0.0017581206
0.0017166542
0.0016739053
0.0016296144
0.0015835101
0.0015356502
0.0014859311
0.0014339684
0.0013795314
0.001322637
0.00126312
0.0012014858
0.001139785
0.0010791892
0.0010195254
0.00096068314
0.00090282834
0.00084586259
0.00078956619
0.00073398329
0.00067931017
0.00062556888
0.00057259493
0.00052050513
0.00046942227
0.00041967304
0.00037157011
0.00032507377
0.00028184747
0.00024036138
0.00021224598
0.00017587179
0.00029313777
-0.00023138495
0.0040318788
0.0040515564
0.0040946173
0.004149116
0.0042133708
0.0042873033
0.004370256
0.0044615137
0.0045607406
0.0046679835
0.0047835894
0.0049082073
0.0050428695
0.0051891355
0.0053492932
0.005526772
0.0057265753
0.0059570431
0.006229892
0.0065724682
0.007010873
0.0077027235
0.0085871583
0.012494782
0.0091129961
0.0039985846
0.0038888436
0.0043607085
0.0044815749
0.0044243219
0.0043462168
0.0042775685
0.0042097306
0.0041402188
0.0040717782
0.0040063119
0.0039443633
0.003885527
0.0038295571
0.0037762711
0.0037255069
0.0036771132
0.0036307271
0.0035863722
0.0035436621
0.0035025998
0.0034630853
0.003424692
0.0033876325
0.0033517674
0.0033167289
0.0032826482
0.003249514
0.0032170929
0.0031852399
0.0031541589
0.0031237301
0.0030936735
0.0030640386
0.0030349749
0.0030063547
0.0029779443
0.0029497777
0.0029220315
0.0028946102
0.0028672559
0.002840035
0.002813022
0.0027862456
0.0027595255
0.002732797
0.0027060785
0.0026795189
0.0026530228
0.0026263768
0.0025996463
0.0025728673
0.0025461111
0.0025192338
0.0024921223
0.0024647964
0.0024373606
0.0024098072
0.0023819354
0.002353733
0.0023251853
0.0022964343
0.0022673917
0.0022378306
0.0022077985
0.002177307
0.002146429
0.0021150088
0.0020828946
0.0020500705
0.0020166762
0.0019826276
0.0019476468
0.001911727
0.0018749004
0.0018371706
0.0017983036
0.0017581213
0.0017166549
0.001673906
0.001629615
0.0015835107
0.0015356508
0.0014859316
0.0014339689
0.0013795319
0.0013226374
0.0012631204
0.0012014862
0.0011397854
0.0010791896
0.0010195258
0.00096068348
0.00090282866
0.0008458629
0.00078956648
0.00073398357
0.00067931044
0.00062556914
0.00057259518
0.00052050537
0.00046942251
0.00041967326
0.00037157033
0.00032507398
0.00028184768
0.00024036159
0.00021224618
0.00017587198
0.000293138
-0.0002313848
0.0040318788
0.0040515564
0.0040946173
0.004149116
0.0042133708
0.0042873034
0.004370256
0.0044615137
0.0045607406
0.0046679836
0.0047835894
0.0049082074
0.0050428695
0.0051891356
0.0053492933
0.0055267721
0.0057265755
0.0059570433
0.0062298923
0.0065724686
0.0070108734
0.0077027238
0.0085871613
0.012479573
0.0091141631
0.0039991695
0.003888978
0.0043607633
0.0044816128
0.0044243538
0.0043462447
0.0042775931
0.0042097526
0.0041402386
0.0040717962
0.0040063284
0.0039443785
0.003885541
0.0038295701
0.0037762831
0.0037255181
0.0036771237
0.0036307369
0.0035863815
0.0035436708
0.003502608
0.003463093
0.0034246994
0.0033876394
0.003351774
0.0033167351
0.0032826541
0.0032495197
0.0032170983
0.003185245
0.0031541638
0.0031237348
0.003093678
0.003064043
0.003034979
0.0030063586
0.0029779481
0.0029497813
0.002922035
0.0028946136
0.0028672592
0.0028400381
0.002813025
0.0027862485
0.0027595283
0.0027327997
0.002706081
0.0026795214
0.0026530252
0.0026263791
0.0025996485
0.0025728694
0.0025461131
0.0025192358
0.0024921242
0.0024647983
0.0024373623
0.0024098089
0.0023819371
0.0023537346
0.0023251868
0.0022964357
0.0022673931
0.002237832
0.0022077998
0.0021773082
0.0021464302
0.0021150099
0.0020828957
0.0020500716
0.0020166772
0.0019826286
0.0019476478
0.001911728
0.0018749013
0.0018371715
0.0017983045
0.0017581221
0.0017166556
0.0016739067
0.0016296157
0.0015835113
0.0015356514
0.0014859322
0.0014339695
0.0013795324
0.0013226379
0.0012631209
0.0012014867
0.0011397858
0.00107919
0.0010195261
0.00096068384
0.00090282901
0.00084586323
0.0007895668
0.00073398388
0.00067931074
0.00062556942
0.00057259546
0.00052050563
0.00046942276
0.00041967351
0.00037157056
0.00032507421
0.0002818479
0.0002403618
0.0002122464
0.00017587219
0.00029313826
-0.00023138464
0.0040318788
0.0040515564
0.0040946174
0.004149116
0.0042133709
0.0042873034
0.004370256
0.0044615137
0.0045607407
0.0046679836
0.0047835895
0.0049082074
0.0050428696
0.0051891357
0.0053492934
0.0055267723
0.0057265756
0.0059570436
0.0062298925
0.006572469
0.0070108738
0.0077027241
0.0085871649
0.012463994
0.0091153621
0.0039998906
0.0038891316
0.0043608258
0.0044816557
0.0044243897
0.004346276
0.0042776208
0.0042097773
0.0041402608
0.0040718164
0.0040063469
0.0039443954
0.0038855566
0.0038295845
0.0037762966
0.0037255306
0.0036771354
0.0036307479
0.0035863917
0.0035436804
0.0035026171
0.0034631016
0.0034247075
0.0033876472
0.0033517813
0.0033167421
0.0032826607
0.0032495259
0.0032171043
0.0031852508
0.0031541693
0.00312374
0.003093683
0.0030640477
0.0030349836
0.003006363
0.0029779523
0.0029497853
0.0029220389
0.0028946173
0.0028672627
0.0028400416
0.0028130283
0.0027862517
0.0027595314
0.0027328026
0.0027060839
0.0026795241
0.0026530278
0.0026263817
0.0025996509
0.0025728718
0.0025461154
0.002519238
0.0024921263
0.0024648003
0.0024373643
0.0024098107
0.0023819389
0.0023537364
0.0023251885
0.0022964374
0.0022673947
0.0022378335
0.0022078012
0.0021773096
0.0021464315
0.0021150112
0.002082897
0.0020500728
0.0020166784
0.0019826296
0.0019476488
0.001911729
0.0018749022
0.0018371724
0.0017983053
0.0017581229
0.0017166565
0.0016739075
0.0016296164
0.001583512
0.0015356521
0.0014859328
0.0014339701
0.001379533
0.0013226385
0.0012631214
0.0012014871
0.0011397863
0.0010791904
0.0010195266
0.00096068424
0.0009028294
0.0008458636
0.00078956715
0.00073398422
0.00067931106
0.00062556974
0.00057259576
0.00052050592
0.00046942304
0.00041967378
0.00037157082
0.00032507447
0.00028184815
0.00024036204
0.00021224664
0.00017587242
0.00029313854
-0.00023138446
0.0040318788
0.0040515564
0.0040946174
0.004149116
0.0042133709
0.0042873034
0.004370256
0.0044615138
0.0045607407
0.0046679837
0.0047835895
0.0049082075
0.0050428697
0.0051891358
0.0053492936
0.0055267724
0.0057265758
0.0059570438
0.0062298929
0.0065724694
0.0070108743
0.0077027241
0.0085871692
0.012448096
0.0091162688
0.0040008501
0.0038893152
0.0043608998
0.0044817059
0.0044244314
0.0043463124
0.0042776528
0.0042098057
0.0041402864
0.0040718396
0.004006368
0.0039444149
0.0038855745
0.0038296011
0.003776312
0.003725545
0.0036771488
0.0036307604
0.0035864035
0.0035436914
0.0035026275
0.0034631114
0.0034247168
0.0033876559
0.0033517896
0.00331675
0.0032826682
0.0032495331
0.0032171111
0.0031852572
0.0031541754
0.0031237459
0.0030936886
0.0030640531
0.0030349888
0.003006368
0.0029779571
0.0029497899
0.0029220433
0.0028946215
0.0028672668
0.0028400454
0.002813032
0.0027862553
0.0027595348
0.0027328059
0.0027060871
0.0026795272
0.0026530307
0.0026263845
0.0025996537
0.0025728744
0.0025461179
0.0025192404
0.0024921287
0.0024648026
0.0024373665
0.0024098129
0.0023819409
0.0023537383
0.0023251904
0.0022964392
0.0022673964
0.0022378352
0.0022078028
0.0021773112
0.002146433
0.0021150127
0.0020828983
0.0020500741
0.0020166796
0.0019826309
0.00194765
0.0019117301
0.0018749033
0.0018371734
0.0017983063
0.0017581239
0.0017166574
0.0016739083
0.0016296172
0.0015835128
0.0015356528
0.0014859335
0.0014339708
0.0013795337
0.0013226391
0.001263122
0.0012014877
0.0011397868
0.0010791909
0.001019527
0.00096068469
0.00090282982
0.00084586401
0.00078956754
0.00073398459
0.00067931142
0.00062557008
0.00057259609
0.00052050624
0.00046942335
0.00041967408
0.00037157111
0.00032507475
0.00028184842
0.00024036231
0.0002122469
0.00017587267
0.00029313885
-0.00023138427
0.0040318788
0.0040515564
0.0040946174
0.004149116
0.0042133709
0.0042873034
0.0043702561
0.0044615138
0.0045607408
0.0046679837
0.0047835896
0.0049082076
0.0050428698
0.0051891359
0.0053492937
0.0055267726
0.0057265761
0.0059570441
0.0062298932
0.0065724698
0.0070108747
0.0077027239
0.0085871743
0.012431958
0.0091165526
0.0040021374
0.0038895482
0.0043609919
0.0044817673
0.0044244821
0.0043463563
0.0042776914
0.0042098399
0.0041403171
0.0040718674
0.0040063933
0.003944438
0.0038855959
0.0038296208
0.0037763302
0.0037255619
0.0036771646
0.0036307752
0.0035864173
0.0035437045
0.0035026397
0.003463123
0.0034247277
0.0033876662
0.0033517994
0.0033167592
0.003282677
0.0032495414
0.0032171191
0.0031852648
0.0031541827
0.0031237528
0.0030936952
0.0030640594
0.0030349948
0.0030063738
0.0029779626
0.0029497952
0.0029220484
0.0028946264
0.0028672715
0.0028400499
0.0028130364
0.0027862594
0.0027595388
0.0027328098
0.0027060908
0.0026795308
0.0026530342
0.0026263878
0.0025996569
0.0025728775
0.0025461209
0.0025192433
0.0024921314
0.0024648052
0.002437369
0.0024098153
0.0023819433
0.0023537406
0.0023251925
0.0022964413
0.0022673985
0.0022378371
0.0022078047
0.002177313
0.0021464347
0.0021150143
0.0020828999
0.0020500756
0.0020166811
0.0019826323
0.0019476513
0.0019117314
0.0018749045
0.0018371746
0.0017983075
0.001758125
0.0017166584
0.0016739093
0.0016296182
0.0015835137
0.0015356537
0.0014859344
0.0014339716
0.0013795344
0.0013226398
0.0012631227
0.0012014883
0.0011397874
0.0010791915
0.0010195276
0.0009606852
0.00090283031
0.00084586447
0.00078956799
0.00073398502
0.00067931183
0.00062557048
0.00057259647
0.00052050661
0.0004694237
0.00041967442
0.00037157145
0.00032507507
0.00028184873
0.00024036261
0.0002122472
0.00017587296
0.0002931392
-0.00023138405
0.0040318788
0.0040515564
0.0040946174
0.004149116
0.0042133709
0.0042873034
0.0043702561
0.0044615139
0.0045607408
0.0046679838
0.0047835897
0.0049082077
0.0050428699
0.005189136
0.0053492939
0.0055267728
0.0057265763
0.0059570444
0.0062298935
0.0065724702
0.0070108752
0.0077027234
0.0085871805
0.012415687
0.0091165302
0.0040038609
0.0038898625
0.0043611135
0.0044818467
0.0044245469
0.0043464122
0.0042777402
0.0042098831
0.0041403556
0.0040719022
0.004006425
0.003944467
0.0038856224
0.0038296453
0.0037763528
0.0037255829
0.0036771842
0.0036307934
0.0035864344
0.0035437205
0.0035026548
0.0034631371
0.003424741
0.0033876788
0.0033518113
0.0033167705
0.0032826878
0.0032495516
0.0032171288
0.0031852741
0.0031541915
0.0031237612
0.0030937032
0.0030640671
0.0030350021
0.0030063808
0.0029779693
0.0029498016
0.0029220545
0.0028946323
0.0028672771
0.0028400554
0.0028130416
0.0027862644
0.0027595436
0.0027328144
0.0027060952
0.0026795351
0.0026530383
0.0026263918
0.0025996607
0.0025728812
0.0025461244
0.0025192466
0.0024921347
0.0024648084
0.002437372
0.0024098182
0.0023819461
0.0023537433
0.0023251951
0.0022964438
0.0022674009
0.0022378394
0.0022078069
0.0021773151
0.0021464368
0.0021150163
0.0020829018
0.0020500775
0.0020166828
0.001982634
0.0019476529
0.0019117329
0.001874906
0.001837176
0.0017983088
0.0017581263
0.0017166596
0.0016739105
0.0016296193
0.0015835148
0.0015356547
0.0014859353
0.0014339725
0.0013795353
0.0013226406
0.0012631234
0.0012014891
0.0011397881
0.0010791921
0.0010195282
0.0009606858
0.00090283088
0.00084586502
0.00078956851
0.00073398552
0.00067931231
0.00062557094
0.00057259691
0.00052050704
0.00046942412
0.00041967482
0.00037157183
0.00032507544
0.0002818491
0.00024036296
0.00021224756
0.00017587329
0.00029313962
-0.00023138379
0.0040318788
0.0040515564
0.0040946174
0.0041491161
0.0042133709
0.0042873035
0.0043702561
0.0044615139
0.0045607409
0.0046679839
0.0047835898
0.0049082078
0.0050428701
0.0051891362
0.0053492941
0.0055267731
0.0057265766
0.0059570448
0.0062298939
0.0065724706
0.0070108756
0.0077027223
0.008587188
0.01239939
0.0091166477
0.0040061675
0.0038903114
0.0043612848
0.0044819558
0.0044246348
0.0043464874
0.0042778056
0.0042099406
0.0041404068
0.0040719481
0.0040064666
0.0039445049
0.0038856571
0.0038296772
0.0037763823
0.0037256102
0.0036772095
0.003630817
0.0035864564
0.0035437411
0.0035026741
0.0034631554
0.0034247582
0.003387695
0.0033518266
0.003316785
0.0032827015
0.0032495646
0.0032171411
0.0031852858
0.0031542027
0.0031237719
0.0030937134
0.0030640768
0.0030350114
0.0030063896
0.0029779778
0.0029498097
0.0029220623
0.0028946398
0.0028672843
0.0028400622
0.0028130482
0.0027862707
0.0027595497
0.0027328202
0.0027061008
0.0026795404
0.0026530434
0.0026263967
0.0025996654
0.0025728857
0.0025461288
0.0025192509
0.0024921387
0.0024648123
0.0024373758
0.0024098218
0.0023819495
0.0023537466
0.0023251983
0.0022964469
0.0022674038
0.0022378423
0.0022078097
0.0021773178
0.0021464393
0.0021150187
0.0020829042
0.0020500797
0.002016685
0.001982636
0.0019476549
0.0019117348
0.0018749078
0.0018371777
0.0017983105
0.0017581278
0.0017166611
0.0016739119
0.0016296206
0.0015835161
0.0015356559
0.0014859365
0.0014339736
0.0013795363
0.0013226416
0.0012631244
0.0012014899
0.0011397889
0.0010791929
0.001019529
0.00096068653
0.00090283157
0.00084586568
0.00078956914
0.00073398612
0.00067931289
0.0006255715
0.00057259745
0.00052050755
0.00046942461
0.0004196753
0.0003715723
0.00032507589
0.00028184954
0.00024036339
0.00021224798
0.0001758737
0.00029314011
-0.00023138347
0.0040318788
0.0040515564
0.0040946174
0.0041491161
0.004213371
0.0042873035
0.0043702562
0.004461514
0.0045607409
0.0046679839
0.0047835899
0.0049082079
0.0050428702
0.0051891364
0.0053492943
0.0055267733
0.0057265769
0.0059570451
0.0062298943
0.0065724709
0.0070108759
0.0077027206
0.008587197
0.012383153
0.0091169527
0.0040093189
0.0038909771
0.0043615405
0.0044821148
0.0044247609
0.0043465943
0.0042778977
0.0042100211
0.004140478
0.0040720119
0.0040065241
0.0039445571
0.0038857048
0.003829721
0.0037764226
0.0037256474
0.003677244
0.0036308491
0.0035864863
0.0035437691
0.0035027003
0.0034631799
0.0034247813
0.0033877168
0.0033518471
0.0033168044
0.0032827198
0.003249582
0.0032171576
0.0031853015
0.0031542176
0.0031237861
0.0030937269
0.0030640897
0.0030350237
0.0030064014
0.002977989
0.0029498205
0.0029220725
0.0028946496
0.0028672937
0.0028400712
0.0028130568
0.002786279
0.0027595576
0.0027328279
0.0027061081
0.0026795474
0.0026530502
0.0026264032
0.0025996717
0.0025728917
0.0025461345
0.0025192564
0.002492144
0.0024648174
0.0024373807
0.0024098265
0.0023819541
0.002353751
0.0023252025
0.0022964509
0.0022674077
0.002237846
0.0022078132
0.0021773212
0.0021464426
0.0021150218
0.0020829072
0.0020500826
0.0020166878
0.0019826387
0.0019476574
0.0019117372
0.0018749101
0.00183718
0.0017983126
0.0017581299
0.0017166631
0.0016739138
0.0016296224
0.0015835178
0.0015356575
0.001485938
0.001433975
0.0013795377
0.0013226429
0.0012631256
0.0012014911
0.00113979
0.001079194
0.0010195299
0.00096068745
0.00090283245
0.00084586651
0.00078956994
0.00073398689
0.00067931362
0.0006255722
0.00057259813
0.0005205082
0.00046942524
0.0004196759
0.00037157288
0.00032507646
0.00028185009
0.00024036392
0.00021224851
0.0001758742
0.00029314073
-0.00023138308
0.0040318788
0.0040515564
0.0040946174
0.0041491161
0.004213371
0.0042873036
0.0043702562
0.004461514
0.004560741
0.004667984
0.00478359
0.0049082081
0.0050428704
0.0051891366
0.0053492946
0.0055267736
0.0057265773
0.0059570455
0.0062298947
0.0065724712
0.0070108761
0.007702718
0.0085872077
0.012367
0.0091173509
0.0040136662
0.0038919725
0.0043619343
0.004482356
0.004424949
0.0043467524
0.0042780331
0.0042101386
0.0041405815
0.004072104
0.0040066069
0.0039446321
0.0038857731
0.0038297834
0.0037764799
0.0037257003
0.0036772929
0.0036308945
0.0035865285
0.0035438084
0.0035027371
0.0034632144
0.0034248137
0.0033877473
0.0033518759
0.0033168315
0.0032827455
0.0032496063
0.0032171806
0.0031853233
0.0031542383
0.0031238058
0.0030937456
0.0030641075
0.0030350407
0.0030064176
0.0029780045
0.0029498353
0.0029220867
0.0028946631
0.0028673066
0.0028400836
0.0028130687
0.0027862904
0.0027595685
0.0027328383
0.0027061182
0.0026795571
0.0026530594
0.0026264121
0.0025996802
0.0025728999
0.0025461424
0.0025192639
0.0024921513
0.0024648243
0.0024373874
0.0024098329
0.0023819602
0.0023537569
0.0023252082
0.0022964563
0.0022674129
0.002237851
0.002207818
0.0021773258
0.002146447
0.0021150261
0.0020829112
0.0020500865
0.0020166915
0.0019826422
0.0019476608
0.0019117405
0.0018749132
0.0018371829
0.0017983154
0.0017581326
0.0017166656
0.0016739162
0.0016296247
0.00158352
0.0015356596
0.00148594
0.0014339769
0.0013795394
0.0013226445
0.0012631272
0.0012014926
0.0011397914
0.0010791953
0.0010195312
0.00096068866
0.0009028336
0.00084586761
0.00078957099
0.00073398789
0.00067931459
0.00062557312
0.00057259901
0.00052050906
0.00046942606
0.0004196767
0.00037157365
0.0003250772
0.00028185081
0.00024036462
0.00021224921
0.00017587486
0.00029314155
-0.00023138257
0.0040318788
0.0040515564
0.0040946175
0.0041491161
0.004213371
0.0042873036
0.0043702563
0.0044615141
0.0045607411
0.0046679841
0.0047835901
0.0049082082
0.0050428706
0.0051891368
0.0053492948
0.005526774
0.0057265776
0.0059570459
0.006229895
0.0065724714
0.0070108762
0.0077027139
0.0085872207
0.012350882
0.0091177426
0.0040193564
0.0038934283
0.0043625424
0.0044827259
0.0044252339
0.00434699
0.0042782354
0.0042103135
0.0041407348
0.0040722401
0.0040067288
0.0039447421
0.003885873
0.0038298745
0.0037765635
0.0037257771
0.0036773639
0.0036309602
0.0035865896
0.0035438654
0.0035027903
0.0034632642
0.0034248604
0.0033877911
0.0033519172
0.0033168704
0.0032827822
0.0032496411
0.0032172135
0.0031853545
0.0031542679
0.0031238339
0.0030937724
0.003064133
0.003035065
0.0030064408
0.0029780266
0.0029498564
0.0029221068
0.0028946824
0.002867325
0.0028401012
0.0028130855
0.0027863065
0.002759584
0.0027328531
0.0027061324
0.0026795707
0.0026530725
0.0026264246
0.0025996922
0.0025729114
0.0025461534
0.0025192745
0.0024921615
0.0024648341
0.0024373967
0.0024098419
0.0023819688
0.0023537652
0.0023252161
0.0022964639
0.0022674202
0.002237858
0.0022078247
0.0021773322
0.0021464532
0.002115032
0.0020829169
0.0020500919
0.0020166967
0.0019826472
0.0019476656
0.001911745
0.0018749176
0.001837187
0.0017983193
0.0017581363
0.0017166692
0.0016739196
0.001629628
0.001583523
0.0015356625
0.0014859427
0.0014339795
0.0013795419
0.0013226469
0.0012631294
0.0012014947
0.0011397934
0.0010791971
0.001019533
0.00096069032
0.00090283519
0.00084586912
0.00078957244
0.00073398927
0.00067931591
0.00062557439
0.00057260023
0.00052051022
0.00046942719
0.00041967778
0.00037157469
0.00032507821
0.00028185179
0.00024036557
0.00021225016
0.00017587576
0.00029314265
-0.00023138188
0.0040318788
0.0040515565
0.0040946175
0.0041491162
0.0042133711
0.0042873037
0.0043702564
0.0044615142
0.0045607412
0.0046679843
0.0047835903
0.0049082084
0.0050428708
0.0051891371
0.0053492951
0.0055267743
0.005726578
0.0059570463
0.0062298953
0.0065724715
0.0070108759
0.0077027081
0.0085872362
0.012334671
0.0091180267
0.004026214
0.003895474
0.0043634599
0.0044832839
0.0044256598
0.0043473437
0.0042785358
0.0042105726
0.0041409614
0.0040724407
0.0040069082
0.0039449037
0.0038860195
0.003830008
0.0037766856
0.0037258894
0.0036774675
0.0036310561
0.0035866786
0.0035439482
0.0035028676
0.0034633365
0.0034249281
0.0033878548
0.0033519771
0.0033169269
0.0032828355
0.0032496914
0.0032172612
0.0031853997
0.0031543108
0.0031238746
0.0030938111
0.0030641698
0.0030351
0.0030064742
0.0029780585
0.0029498868
0.0029221359
0.0028947101
0.0028673515
0.0028401266
0.0028131098
0.0027863298
0.0027596062
0.0027328744
0.0027061528
0.0026795902
0.0026530912
0.0026264426
0.0025997094
0.0025729279
0.0025461693
0.0025192898
0.0024921761
0.0024648481
0.0024374102
0.0024098548
0.0023819812
0.002353777
0.0023252275
0.0022964748
0.0022674307
0.002237868
0.0022078343
0.0021773414
0.002146462
0.0021150404
0.002082925
0.0020500996
0.0020167041
0.0019826542
0.0019476723
0.0019117515
0.0018749237
0.0018371929
0.0017983249
0.0017581416
0.0017166743
0.0016739244
0.0016296325
0.0015835274
0.0015356666
0.0014859466
0.0014339832
0.0013795454
0.0013226502
0.0012631325
0.0012014976
0.0011397961
0.0010791998
0.0010195354
0.00096069268
0.00090283742
0.00084587125
0.00078957447
0.00073399121
0.00067931776
0.00062557617
0.00057260194
0.00052051187
0.00046942877
0.0004196793
0.00037157616
0.00032507963
0.00028185317
0.00024036691
0.00021225149
0.00017587703
0.00029314421
-0.0002313809
0.0040318788
0.0040515565
0.0040946175
0.0041491162
0.0042133711
0.0042873037
0.0043702564
0.0044615143
0.0045607413
0.0046679844
0.0047835904
0.0049082086
0.005042871
0.0051891373
0.0053492954
0.0055267746
0.0057265784
0.0059570467
0.0062298956
0.0065724712
0.0070108751
0.0077026998
0.0085872548
0.012318214
0.0091180574
0.0040340757
0.0038982332
0.0043647889
0.0044840966
0.0044262758
0.0043478539
0.004278969
0.0042109462
0.004141288
0.0040727298
0.0040071665
0.0039451363
0.0038862301
0.0038301999
0.0037768612
0.0037260507
0.0036776162
0.0036311937
0.0035868063
0.003544067
0.0035029785
0.0034634402
0.0034250253
0.003387946
0.0033520629
0.0033170077
0.0032829118
0.0032497635
0.0032173294
0.0031854643
0.0031543721
0.0031239328
0.0030938665
0.0030642225
0.0030351502
0.003006522
0.0029781041
0.0029499303
0.0029221774
0.0028947498
0.0028673895
0.0028401629
0.0028131445
0.002786363
0.0027596381
0.0027329049
0.002706182
0.0026796183
0.0026531181
0.0026264683
0.0025997341