/*--------------------------------*- C++ -*----------------------------------*\
  =========                 |
  \\      /  F ield         | OpenFOAM: The Open Source CFD Toolbox
   \\    /   O peration     | Website:  https://openfoam.org
    \\  /    A nd           | Version:  12
     \\/     M anipulation  |
\*---------------------------------------------------------------------------*/
FoamFile
{
    format      ascii;
    class       volScalarField;
    location    "300";
    object      p;
}
// * * * * * * * * * * * * * * * * * * * * * * * * * * * * * * * * * * * * * //

dimensions      [0 2 -2 0 0 0 0];

internalField   nonuniform List<scalar> 
7480
(
0.0087171303
0.0081282329
0.0070200814
0.0064119326
0.00611214
0.0058666329
0.0056061485
0.0053525742
0.0051125002
0.004874657
0.0046319324
0.004383427
0.004140113
0.0039217445
0.0037516054
0.0036405125
0.0035870978
0.003552148
0.003527621
0.0035144968
0.0035037221
0.003493088
0.0034813637
0.0034548996
0.0034160332
0.0033731474
0.0033304068
0.0032901591
0.0032497716
0.0032099165
0.0031715114
0.0031345401
0.0030995755
0.00306463
0.0030263381
0.0029852304
0.0029430685
0.002901413
0.0028616097
0.0028235166
0.0027864605
0.002750436
0.0027154992
0.0026815899
0.0026483063
0.0026150603
0.0025813965
0.002547651
0.00251392
0.0024788771
0.0024411316
0.002403228
0.0023676097
0.0023346105
0.0023020312
0.0022684714
0.0022331433
0.0021953491
0.0021561746
0.002116993
0.0020777792
0.0020380728
0.0019979507
0.001957465
0.0019163878
0.0018747463
0.0018326767
0.0017901013
0.0017469872
0.0017033933
0.0016591971
0.0016143571
0.0015689313
0.0015227999
0.0014759713
0.0014284556
0.0013801147
0.0013309865
0.0012810414
0.0012300982
0.0011783739
0.0011255275
0.0010712342
0.0010158398
0.00095826584
0.00089060652
0.00081686276
0.00076201124
0.00070786902
0.00065015842
0.00059209379
0.00053549505
0.00048021484
0.00042550646
0.00037321065
0.0003203194
0.00028390601
0.00022600448
0.00038488951
-0.00027974801
0.0082807903
0.0076994672
0.0068348618
0.0063081391
0.0060393486
0.0058144993
0.0055723073
0.0053354434
0.0051150335
0.004902796
0.0046926626
0.0044831872
0.0042825594
0.0041021652
0.0039522696
0.0038385925
0.003755155
0.003700439
0.0036594332
0.0036252259
0.0035934012
0.0035601259
0.0035206079
0.0034755249
0.0034285836
0.0033815362
0.0033375157
0.0032968341
0.00325691
0.0032177923
0.0031799738
0.0031433413
0.0031080961
0.0030724235
0.0030337342
0.002992671
0.0029508042
0.0029094968
0.0028699015
0.0028317749
0.0027944779
0.0027581017
0.0027227673
0.0026884549
0.002654688
0.0026208784
0.0025866676
0.0025522103
0.0025176198
0.0024817798
0.0024443395
0.0024072395
0.0023724271
0.0023394017
0.0023063023
0.0022722117
0.0022365359
0.0021985727
0.0021593052
0.0021200332
0.0020807274
0.0020409329
0.0020007284
0.0019601629
0.0019190049
0.0018772824
0.0018351306
0.00179247
0.0017492688
0.0017055881
0.0016613061
0.0016163823
0.0015708747
0.0015246635
0.0014777574
0.0014301666
0.0013817544
0.0013325607
0.0012825539
0.001231552
0.0011797715
0.0011268706
0.0010725225
0.0010170642
0.00095924783
0.00089012273
0.00081948393
0.00076662784
0.00071216116
0.00065347713
0.00059474201
0.00053765584
0.00048199011
0.00042698957
0.00037449058
0.00032145018
0.00028492397
0.00022701498
0.00038594584
-0.00027898092
0.007989753
0.0075790463
0.0069019842
0.0063869205
0.006096895
0.0058590499
0.0056106067
0.00536689
0.0051393037
0.0049197262
0.0047018333
0.0044828545
0.0042708939
0.004076813
0.0039124967
0.0037867613
0.0036999497
0.0036495386
0.0036202201
0.003597453
0.0035745155
0.0035485672
0.0035177214
0.0034842898
0.0034477924
0.0034080787
0.0033669936
0.0033253127
0.0032834424
0.0032417492
0.0032007624
0.0031605219
0.003121673
0.0030833514
0.0030432904
0.003001614
0.0029594817
0.0029180759
0.0028784465
0.0028402608
0.0028028289
0.0027662593
0.0027306842
0.0026961049
0.0026619483
0.0026276309
0.0025929216
0.002558029
0.0025229771
0.0024868231
0.0024494044
0.0024121523
0.0023769645
0.0023434793
0.0023100437
0.0022757717
0.0022400053
0.0022020147
0.0021627262
0.0021234013
0.0020840133
0.0020441195
0.0020038111
0.0019631407
0.0019218788
0.0018800586
0.0018378136
0.00179506
0.0017517664
0.0017079951
0.0016636249
0.0016186157
0.0015730257
0.0015267344
0.0014797512
0.0014320859
0.001383601
0.0013343359
0.0012842596
0.001233191
0.001181347
0.0011283851
0.0010739803
0.0010184795
0.00096052439
0.00089094336
0.00082372109
0.00077107814
0.00071614378
0.00065693214
0.00059775088
0.00054024276
0.00048419908
0.00042889355
0.0003761568
0.00032291118
0.0002862282
0.00022831714
0.00038716279
-0.00027802039
0.0077640599
0.0074468285
0.006850745
0.0063462627
0.0060458167
0.0058103862
0.0055700367
0.0053330181
0.0051112378
0.0048984352
0.004688435
0.0044788418
0.0042775248
0.0040945293
0.0039407374
0.0038235125
0.0037424147
0.0036921971
0.0036584651
0.003628233
0.003597148
0.0035640908
0.0035282857
0.003490931
0.003450987
0.0034092639
0.0033667871
0.0033242563
0.0032834169
0.0032440852
0.0032060313
0.0031689286
0.0031320921
0.0030943916
0.0030546302
0.0030128071
0.0029699609
0.0029274391
0.0028866742
0.0028476443
0.002809676
0.0027727373
0.0027368752
0.0027021206
0.002667837
0.0026333442
0.0025983976
0.0025633214
0.0025279934
0.0024915399
0.0024538372
0.0024162359
0.002380687
0.0023469154
0.0023133026
0.0022789107
0.0022430622
0.0022050547
0.002165769
0.0021264117
0.0020869565
0.0020469823
0.0020065965
0.0019658479
0.0019245056
0.0018826111
0.0018402937
0.0017974636
0.0017540914
0.0017102417
0.0016657931
0.0016207064
0.0015750401
0.0015286732
0.0014816157
0.0014338777
0.0013853197
0.0013359813
0.001285833
0.0012346938
0.0011827821
0.0011297541
0.0010752887
0.0010197343
0.00096176863
0.00089337159
0.00082724453
0.00077408151
0.00071881847
0.0006593724
0.00059994909
0.00054219864
0.00048594399
0.00043045052
0.00037754119
0.00032414477
0.00028734806
0.00022932711
0.00038820929
-0.00027721199
0.0075576663
0.0072962665
0.0067813022
0.0063227237
0.0060321012
0.0058053499
0.0055736973
0.0053416848
0.0051224883
0.0049121141
0.0047050785
0.0044993476
0.0043017843
0.0041214458
0.0039677372
0.003847398
0.0037604091
0.0037021587
0.0036611042
0.0036261611
0.0035930072
0.003559744
0.0035247671
0.003488167
0.0034490978
0.0034082122
0.00336626
0.0033241075
0.0032834202
0.0032439971
0.0032057939
0.0031688794
0.0031320808
0.0030943435
0.0030554211
0.00301519
0.002974362
0.0029338014
0.0028941031
0.0028553516
0.0028173521
0.0027799777
0.0027433656
0.0027078881
0.0026731113
0.002638307
0.0026031252
0.0025678886
0.0025324205
0.002495815
0.0024579625
0.0024202232
0.0023844907
0.002350494
0.0023166723
0.0022821017
0.0022461223
0.0022080666
0.0021687637
0.0021293593
0.0020898356
0.0020497901
0.0020093391
0.0019685208
0.0019271061
0.0018851499
0.0018427695
0.0017998683
0.0017564229
0.0017125001
0.0016679775
0.0016228169
0.0015770773
0.0015306369
0.0014835067
0.0014356967
0.001387067
0.0013376581
0.0012874402
0.0012362322
0.0011842544
0.0011311611
0.0010766328
0.0010210156
0.00096305011
0.00089569208
0.00083021794
0.0007768984
0.00072144485
0.00066179622
0.00060213967
0.00054415826
0.00048769921
0.000432015
0.000378931
0.00032539284
0.00028848162
0.00023031498
0.00038922816
-0.00027631812
0.0073686965
0.007150753
0.0067134987
0.006300404
0.0060145484
0.005787739
0.0055593606
0.005330142
0.0051127427
0.0049053396
0.0047012929
0.0045007605
0.0043084642
0.0041326225
0.0039818832
0.0038624843
0.0037747778
0.0037146015
0.0036719296
0.003636325
0.0036027836
0.0035689525
0.0035332433
0.0034956851
0.0034558557
0.0034143401
0.0033718672
0.0033293273
0.0032880896
0.0032480694
0.0032092229
0.0031714884
0.0031337361
0.0030951717
0.0030556969
0.0030151687
0.0029743277
0.0029339591
0.0028942996
0.0028558039
0.0028187038
0.0027826671
0.0027474155
0.002712711
0.0026781744
0.0026433698
0.0026079102
0.0025722318
0.0025363905
0.0024995522
0.0024615788
0.0024237883
0.0023879619
0.0023538004
0.0023198096
0.0022851044
0.0022490335
0.0022109428
0.002171623
0.0021321819
0.0020926102
0.0020525112
0.0020120098
0.0019711348
0.0019296608
0.0018876549
0.0018452223
0.0018022606
0.0017587524
0.0017147665
0.0016701791
0.0016249531
0.001579148
0.0015326409
0.0014854444
0.0014375683
0.0013888721
0.0013393979
0.0012891151
0.0012378426
0.0011858025
0.0011326472
0.0010780581
0.0010223772
0.00096439161
0.00089773189
0.00083297633
0.00077978691
0.00072427416
0.00066446566
0.00060457888
0.00054634617
0.0004896462
0.00043374408
0.0003804705
0.00032677326
0.00028972166
0.00023139706
0.00039026541
-0.00027522871
0.0071961541
0.0070121994
0.0066407994
0.0062686213
0.005989929
0.0057654393
0.0055438173
0.0053212628
0.005108599
0.0049061343
0.0047060646
0.0045110732
0.0043240205
0.0041524512
0.0040043557
0.0038853796
0.0037960558
0.0037325731
0.0036861255
0.0036471782
0.003610698
0.0035744208
0.0035369661
0.003498208
0.0034577596
0.003415956
0.0033734178
0.0033309266
0.0032896302
0.0032495708
0.0032106631
0.0031727843
0.0031349799
0.0030965156
0.0030571893
0.0030168198
0.0029760307
0.0029354971
0.0028955119
0.0028566821
0.0028193
0.0027831061
0.0027478014
0.002712969
0.002678557
0.002644413
0.0026100483
0.0025752301
0.0025397453
0.002503119
0.0024651616
0.0024271955
0.0023910931
0.0023566606
0.0023224659
0.0022876414
0.0022515279
0.0022134481
0.0021741475
0.0021347068
0.002095123
0.0020549996
0.0020144741
0.0019735687
0.001932058
0.0018900185
0.0018475498
0.0018045456
0.0017609915
0.001716958
0.0016723199
0.0016270416
0.0015811831
0.0015346205
0.0014873679
0.0014394349
0.0013906807
0.0013411487
0.0012908078
0.0012394765
0.00118738
0.0011341676
0.0010795219
0.00102378
0.0009657649
0.00089967352
0.00083563769
0.00078262375
0.00072711672
0.00066720418
0.000607118
0.00054864392
0.00049170081
0.00043557595
0.00038210616
0.00032824149
0.00029103259
0.00023254195
0.00039127532
-0.00027392902
0.0070380086
0.0068802345
0.0065637647
0.0062303347
0.0059630327
0.0057428237
0.0055280749
0.0053118591
0.0051033469
0.0049040425
0.004708233
0.0045176737
0.0043351459
0.004167418
0.0040217263
0.0039031531
0.0038123791
0.0037460073
0.0036963597
0.0036548589
0.0036165337
0.003579037
0.0035409377
0.0035018246
0.0034612629
0.0034194409
0.0033769268
0.0033344481
0.0032930183
0.0032527778
0.0032136236
0.0031754156
0.0031373354
0.0030986638
0.0030591656
0.0030187165
0.0029778747
0.0029372988
0.0028973358
0.0028585235
0.0028210766
0.0027847128
0.0027490977
0.0027138758
0.0026791145
0.0026447222
0.0026103034
0.0025753795
0.0025398259
0.0025036202
0.0024665346
0.002429397
0.0023936643
0.0023593125
0.0023250056
0.0022899566
0.0022536759
0.002215545
0.0021762408
0.0021368086
0.0020972438
0.0020571315
0.0020166177
0.0019757178
0.0019342007
0.0018921525
0.0018496715
0.001806647
0.0017630678
0.001719006
0.0016743349
0.0016290205
0.0015831241
0.0015365199
0.0014892241
0.0014412462
0.0013924447
0.0013428648
0.0012924745
0.0012410925
0.001188947
0.001135684
0.0010809874
0.001025189
0.00096714529
0.00090159172
0.00083821912
0.00078534992
0.00072987401
0.00066989941
0.00060964735
0.00055095443
0.00049378272
0.0004374437
0.00038378064
0.00032975017
0.00029237564
0.00023371153
0.00039220946
-0.00027240495
0.0068923276
0.006754937
0.0064843134
0.0061870636
0.0059334762
0.0057183152
0.0055099799
0.0053002124
0.0050963731
0.004900946
0.0047099814
0.0045241764
0.004346494
0.0041829164
0.0040399194
0.0039221024
0.003830265
0.0037614248
0.003708878
0.0036649165
0.0036246559
0.003585646
0.0035464274
0.0035064341
0.0034652513
0.0034230021
0.0033802034
0.0033375232
0.0032958429
0.003255349
0.0032159263
0.0031774122
0.0031390851
0.0031002524
0.0030606691
0.0030202475
0.0029794709
0.0029389585
0.0028990589
0.0028602381
0.0028227036
0.0027862244
0.0027504972
0.0027152143
0.0026803988
0.0026459054
0.002611301
0.0025761046
0.0025402907
0.0025039277
0.0024668617
0.0024297383
0.0023939272
0.0023597351
0.002325958
0.0022914141
0.0022553919
0.0022174408
0.0021781633
0.00213865
0.0020990213
0.0020588844
0.0020183767
0.0019775033
0.0019360087
0.0018939819
0.0018515186
0.0018085011
0.0017649216
0.0017208549
0.0016761717
0.0016308407
0.0015849244
0.0015382951
0.0014909716
0.0014429632
0.0013941273
0.0013445117
0.0012940832
0.0012426603
0.0011904753
0.0011371702
0.0010824302
0.0010265815
0.00096851455
0.00090348306
0.00084072021
0.00078796655
0.00073253255
0.0006725239
0.00061213356
0.00055324433
0.00049586079
0.00043931928
0.00038546949
0.00033127846
0.00029373253
0.00023488786
0.0003930316
-0.00027062556
0.0067573259
0.0066361395
0.0064036743
0.0061393972
0.0059008277
0.0056917764
0.0054900035
0.0052871315
0.0050886278
0.0048975373
0.0047113343
0.0045302142
0.0043571628
0.0041974977
0.0040570158
0.0039399053
0.0038470526
0.0037758727
0.0037205145
0.003674078
0.0036318405
0.0035912965
0.003550981
0.0035102167
0.0034685723
0.0034260856
0.0033831859
0.0033404638
0.0032986764
0.0032580344
0.0032184246
0.003179668
0.0031411285
0.0031021547
0.0030624959
0.0030220855
0.0029813428
0.0029408474
0.0029009516
0.0028620791
0.0028244426
0.0027878494
0.0027520108
0.0027166338
0.0026816998
0.0026470649
0.0026123334
0.0025770721
0.002541246
0.0025048779
0.0024677931
0.0024305599
0.0023945129
0.0023600614
0.0023261434
0.0022914606
0.0022553748
0.0022177425
0.0021790344
0.0021399568
0.0021005296
0.0020604674
0.0020199215
0.0019790045
0.0019374941
0.0018954759
0.0018530403
0.0018100512
0.0017664971
0.0017224518
0.001677781
0.0016324563
0.001586541
0.0015399058
0.0014925723
0.0014445497
0.0013956947
0.0013460576
0.0012956039
0.0012441522
0.0011919392
0.0011386021
0.0010838278
0.0010279375
0.00096985437
0.00090532847
0.0008431344
0.00079047475
0.00073508829
0.00067506685
0.00061456212
0.00055549795
0.00049791951
0.0004411882
0.00038715967
0.00033281462
0.00029509211
0.00023605971
0.00039371
-0.00026855063
0.0066315659
0.0065235402
0.0063227819
0.0060880855
0.0058652387
0.0056634304
0.0054684297
0.0052726299
0.0050798252
0.0048933107
0.0047118118
0.004535417
0.0043669488
0.0042111682
0.0040732658
0.0039570486
0.0038634518
0.0037902592
0.0037323713
0.003683633
0.0036395353
0.0035975435
0.0035561766
0.0035146612
0.0034725293
0.0034297441
0.0033866567
0.0033437934
0.003301812
0.0032609391
0.0032210723
0.003182022
0.0031432249
0.0031040734
0.0030643104
0.0030238827
0.0029831571
0.0029426729
0.0029027842
0.0028638778
0.0028261603
0.0027894653
0.0027535162
0.0027180359
0.0026829829
0.0026482227
0.002613389
0.0025780718
0.0025422052
0.0025058007
0.0024687292
0.0024315364
0.0023954668
0.0023608999
0.0023267959
0.002291877
0.0022555862
0.0022178713
0.0021791678
0.0021400583
0.0021006981
0.0020610143
0.0020208737
0.0019801866
0.0019387944
0.0018967815
0.0018543225
0.0018113225
0.0017677797
0.0017237621
0.001679121
0.0016338242
0.0015879327
0.0015413128
0.0014939894
0.0014459714
0.001397114
0.0013474713
0.0012970072
0.0012455401
0.0011933122
0.001139955
0.0010851575
0.0010292358
0.00097114509
0.00090710802
0.00084544703
0.00079286278
0.0007375279
0.0006775127
0.00061691622
0.00055769862
0.00049994322
0.00044303621
0.00038883834
0.00033434702
0.00029644332
0.00023721545
0.00039421161
-0.00026613398
0.006513885
0.0064167439
0.0062423457
0.0060338922
0.0058269264
0.0056333141
0.0054452864
0.005256629
0.0050698358
0.0048882047
0.004711498
0.0045399022
0.0043759924
0.0042240553
0.0040887463
0.0039735247
0.0038793548
0.0038043653
0.0037441268
0.0036931692
0.0036472345
0.0036037876
0.0035613318
0.0035190228
0.003476357
0.0034332373
0.0033899421
0.0033469336
0.0033047787
0.0032637028
0.0032236125
0.0031843087
0.0031452877
0.0031059854
0.0030661408
0.0030257098
0.0029850143
0.0029445535
0.0029046783
0.0028657427
0.0028279442
0.0027911423
0.0027550773
0.00271949
0.0026843209
0.0026494387
0.0026144985
0.0025791101
0.0025431883
0.0025067472
0.0024696979
0.0024325473
0.0023964356
0.0023617288
0.0023274693
0.002292451
0.0022561271
0.0022184116
0.0021796584
0.0021404167
0.0021009247
0.0020612008
0.0020210144
0.0019803127
0.0019391597
0.0018975055
0.001855301
0.0018124191
0.0017688947
0.0017248646
0.0016802185
0.0016349371
0.0015890747
0.0015424842
0.0014951898
0.0014471958
0.0013983543
0.0013487236
0.0012982652
0.0012467974
0.0011945691
0.0011412048
0.001086396
0.0010304552
0.00097236653
0.00090880089
0.00084763735
0.00079511118
0.00073983216
0.00067984196
0.00061917637
0.00055982767
0.00050191472
0.0004448478
0.00039049149
0.00033586307
0.00029777428
0.00023834289
0.00039447756
-0.00026332578
0.0064033145
0.0063153162
0.0061628849
0.0059775197
0.0057861475
0.0056014629
0.005420642
0.0052391774
0.0050586565
0.0048821992
0.0047103765
0.0045435965
0.0043841976
0.004236051
0.0041033442
0.0039892231
0.0038946673
0.0038181209
0.0037557506
0.0037027102
0.0036550166
0.0036101618
0.003566638
0.0035235483
0.0034803536
0.0034369009
0.0033933971
0.0033502387
0.0033079101
0.0032666265
0.0032263047
0.0031867422
0.003147487
0.0031080189
0.0030680774
0.0030276243
0.0029869428
0.0029464924
0.0029066176
0.0028676439
0.0028297593
0.0027928474
0.0027566656
0.0027209701
0.0026856847
0.0026506788
0.0026156289
0.0025801662
0.0025441925
0.0025077213
0.0024706931
0.0024335749
0.0023974129
0.0023625685
0.0023281656
0.0022930533
0.0022566792
0.0022189494
0.0021801975
0.0021409585
0.0021014675
0.0020616999
0.0020214049
0.0019805757
0.0019393573
0.0018976698
0.0018554454
0.0018127224
0.0017694976
0.0017256982
0.0016811583
0.0016358971
0.0015900307
0.0015434423
0.0014961671
0.0014482037
0.0013993909
0.001349788
0.0012993522
0.0012478993
0.001195686
0.0011423286
0.0010875216
0.001031575
0.00097349885
0.00091038576
0.00084968229
0.00079719756
0.00074197942
0.00068203341
0.00062132192
0.0005618655
0.00050381591
0.00044660659
0.00039210436
0.00033734948
0.00029907239
0.0002394282
0.00039447259
-0.00026007616
0.0062990391
0.0062188253
0.0060847653
0.0059195927
0.0057432029
0.0055679481
0.0053945733
0.0052203295
0.0050462644
0.0048752248
0.0047083813
0.0045464287
0.0043915131
0.0042471296
0.0041170523
0.0040041462
0.003909394
0.0038315239
0.0037672335
0.0037122444
0.0036628628
0.0036166353
0.0035720502
0.0035281731
0.003484432
0.0034406231
0.0033968863
0.0033535547
0.0033110398
0.003269541
0.0032289849
0.0031891688
0.0031496844
0.0031100535
0.0030700188
0.0030295437
0.0029888776
0.0029484408
0.0029085685
0.0028695613
0.0028315969
0.0027945799
0.0027582848
0.0027224812
0.0026870799
0.002651951
0.0026167915
0.0025812541
0.0025452291
0.0025087271
0.0024717136
0.0024346215
0.0023984107
0.0023634348
0.0023288901
0.0022936767
0.0022572439
0.0022194992
0.0021807563
0.0021415195
0.0021020143
0.002062215
0.0020219025
0.0019810722
0.0019398298
0.0018980648
0.0018557259
0.00181293
0.0017696731
0.0017258532
0.001681448
0.0016364416
0.0015907667
0.0015442652
0.0014970029
0.0014490408
0.0014002388
0.0013506581
0.0013002517
0.0012488256
0.0011966417
0.0011433056
0.0010885142
0.001032576
0.00097452351
0.00091184237
0.00085155935
0.00079909929
0.00074394732
0.00068406514
0.00062333158
0.00056379184
0.00050562797
0.00044829538
0.00039366135
0.00033879218
0.00030032436
0.0002404566
0.00039414965
-0.00025632426
0.0062003687
0.0061268609
0.0060082313
0.0058606516
0.0056984178
0.0055328678
0.0053671489
0.0052001373
0.0050326468
0.0048672289
0.0047054685
0.0045483596
0.0043979076
0.004257267
0.0041298464
0.0040182618
0.0039234918
0.0038445195
0.0037785159
0.0037217187
0.0036707298
0.0036231748
0.0035775473
0.0035328873
0.003488594
0.0034444184
0.0034004376
0.0033569238
0.003314222
0.0032725112
0.0032317252
0.003191664
0.003151956
0.0031121632
0.0030720337
0.0030315306
0.0029908735
0.0029504459
0.0029105706
0.0028715268
0.0028334813
0.0027963573
0.0027599462
0.0027240309
0.0026885115
0.0026532585
0.0026179884
0.0025823735
0.0025462953
0.0025097608
0.0024727578
0.0024356879
0.0023994292
0.0023643236
0.0023296356
0.0022943185
0.0022578274
0.0022200694
0.0021813344
0.002142094
0.00210257
0.0020627445
0.0020224194
0.0019815781
0.0019403111
0.0018985264
0.0018561837
0.0018133718
0.0017700505
0.0017261269
0.0016816546
0.0016366158
0.0015909285
0.001544575
0.0014975294
0.0014497054
0.0014009701
0.001351397
0.0013009948
0.0012495833
0.0011974284
0.0011441208
0.0010893564
0.0010334411
0.00097542374
0.00091315265
0.00085324853
0.00080079556
0.00074571448
0.0006859157
0.00062518413
0.00056558619
0.00050733155
0.00044989629
0.0003951461
0.00034017629
0.00030151612
0.0002414132
0.00039345287
-0.00025200129
0.0061067156
0.0060390429
0.005933435
0.0058011522
0.0056521218
0.0054963448
0.0053384376
0.0051786573
0.0050178092
0.004858174
0.0047015974
0.0045493486
0.0044033413
0.0042664286
0.0041416951
0.0040315371
0.003936925
0.0038570678
0.0037895586
0.0037311026
0.0036785972
0.0036297673
0.003583122
0.0035376866
0.003492837
0.0034482834
0.0034040456
0.003360337
0.0033174423
0.0032755171
0.0032345004
0.0031941974
0.0031542681
0.0031143121
0.0030740853
0.0030335489
0.0029928961
0.002952475
0.0029125944
0.0028735137
0.0028353893
0.00279816
0.0027616343
0.0027256071
0.0026899703
0.0026545945
0.0026192142
0.0025835207
0.0025473886
0.0025108215
0.0024738259
0.0024367743
0.0024004677
0.0023652341
0.002330403
0.0022949816
0.0022584319
0.0022206585
0.0021819282
0.002142683
0.002103142
0.0020632925
0.0020229513
0.0019820936
0.0019408038
0.0018990049
0.0018566537
0.0018138229
0.0017704805
0.0017265487
0.0016820595
0.0016369607
0.0015911808
0.0015447773
0.0014976986
0.0014498796
0.0014013079
0.0013519188
0.0013016117
0.0012502356
0.0011980919
0.0011447933
0.0010900485
0.0010341613
0.00097618687
0.00091430168
0.00085473328
0.00080226884
0.00074726218
0.00068756552
0.00062685957
0.00056722863
0.00050890738
0.00045139111
0.00039654164
0.0003414862
0.00030263277
0.00024228174
0.00039234683
-0.00024704213
0.0060175756
0.0059550246
0.0058604606
0.0057414711
0.0056046346
0.0054585227
0.0053085132
0.0051559488
0.0050017685
0.0048480326
0.0046967289
0.0045493567
0.0044077776
0.004274584
0.0041525725
0.0040439452
0.0039496617
0.0038691305
0.0038003198
0.0037403584
0.0036864335
0.0036363864
0.0035887533
0.0035425542
0.0034971473
0.0034522075
0.0034077019
0.0033637884
0.0033206968
0.0032785573
0.0032373123
0.0031967734
0.0031566281
0.0031165106
0.0030761863
0.0030356132
0.0029949608
0.002954544
0.0029146555
0.0028755371
0.0028373349
0.0028000012
0.0027633607
0.0027272201
0.0026914651
0.0026559664
0.0026204751
0.0025847008
0.0025485133
0.0025119127
0.0024749205
0.0024378824
0.0024015272
0.0023661674
0.0023311938
0.0022956671
0.0022590574
0.0022212661
0.0021825385
0.0021432884
0.0021037305
0.0020638564
0.0020234972
0.0019826236
0.0019413131
0.0018994986
0.001857134
0.0018142842
0.0017709251
0.0017269825
0.0016824754
0.0016373578
0.0015915701
0.0015451452
0.0014980042
0.0014501046
0.0014014938
0.0013520797
0.0013018209
0.0012506074
0.0011986091
0.0011453733
0.0010906421
0.0010347642
0.00097682107
0.0009152858
0.0008560038
0.00080350648
0.00074857559
0.00068899822
0.00062834038
0.00056870097
0.0005103372
0.00045276206
0.00039783099
0.00034270596
0.0003036589
0.00024304506
0.00039076589
-0.00024137941
0.0059325139
0.0058744923
0.0057893436
0.0056819135
0.005556256
0.0054195602
0.0052774568
0.0051320733
0.0049845508
0.0048367884
0.00469083
0.0045483503
0.0044111849
0.0042817055
0.0041624534
0.0040554584
0.0039616684
0.0038806671
0.0038107559
0.0037494462
0.0036942062
0.0036430067
0.0035944224
0.0035474767
0.0035015157
0.0034561845
0.0034114025
0.0033672758
0.0033239834
0.0032816302
0.0032401593
0.0031993895
0.0031590329
0.003118755
0.0030783317
0.0030377178
0.002997061
0.0029566451
0.002916746
0.0028775888
0.0028393098
0.0028018726
0.0027651179
0.0027288631
0.0026929898
0.0026573687
0.0026217664
0.0025859099
0.0025496662
0.0025130313
0.0024760391
0.0024390103
0.0024026061
0.0023671226
0.0023320073
0.0022963744
0.0022597034
0.0022218923
0.0021831659
0.0021439103
0.0021043351
0.002064436
0.0020240583
0.0019831687
0.0019418375
0.0019000058
0.0018576275
0.0018147602
0.0017713841
0.0017274268
0.0016829012
0.0016377684
0.0015919699
0.0015455272
0.0014983708
0.0014504632
0.0014018233
0.0013523428
0.0013020203
0.001250771
0.0011987749
0.0011456477
0.0010910621
0.0010352693
0.0009773723
0.0009161398
0.00085707594
0.00080451057
0.00074964822
0.00069020259
0.00062961269
0.00056998776
0.0005116048
0.00045399272
0.00039899798
0.0003438199
0.00030457907
0.00024368524
0.00038865143
-0.00023494394
0.0058511539
0.0057971643
0.0057200849
0.0056227222
0.0055072588
0.0053796243
0.0052453571
0.0051070942
0.0049661899
0.0048244355
0.0046838744
0.0045462998
0.0044135347
0.0042877673
0.0041713133
0.00406605
0.0039729125
0.0038916385
0.0038208242
0.0037583264
0.0037018822
0.0036496016
0.0036001085
0.0035524379
0.00350593
0.003460205
0.0034151401
0.0033707932
0.0033272971
0.003284731
0.0032430373
0.0032020422
0.0031614794
0.0031210428
0.0030805199
0.0030398619
0.0029991967
0.0029587792
0.0029188672
0.0028796706
0.0028413162
0.002803777
0.0027669086
0.0027305392
0.0026945475
0.0026588046
0.0026230912
0.0025871511
0.0025508499
0.0025141797
0.0024771838
0.0024401598
0.0024037059
0.0023681008
0.0023328447
0.0022971047
0.0022603712
0.0022225382
0.0021838111
0.0021445492
0.0021049563
0.0020650321
0.0020246352
0.0019837292
0.0019423768
0.0019005274
0.0018581352
0.0018152503
0.0017718561
0.0017278835
0.0016833407
0.001638192
0.0015923795
0.0015459193
0.0014987501
0.0014508315
0.0014021742
0.001352682
0.0013023483
0.0012510547
0.0011989965
0.0011458332
0.0010912224
0.0010354767
0.00097772495
0.00091685972
0.00085799473
0.00080532262
0.00075050086
0.00069118329
0.0006306713
0.00057107858
0.00051269709
0.00045506887
0.00040002799
0.00034481343
0.00030537846
0.00024418474
0.00038595004
-0.00022766912
0.0057731679
0.0057227885
0.0056526616
0.0055640872
0.0054578856
0.0053388839
0.0052123105
0.0050810776
0.0049467256
0.0048109784
0.0046758434
0.0045431803
0.0044148024
0.0042927459
0.0041791297
0.0040756944
0.0039833628
0.0039020065
0.0038304824
0.0037669584
0.0037094266
0.0036561421
0.0036057885
0.00355742
0.0035103765
0.0034642586
0.0034189068
0.0033743348
0.0033306332
0.003287856
0.0032459432
0.0032047286
0.003163965
0.0031233723
0.0030827493
0.0030420443
0.0030013668
0.0029609448
0.0029210177
0.0028817809
0.0028433521
0.0028057123
0.0027687309
0.0027322466
0.0026961365
0.0026602723
0.0026244479
0.002588423
0.0025520631
0.0025153565
0.0024783536
0.00244133
0.0024048258
0.0023691012
0.0023337056
0.0022978578
0.0022610604
0.0022232036
0.0021844739
0.002145205
0.0021055939
0.0020656446
0.002025228
0.001984305
0.0019429314
0.0019010638
0.0018586572
0.0018157543
0.0017723416
0.0017283534
0.0016837932
0.0016386278
0.0015928008
0.0015463242
0.001499141
0.0014512087
0.0014025354
0.0013530327
0.0013026857
0.0012513846
0.0011993091
0.0011461205
0.0010914715
0.0010356815
0.00097791207
0.00091727963
0.00085863354
0.00080592144
0.00075116579
0.00069197806
0.00063153724
0.00057197909
0.00051360958
0.00045598085
0.00040090908
0.0003456737
0.0003060432
0.00024452736
0.00038261478
-0.00021949665
0.0056982697
0.005651139
0.0055870346
0.0055061543
0.005408348
0.0052975042
0.0051784187
0.005054093
0.0049262029
0.0047964302
0.0046667261
0.0045389726
0.0044149674
0.0042966213
0.0041858818
0.0040843678
0.003992989
0.0039117337
0.0038396887
0.003775301
0.0037168031
0.003662598
0.0036114379
0.0035624036
0.0035148402
0.0034683341
0.003422694
0.003377894
0.003333986
0.0032910004
0.003248873
0.003207445
0.0031664865
0.0031257405
0.0030850175
0.0030442628
0.0030035694
0.0029631402
0.0029231961
0.0028839185
0.0028454166
0.0028076777
0.0027705844
0.0027339851
0.0026977568
0.0026617721
0.002625837
0.0025897263
0.0025533065
0.0025165624
0.002479549
0.0024425215
0.0024059663
0.0023701244
0.0023345906
0.0022986344
0.002261772
0.0022238892
0.0021851551
0.0021458783
0.0021062487
0.0020662741
0.002025837
0.0019848966
0.0019435016
0.0019016154
0.0018591937
0.0018162727
0.001772841
0.0017288368
0.0016842589
0.0016390762
0.0015932345
0.0015467413
0.0014995432
0.0014515972
0.0014029085
0.0013533933
0.0013030325
0.001251725
0.0011996283
0.001146425
0.0010917838
0.0010359828
0.00097822348
0.00091769827
0.00085913236
0.00080622211
0.00075151753
0.00069254787
0.00063223045
0.0005727225
0.00051436296
0.00045673446
0.00040163757
0.00034639202
0.00030656167
0.00024469526
0.00037861439
-0.00021038464
0.0056262081
0.0055820144
0.0055231548
0.0054490329
0.0053588272
0.0052556429
0.0051437874
0.0050262126
0.004904671
0.004780812
0.0046565197
0.0045336629
0.0044140136
0.0042993765
0.0041915511
0.0040920477
0.0040017621
0.003920784
0.0038484017
0.003783313
0.0037239743
0.0036689376
0.0036170307
0.0035673678
0.0035193046
0.0034724185
0.0034264917
0.0033814629
0.0033373494
0.0032941586
0.0032518221
0.0032101873
0.0031690401
0.0031281443
0.0030873218
0.0030465153
0.0030058029
0.0029653639
0.002925401
0.0028860821
0.0028475084
0.0028096722
0.002772468
0.0027357541
0.0026994079
0.0026633035
0.0026272581
0.0025910607
0.0025545797
0.0025177969
0.0024807697
0.0024437342
0.002407127
0.0023711701
0.0023354996
0.0022994345
0.0022625058
0.0022245952
0.0021858546
0.0021465691
0.0021069206
0.0020669206
0.0020264625
0.0019855041
0.0019440876
0.0019021823
0.0018597449
0.0018168055
0.0017733547
0.0017293339
0.0016847379
0.0016395377
0.0015936809
0.0015471706
0.0014999573
0.0014519974
0.0014032929
0.0013537646
0.0013033904
0.0012520753
0.0011999567
0.0011467407
0.0010921075
0.0010362893
0.00097860121
0.00091817931
0.00085965368
0.00080655221
0.00075176476
0.00069286831
0.00063264424
0.00057326014
0.0005149688
0.00045735826
0.00040223337
0.00034697477
0.00030693355
0.00024466051
0.00037394623
-0.00020031598
0.0055567619
0.0055152341
0.0054609666
0.005392803
0.0053094756
0.0052134464
0.0051085231
0.0049975118
0.0048821828
0.0047641518
0.0046452294
0.0045272437
0.0044119292
0.0043009979
0.0041961216
0.0040987136
0.0040096551
0.0039291225
0.0038565813
0.0037909531
0.0037309022
0.0036751278
0.0036225392
0.00357229
0.0035237518
0.0034764977
0.0034302888
0.0033850329
0.0033407161
0.0032973249
0.0032547852
0.0032129509
0.0031716217
0.0031305801
0.0030896591
0.0030487994
0.0030080649
0.0029676139
0.0029276306
0.0028882701
0.002849626
0.0028116943
0.0027743807
0.0027375526
0.0027010892
0.0026648661
0.0026287109
0.002592426
0.0025558828