/*--------------------------------*- C++ -*----------------------------------*\
  =========                 |
  \\      /  F ield         | OpenFOAM: The Open Source CFD Toolbox
   \\    /   O peration     | Website:  https://openfoam.org
    \\  /    A nd           | Version:  12
     \\/     M anipulation  |
\*---------------------------------------------------------------------------*/
FoamFile
{
    format      ascii;
    class       surfaceScalarField;
    location    "300";
    object      phi;
}
// * * * * * * * * * * * * * * * * * * * * * * * * * * * * * * * * * * * * * //

dimensions      [0 3 -1 0 0 0 0];

internalField   nonuniform List<scalar> 
25880
(
2.0046455e-06
8.6309285e-12
2.0046244e-06
2.1138953e-11
2.0045976e-06
2.6733258e-11
2.0045682e-06
2.94293e-11
2.0045354e-06
3.285854e-11
2.0044985e-06
3.6878974e-11
2.0044572e-06
4.1233724e-11
2.0044112e-06
4.6043389e-11
2.0043597e-06
5.1533986e-11
2.0043018e-06
5.791578e-11
2.0042363e-06
6.5420372e-11
2.004162e-06
7.4374231e-11
2.0040767e-06
8.5249755e-11
2.0039779e-06
9.8802911e-11
2.0038618e-06
1.1606293e-10
2.0037226e-06
1.3923451e-10
2.0035524e-06
1.7023483e-10
2.003333e-06
2.1932245e-10
2.0030502e-06
2.828309e-10
2.0026127e-06
4.3756362e-10
2.0020245e-06
5.8810623e-10
2.0003221e-06
1.7024685e-09
1.9995615e-06
7.6057893e-10
1.0290539e-06
9.7050764e-07
4.3344532e-08
9.8570932e-07
2.748635e-08
1.5858182e-08
2.5441183e-08
2.0451672e-09
2.4617033e-08
8.2414998e-10
2.4029192e-08
5.878405e-10
2.3525354e-08
5.0383833e-10
2.3079262e-08
4.4609185e-10
2.2680672e-08
3.9859006e-10
2.2321209e-08
3.5946255e-10
2.1993584e-08
3.2762545e-10
2.1692318e-08
3.012659e-10
2.1413459e-08
2.7885871e-10
2.1154026e-08
2.5943312e-10
2.0911634e-08
2.423917e-10
2.0684314e-08
2.2732015e-10
2.0470406e-08
2.1390872e-10
2.0268489e-08
2.0191697e-10
2.0077334e-08
1.9115457e-10
1.9895869e-08
1.8146506e-10
1.9723167e-08
1.7270208e-10
1.9558412e-08
1.647549e-10
1.9400896e-08
1.5751571e-10
1.9250001e-08
1.5089518e-10
1.9105159e-08
1.4484245e-10
1.8965876e-08
1.3928276e-10
1.8831721e-08
1.341551e-10
1.8702286e-08
1.2943515e-10
1.8577207e-08
1.2507848e-10
1.8456172e-08
1.2103494e-10
1.8338888e-08
1.1728458e-10
1.8225075e-08
1.1381274e-10
1.8114496e-08
1.1057905e-10
1.8006941e-08
1.0755479e-10
1.7902202e-08
1.0473947e-10
1.7800081e-08
1.0212041e-10
1.7700416e-08
9.9665606e-11
1.7603058e-08
9.7357758e-11
1.7507856e-08
9.5201478e-11
1.7414665e-08
9.3191485e-11
1.7323363e-08
9.1301522e-11
1.7233846e-08
8.9517418e-11
1.7146e-08
8.7845726e-11
1.7059716e-08
8.6284607e-11
1.6974896e-08
8.48192e-11
1.6891461e-08
8.3435575e-11
1.6809329e-08
8.2132249e-11
1.6728415e-08
8.0913883e-11
1.6648637e-08
7.9777875e-11
1.6569929e-08
7.8708069e-11
1.6492232e-08
7.7696868e-11
1.641548e-08
7.6751649e-11
1.6339606e-08
7.5873865e-11
1.626455e-08
7.5056564e-11
1.6190261e-08
7.4289135e-11
1.6116691e-08
7.3569491e-11
1.6043787e-08
7.2904141e-11
1.5971492e-08
7.2295131e-11
1.5899759e-08
7.1733441e-11
1.5828547e-08
7.1211128e-11
1.5757816e-08
7.0731481e-11
1.5687516e-08
7.0299935e-11
1.5617598e-08
6.9917709e-11
1.5548023e-08
6.9574809e-11
1.5478758e-08
6.9265684e-11
1.540976e-08
6.8998021e-11
1.5340983e-08
6.8776311e-11
1.5272385e-08
6.8598151e-11
1.5203929e-08
6.8455976e-11
1.5135581e-08
6.8347853e-11
1.5067299e-08
6.8282236e-11
1.4999034e-08
6.8264778e-11
1.4930747e-08
6.8287456e-11
1.4862403e-08
6.8344201e-11
1.479396e-08
6.8443277e-11
1.4725367e-08
6.8592355e-11
1.4656578e-08
6.8789449e-11
1.458755e-08
6.9027947e-11
1.451824e-08
6.9309981e-11
1.4448594e-08
6.964593e-11
1.4378556e-08
7.0038006e-11
1.4308077e-08
7.0479234e-11
1.4237104e-08
7.0972131e-11
1.4165575e-08
7.1529693e-11
1.4093421e-08
7.2153678e-11
1.4020583e-08
7.283845e-11
1.3946991e-08
7.3591561e-11
1.3872562e-08
7.4429254e-11
1.3797222e-08
7.5340342e-11
1.3720865e-08
7.6356068e-11
1.3646633e-08
7.4231981e-11
1.357621e-08
7.0423666e-11
1.3509297e-08
6.6912568e-11
1.3445614e-08
6.3682961e-11
1.3384898e-08
6.0716562e-11
1.3326915e-08
5.7982775e-11
1.3271463e-08
5.5452242e-11
1.3218352e-08
5.3110675e-11
1.3167406e-08
5.0945622e-11
1.3118471e-08
4.8935839e-11
1.3071409e-08
4.7061454e-11
1.3026096e-08
4.5312866e-11
1.2982411e-08
4.368478e-11
1.2940237e-08
4.2174203e-11
1.289947e-08
4.0767067e-11
1.2859997e-08
3.9473054e-11
1.2821742e-08
3.8255476e-11
1.2784461e-08
3.7281049e-11
1.2748252e-08
3.6209077e-11
1.2712017e-08
3.623463e-11
1.2677523e-08
3.4493515e-11
1.263524e-08
4.2283843e-11
2.6780724e-11
2.0345192e-06
1.745641e-11
2.0344976e-06
4.2773238e-11
2.0344702e-06
5.4110561e-11
2.0344401e-06
5.9570639e-11
2.0344064e-06
6.6509775e-11
2.0343687e-06
7.4643833e-11
2.0343264e-06
8.3452526e-11
2.0342793e-06
9.3179454e-11
2.0342266e-06
1.042818e-10
2.0341673e-06
1.1718468e-10
2.0341004e-06
1.3235603e-10
2.0340243e-06
1.504554e-10
2.0339371e-06
1.7243709e-10
2.0338361e-06
1.9982828e-10
2.0337174e-06
2.3470763e-10
2.0335751e-06
2.815289e-10
2.0334012e-06
3.441607e-10
2.0331772e-06
4.4332764e-10
2.0328884e-06
5.7159373e-10
2.0324419e-06
8.8409123e-10
2.031842e-06
1.1880078e-09
2.0301058e-06
3.4387126e-09
2.0293248e-06
1.5415044e-09
1.1006817e-06
1.8991508e-06
1.3009269e-07
1.9562984e-06
8.4103773e-08
6.1847096e-08
7.7848073e-08
8.300867e-09
7.5324628e-08
3.3475947e-09
7.3524319e-08
2.3881499e-09
7.1982403e-08
2.0457548e-09
7.0617512e-08
1.8109825e-09
6.9397942e-08
1.6181595e-09
6.8298067e-08
1.4593379e-09
6.7295623e-08
1.3300697e-09
6.6373849e-08
1.2230395e-09
6.5520641e-08
1.1320666e-09
6.4726868e-08
1.0532061e-09
6.3985235e-08
9.8402489e-10
6.3289715e-08
9.2284021e-10
6.2635229e-08
8.6839494e-10
6.2017432e-08
8.1971336e-10
6.1432564e-08
7.760234e-10
6.0877341e-08
7.3668743e-10
6.0348929e-08
7.0111446e-10
5.9844832e-08
6.6885162e-10
5.9362884e-08
6.3946353e-10
5.8901191e-08
6.1258829e-10
5.8458018e-08
5.8801519e-10
5.8031856e-08
5.6544521e-10
5.7621381e-08
5.4463029e-10
5.7225348e-08
5.2546811e-10
5.6842645e-08
5.0778126e-10
5.6472313e-08
4.9136689e-10
5.6113455e-08
4.7614216e-10
5.5765222e-08
4.6204658e-10
5.5426881e-08
4.4891931e-10
5.5097793e-08
4.3664309e-10
5.4777319e-08
4.2521357e-10
5.4464859e-08
4.1458029e-10
5.4159909e-08
4.0461519e-10
5.386202e-08
3.9524721e-10
5.3570728e-08
3.864933e-10
5.3285587e-08
3.7833267e-10
5.3006228e-08
3.7066058e-10
5.2732327e-08
3.634189e-10
5.246354e-08
3.5663232e-10
5.219953e-08
3.5029441e-10
5.1940004e-08
3.4434544e-10
5.168471e-08
3.3872926e-10
5.1433404e-08
3.334387e-10
5.1185825e-08
3.2849256e-10
5.0941723e-08
3.2388043e-10
5.0700893e-08
3.1953796e-10
5.0463156e-08
3.1543379e-10
5.0228311e-08
3.1159661e-10
4.9996151e-08
3.0803311e-10
4.9766493e-08
3.0471521e-10
4.9539182e-08
3.0160044e-10
4.9314071e-08
2.986796e-10
4.9090997e-08
2.959787e-10
4.8869786e-08
2.9350628e-10
4.8650293e-08
2.9122638e-10
4.8432397e-08
2.8910683e-10
4.8215969e-08
2.8716006e-10
4.800086e-08
2.8540841e-10
4.7786921e-08
2.8385673e-10
4.7574031e-08
2.8246528e-10
4.7362085e-08
2.8121125e-10
4.7150958e-08
2.8012497e-10
4.6940509e-08
2.7922521e-10
4.6730605e-08
2.7850226e-10
4.6521135e-08
2.7792584e-10
4.6311995e-08
2.774877e-10
4.6103056e-08
2.772218e-10
4.5894169e-08
2.7715118e-10
4.5685213e-08
2.7724394e-10
4.5476082e-08
2.7747532e-10
4.5266647e-08
2.7787815e-10
4.5056755e-08
2.7848387e-10
4.484626e-08
2.7928465e-10
4.4635034e-08
2.8025387e-10
4.4422944e-08
2.8139977e-10
4.4209826e-08
2.827643e-10
4.3995507e-08
2.8435676e-10
4.3779837e-08
2.8614911e-10
4.3562658e-08
2.8815125e-10
4.3343772e-08
2.9041561e-10
4.3122976e-08
2.9294984e-10
4.2900084e-08
2.9573114e-10
4.2674885e-08
2.9878978e-10
4.2447123e-08
3.0219164e-10
4.2216572e-08
3.0589176e-10
4.198291e-08
3.1001722e-10
4.1755748e-08
3.0139415e-10
4.1540239e-08
2.8593244e-10
4.1335474e-08
2.7167765e-10
4.1140592e-08
2.5856565e-10
4.0954786e-08
2.4652203e-10
4.0777346e-08
2.3542292e-10
4.0607649e-08
2.2514905e-10
4.0445118e-08
2.1564216e-10
4.0289212e-08
2.0685179e-10
4.0139456e-08
1.986919e-10
3.9995435e-08
1.9108183e-10
3.9856766e-08
1.8398232e-10
3.9723079e-08
1.7737198e-10
3.9594014e-08
1.7123858e-10
3.9469256e-08
1.6552518e-10
3.9348458e-08
1.6027107e-10
3.9231387e-08
1.5532661e-10
3.9117298e-08
1.5136955e-10
3.9006495e-08
1.4701246e-10
3.8895611e-08
1.4711878e-10
3.8790122e-08
1.3998213e-10
3.8660451e-08
1.7195483e-10
1.0832696e-10
2.0947119e-06
2.6617469e-11
2.0946894e-06
6.5252375e-11
2.094661e-06
8.2577954e-11
2.0946296e-06
9.0915899e-11
2.0945946e-06
1.0150248e-10
2.0945554e-06
1.1390977e-10
2.0945115e-06
1.2734322e-10
2.0944625e-06
1.4217372e-10
2.0944077e-06
1.5909849e-10
2.0943461e-06
1.7876547e-10
2.0942766e-06
2.0188741e-10
2.0941975e-06
2.2946875e-10
2.094107e-06
2.6296272e-10
2.0940022e-06
3.0469497e-10
2.093879e-06
3.5783018e-10
2.0937314e-06
4.2915059e-10
2.093551e-06
5.2454026e-10
2.0933188e-06
6.755615e-10
2.0930195e-06
8.708402e-10
2.092557e-06
1.3465922e-09
2.091936e-06
1.8090549e-09
2.0901389e-06
5.2357961e-09
2.0893257e-06
2.3547496e-09
1.1899367e-06
2.7985397e-06
2.2199436e-07
2.9242407e-06
1.4575198e-07
1.3808947e-07
1.3491034e-07
1.9142513e-08
1.3053504e-07
7.7228973e-09
1.2741311e-07
5.5100764e-09
1.247408e-07
4.7180654e-09
1.2237574e-07
4.176045e-09
1.2026248e-07
3.7314119e-09
1.1835659e-07
3.3652285e-09
1.1661955e-07
3.0671163e-09
1.1502231e-07
2.8202792e-09
1.1354388e-07
2.6104895e-09
1.1216845e-07
2.4286443e-09
1.1088335e-07
2.2691198e-09
1.0967816e-07
2.1280337e-09
1.0854407e-07
2.0024879e-09
1.0747355e-07
1.8902332e-09
1.0646008e-07
1.7894899e-09
1.0549798e-07
1.6987844e-09
1.0458234e-07
1.616758e-09
1.0370883e-07
1.5423622e-09
1.028737e-07
1.4745961e-09
1.0207366e-07
1.412626e-09
1.0130571e-07
1.3559603e-09
1.0056724e-07
1.3039158e-09
9.9855952e-08
1.25592e-09
9.9169688e-08
1.2117318e-09
9.8506523e-08
1.1709463e-09
9.7864793e-08
1.1330972e-09
9.7242945e-08
1.0979902e-09
9.6639507e-08
1.0654848e-09
9.6053211e-08
1.0352145e-09
9.5482946e-08
1.0069081e-09
9.4927608e-08
9.8055177e-10
9.4386158e-08
9.5603069e-10
9.385772e-08
9.3305266e-10
9.3341515e-08
9.1145243e-10
9.2836742e-08
8.912662e-10
9.2342628e-08
8.724471e-10
9.1858532e-08
8.5475664e-10
9.1383891e-08
8.3805976e-10
9.0918113e-08
8.2241042e-10
9.0460612e-08
8.0779514e-10
9.001088e-08
7.9407752e-10
8.9568481e-08
7.8112853e-10
8.9132989e-08
7.6892993e-10
8.8703957e-08
7.5752463e-10
8.8280949e-08
7.4688909e-10
8.786361e-08
7.3687684e-10
8.7451629e-08
7.2741473e-10
8.7044658e-08
7.1856696e-10
8.6642342e-08
7.1034998e-10
8.6244357e-08
7.0269962e-10
8.5850439e-08
6.9551869e-10
8.5460334e-08
6.8878492e-10
8.5073755e-08
6.8255752e-10
8.4690404e-08
6.7685663e-10
8.431003e-08
6.7160036e-10
8.3932423e-08
6.6671466e-10
8.3557356e-08
6.6222682e-10
8.3184576e-08
6.5818853e-10
8.2813821e-08
6.5461106e-10
8.2444883e-08
6.5140401e-10
8.207758e-08
6.4851435e-10
8.1711694e-08
6.460107e-10
8.1346982e-08
6.4393698e-10
8.0983213e-08
6.4227111e-10
8.0620195e-08
6.4094389e-10
8.0257747e-08
6.3993562e-10
7.9895645e-08
6.39324e-10
7.9533634e-08
6.391624e-10
7.91715e-08
6.3937827e-10
7.880906e-08
6.3991437e-10
7.8446093e-08
6.4084525e-10
7.8082333e-08
6.4224378e-10
7.7717526e-08
6.4409245e-10
7.7351449e-08
6.4633011e-10
7.6983874e-08
6.4897517e-10
7.6614514e-08
6.52124e-10
7.6243072e-08
6.5579866e-10
7.5869287e-08
6.5993487e-10
7.5492883e-08
6.6455493e-10
7.5113519e-08
6.6977933e-10
7.4730843e-08
6.7562641e-10
7.434453e-08
6.820438e-10
7.3954219e-08
6.8910069e-10
7.3559462e-08
6.9694891e-10
7.3159868e-08
7.0548549e-10
7.2754881e-08
7.1500391e-10
7.2361156e-08
6.9511929e-10
7.1987627e-08
6.5946161e-10
7.1632717e-08
6.265876e-10
7.1294934e-08
5.9634889e-10
7.0972882e-08
5.6857365e-10
7.0665329e-08
5.4297673e-10
7.0371195e-08
5.1928299e-10
7.0089479e-08
4.9735767e-10
6.9819246e-08
4.7708455e-10
6.9559673e-08
4.5826558e-10
6.931004e-08
4.4071471e-10
6.9069681e-08
4.2434105e-10
6.8837958e-08
4.0909535e-10
6.8614247e-08
3.9494938e-10
6.8398e-08
3.8177205e-10
6.8188617e-08
3.6965376e-10
6.7985695e-08
3.5824893e-10
6.7787944e-08
3.4912003e-10
6.7595891e-08
3.3906596e-10
6.7403704e-08
3.393054e-10
6.7220915e-08
3.2277172e-10
6.6995962e-08
3.9690808e-10
2.4939541e-10
2.1861206e-06
3.6264111e-11
2.1860969e-06
8.8949522e-11
2.1860668e-06
1.1261299e-10
2.1860338e-06
1.2399205e-10
2.1859968e-06
1.3842444e-10
2.1859554e-06
1.5533541e-10
2.1859091e-06
1.7364072e-10
2.1858575e-06
1.9384482e-10
2.1857997e-06
2.1689772e-10
2.1857347e-06
2.4368186e-10
2.1856615e-06
2.7516716e-10
2.1855782e-06
3.1272022e-10
2.1854828e-06
3.5831817e-10
2.1853724e-06
4.1512514e-10
2.1852428e-06
4.8744542e-10
2.1850874e-06
5.8450623e-10
2.1848977e-06
7.14302e-10
2.1846535e-06
9.1977684e-10
2.1843389e-06
1.1853808e-09
2.1838531e-06
1.832451e-09
2.183201e-06
2.4611017e-09
2.1813147e-06
7.122073e-09
2.1804554e-06
3.214088e-09
1.3004532e-06
3.6785419e-06
3.2417669e-07
3.9005172e-06
2.1609407e-07
2.4617209e-07
2.000258e-07
3.5210786e-08
1.9353446e-07
1.4214238e-08
1.8890346e-07
1.0141074e-08
1.849417e-07
8.6798199e-09
1.8143611e-07
7.6816392e-09
1.7830376e-07
6.8637619e-09
1.7547868e-07
6.1903061e-09
1.7290388e-07
5.6419235e-09
1.7053632e-07
5.1878392e-09
1.6834487e-07
4.8019322e-09
1.6630607e-07
4.467449e-09
1.6440116e-07
4.1740247e-09
1.6261468e-07
3.914513e-09
1.6093359e-07
3.683585e-09
1.5934671e-07
3.4771052e-09
1.578444e-07
3.2918003e-09
1.5641823e-07
3.1249563e-09
1.5506091e-07
2.9740783e-09
1.5376604e-07
2.8372327e-09
1.5252805e-07
2.7125828e-09
1.5134208e-07
2.5985961e-09
1.5020368e-07
2.4943602e-09
1.4910897e-07
2.3986276e-09
1.4805455e-07
2.3103447e-09
1.4703722e-07
2.2290605e-09
1.4605413e-07
2.1540358e-09
1.4510281e-07
2.0844159e-09
1.4418096e-07
2.0198385e-09
1.4328641e-07
1.960043e-09
1.4241726e-07
1.9043626e-09
1.4157187e-07
1.8522969e-09
1.4074861e-07
1.8038144e-09
1.3994593e-07
1.7587066e-09
1.3916254e-07
1.7164409e-09
1.3839728e-07
1.6767111e-09
1.3764897e-07
1.6395791e-09
1.3691646e-07
1.6049604e-09
1.3619879e-07
1.5724213e-09
1.3549514e-07
1.5417115e-09
1.3480462e-07
1.5129258e-09
1.3412638e-07
1.4860411e-09
1.3345965e-07
1.4608091e-09
1.3280378e-07
1.436993e-09
1.3215816e-07
1.4145566e-09
1.315221e-07
1.3935778e-09
1.3089498e-07
1.3740144e-09
1.3027625e-07
1.3555999e-09
1.2966547e-07
1.3381983e-09
1.2906211e-07
1.3219249e-09
1.2846565e-07
1.3068112e-09
1.2787561e-07
1.2927403e-09
1.272916e-07
1.2795346e-09
1.2671323e-07
1.2671515e-09
1.2614009e-07
1.2556985e-09
1.2557173e-07
1.2452135e-09
1.2500778e-07
1.2355476e-09
1.2444793e-07
1.2265646e-09
1.2389185e-07
1.2183127e-09
1.2333915e-07
1.210887e-09
1.2278945e-07
1.2043086e-09
1.2224244e-07
1.1984132e-09
1.2169785e-07
1.1931025e-09
1.2115536e-07
1.1885006e-09
1.2061461e-07
1.1846893e-09
1.2007525e-07
1.1816285e-09
1.1953701e-07
1.179192e-09
1.189996e-07
1.1773424e-09
1.184627e-07
1.1762217e-09
1.1792594e-07
1.1759283e-09
1.1738898e-07
1.1763306e-09
1.1685158e-07
1.1773229e-09
1.1631338e-07
1.1790407e-09
1.1577401e-07
1.1816184e-09
1.1523307e-07
1.1850248e-09
1.1469026e-07
1.1891479e-09
1.1414521e-07
1.1940204e-09
1.1359751e-07
1.1998192e-09
1.1304673e-07
1.2065857e-09
1.1249246e-07
1.2142024e-09
1.1193431e-07
1.2227094e-09
1.1137176e-07
1.2323278e-09
1.1080429e-07
1.2430924e-09
1.1023143e-07
1.2549072e-09
1.0965263e-07
1.2678986e-09
1.0906723e-07
1.2823456e-09
1.0847466e-07
1.2980602e-09
1.0787408e-07
1.3155829e-09
1.0729019e-07
1.279004e-09
1.0673625e-07
1.2134014e-09
1.0620992e-07
1.1529203e-09
1.0570898e-07
1.0972873e-09
1.0523137e-07
1.0461856e-09
1.0477526e-07
9.9909164e-10
1.0433904e-07
9.5549906e-10
1.0392124e-07
9.1515934e-10
1.0352046e-07
8.7785886e-10
1.031355e-07
8.4323394e-10
1.0276527e-07
8.1094221e-10
1.0240879e-07
7.8081591e-10
1.0206513e-07
7.5276452e-10
1.0173334e-07
7.2673612e-10
1.0141262e-07
7.0248992e-10
1.0110208e-07
6.8019165e-10
1.0080113e-07
6.5920547e-10
1.0050784e-07
6.424026e-10
1.0022301e-07
6.2389868e-10
9.9937999e-08
6.2431713e-10
9.9666949e-08
5.9382173e-10
9.9333196e-08
7.3066098e-10
4.584585e-10
2.3101074e-06
4.6558497e-11
2.3100821e-06
1.1426988e-10
2.3100499e-06
1.4473599e-10
2.3100146e-06
1.5937361e-10
2.3099751e-06
1.7791629e-10
2.3099308e-06
1.9963831e-10
2.3098813e-06
2.2314521e-10
2.309826e-06
2.4908342e-10
2.3097642e-06
2.7867281e-10
2.3096949e-06
3.1304581e-10
2.3096166e-06
3.534461e-10
2.3095277e-06
4.0162563e-10
2.3094259e-06
4.6011882e-10
2.309308e-06
5.3298182e-10
2.3091698e-06
6.2573046e-10
2.3090041e-06
7.5019294e-10
2.3088018e-06
9.166018e-10
2.3085415e-06
1.1800114e-09
2.3082065e-06
1.5203818e-09
2.3076894e-06
2.3495801e-09
2.3069958e-06
3.154683e-09
2.3049901e-06
9.1278093e-09
2.3040696e-06
4.1345626e-09
1.4361171e-06
4.5464945e-06
4.420364e-07
4.8945979e-06
2.9927872e-07
3.8892977e-07
2.7704318e-07
5.7446328e-08
2.6804414e-07
2.3213284e-08
2.6162882e-07
1.6556388e-08
2.5614406e-07
1.4164585e-08
2.5129172e-07
1.2533976e-08
2.4695596e-07
1.1199523e-08
2.4304533e-07
1.0100936e-08
2.3948107e-07
9.2061793e-09
2.3620368e-07
8.4652333e-09
2.3317004e-07
7.8355691e-09
2.3034765e-07
7.2898396e-09
2.2771058e-07
6.8111019e-09
2.252374e-07
6.3876885e-09
2.2291008e-07
6.0109077e-09
2.2071317e-07
5.6740164e-09
2.1863329e-07
5.3716735e-09
2.166588e-07
5.099447e-09
2.1477961e-07
4.8532718e-09
2.1298685e-07
4.6299869e-09
2.1127284e-07
4.4266017e-09
2.0963082e-07
4.2406165e-09
2.0805464e-07
4.0705322e-09
2.0653895e-07
3.9143257e-09
2.0507901e-07
3.7702784e-09
2.0367043e-07
3.6376424e-09
2.0230925e-07
3.5152205e-09
2.0099204e-07
3.4016232e-09
1.9971563e-07
3.2962507e-09
1.9847699e-07
3.1986758e-09
1.9727353e-07
3.107821e-09
1.9610296e-07
3.0228681e-09
1.9496302e-07
2.9437562e-09
1.9385158e-07
2.8701487e-09
1.9276684e-07
2.8011847e-09
1.9170719e-07
2.7363611e-09
1.9067099e-07
2.6757713e-09
1.8965667e-07
2.6192805e-09
1.8866291e-07
2.5661883e-09
1.8768853e-07
2.516084e-09
1.8673234e-07
2.4691149e-09
1.8579314e-07
2.4252461e-09
1.8486987e-07
2.3840765e-09
1.8396164e-07
2.3452205e-09
1.8306759e-07
2.3086149e-09
1.8218678e-07
2.2743851e-09
1.8131833e-07
2.2424642e-09
1.8046151e-07
2.2124218e-09
1.7961567e-07
2.1840341e-09
1.7878011e-07
2.1574842e-09
1.779541e-07
2.1328255e-09
1.7713697e-07
2.1098697e-09
1.7632817e-07
2.0883283e-09
1.755272e-07
2.0681294e-09
1.7473345e-07
2.0494461e-09
1.7394632e-07
2.0323415e-09
1.7316529e-07
2.0165757e-09
1.7238993e-07
2.0019263e-09
1.7161978e-07
1.9884688e-09
1.708543e-07
1.9763583e-09
1.7009298e-07
1.9656302e-09
1.6933538e-07
1.956019e-09
1.6858112e-07
1.9473634e-09
1.6782975e-07
1.9398628e-09
1.6708079e-07
1.9336516e-09
1.6633375e-07
1.9286661e-09
1.6558824e-07
1.9247012e-09
1.6484389e-07
1.9216947e-09
1.6410024e-07
1.9198763e-09
1.6335676e-07
1.9194077e-09
1.6261301e-07
1.9200764e-09
1.6186863e-07
1.9217096e-09
1.6112314e-07
1.9245257e-09
1.6037601e-07
1.9287448e-09
1.5962672e-07
1.9343174e-09
1.5887481e-07
1.9410614e-09
1.581198e-07
1.9490288e-09
1.5736111e-07
1.9585072e-09
1.5659813e-07
1.9695658e-09
1.5583032e-07
1.982014e-09
1.5505711e-07
1.9959158e-09
1.5427781e-07
2.011631e-09
1.5349169e-07
2.0292183e-09
1.5269807e-07
2.0485215e-09
1.5189622e-07
2.0697454e-09
1.5108522e-07
2.0933455e-09
1.5026427e-07
2.1190165e-09
1.4943221e-07
2.1476417e-09
1.4862327e-07
2.0879466e-09
1.478558e-07
1.9808678e-09
1.4712657e-07
1.8821482e-09
1.4643252e-07
1.7913409e-09
1.4577078e-07
1.7079286e-09
1.4513881e-07
1.6310574e-09
1.4453441e-07
1.5599009e-09
1.4395551e-07
1.4940528e-09
1.4340021e-07
1.4331647e-09
1.428668e-07
1.376644e-09
1.4235381e-07
1.3239318e-09
1.4185987e-07
1.2747535e-09
1.4138367e-07
1.2289614e-09
1.4092394e-07
1.186471e-09
1.4047954e-07
1.1468897e-09
1.4004924e-07
1.1104869e-09
1.3963222e-07
1.0762255e-09
1.3922584e-07
1.0487843e-09
1.3883117e-07
1.0185734e-09
1.3843628e-07
1.0192099e-09
1.3806074e-07
9.6935378e-10
1.3759818e-07
1.1932231e-09
7.480509e-10
2.46852e-06
5.7678602e-11
2.4684927e-06
1.4166037e-10
2.4684579e-06
1.7952299e-10
2.4684195e-06
1.9769714e-10
2.4683768e-06
2.2068766e-10
2.4683288e-06
2.4761286e-10
2.4682752e-06
2.7674206e-10
2.4682154e-06
3.0887429e-10
2.4681486e-06
3.4552101e-10
2.4680735e-06
3.8808451e-10
2.4679889e-06
4.3810331e-10
2.4678928e-06
4.9774426e-10
2.4677827e-06
5.701417e-10
2.4676554e-06
6.6031204e-10
2.4675061e-06
7.7507435e-10
2.4673272e-06
9.290567e-10
2.4671089e-06
1.1348926e-09
2.4668282e-06
1.4606754e-09
2.4664671e-06
1.8814748e-09
2.4659101e-06
2.9065821e-09
2.4651636e-06
3.901225e-09
2.4630056e-06
1.1285765e-08
2.4620074e-06
5.1328454e-09
1.6011728e-06
5.407329e-06
5.8143809e-07
5.9143326e-06
4.0013321e-07
5.7023465e-07
3.7045051e-07
8.7129021e-08
3.5840374e-07
3.526006e-08
3.498288e-07
2.5131331e-08
3.4250281e-07
2.1490568e-08
3.3602272e-07
1.9014072e-08
3.3023225e-07
1.6989995e-08
3.2500912e-07
1.5324061e-08
3.202484e-07
1.3966899e-08
3.158707e-07
1.284294e-08
3.1181844e-07
1.1887828e-08
3.0804821e-07
1.1060069e-08
3.0452539e-07
1.0333919e-08
3.0122141e-07
9.6916688e-09
2.9811218e-07
9.1201419e-09
2.9517707e-07
8.6091174e-09
2.9239825e-07
8.150494e-09
2.8976016e-07
7.7375451e-09
2.8724931e-07
7.3641132e-09
2.8485391e-07
7.0253924e-09
2.8256365e-07
6.7168589e-09
2.8036955e-07
6.4347211e-09
2.7826339e-07
6.1766903e-09
2.76238e-07
5.9397159e-09
2.7428709e-07
5.7211914e-09
2.7240476e-07
5.5199659e-09
2.7058575e-07
5.3342354e-09
2.6882547e-07
5.1619002e-09
2.6711968e-07
5.0020379e-09
2.6546436e-07
4.8539976e-09
2.6385602e-07
4.7161603e-09
2.6229161e-07
4.5872821e-09
2.6076811e-07
4.4672564e-09
2.5928268e-07
4.3555787e-09
2.5783291e-07
4.2509545e-09
2.5641665e-07
4.1526157e-09
2.5503173e-07
4.0606927e-09
2.5367603e-07
3.974985e-09
2.5234777e-07
3.8944419e-09
2.5104542e-07
3.8184363e-09
2.4976736e-07
3.7471809e-09
2.4851198e-07
3.6806262e-09
2.4727788e-07
3.6181708e-09
2.4606387e-07
3.5592303e-09
2.4486878e-07
3.503703e-09
2.4369139e-07
3.4517761e-09
2.4253051e-07
3.4033514e-09
2.4138514e-07
3.3577828e-09
2.4025445e-07
3.3147272e-09
2.3913748e-07
3.2744556e-09
2.3803325e-07
3.2370514e-09
2.3694089e-07
3.2022331e-09
2.3585965e-07
3.169565e-09
2.3478885e-07
3.1389341e-09
2.337277e-07
3.1105998e-09
2.3267538e-07
3.0846595e-09
2.316312e-07
3.0607538e-09
2.3059458e-07
3.0385454e-09
2.295649e-07
3.0181442e-09
2.2854148e-07
2.9997846e-09
2.2752359e-07
2.9835225e-09
2.2651065e-07
2.9689592e-09
2.2550216e-07
2.9558481e-09
2.2449754e-07
2.9444871e-09
2.2349611e-07
2.9350817e-09
2.2249723e-07
2.9275378e-09
2.2150039e-07
2.9215458e-09
2.2050508e-07
2.9170092e-09
2.1951068e-07
2.9142736e-09
2.185165e-07
2.9135859e-09
2.1752195e-07
2.9146277e-09
2.1652652e-07
2.9171357e-09
2.1552961e-07
2.9214374e-09
2.1453049e-07
2.9278678e-09
2.1352845e-07
2.9363545e-09
2.1252289e-07
2.946622e-09
2.1151317e-07
2.9587468e-09
2.1049852e-07
2.9731641e-09
2.094781e-07
2.9899814e-09
2.084512e-07
3.008911e-09
2.0741707e-07
3.0300481e-09
2.0637476e-07
3.0539373e-09
2.0532331e-07
3.0806704e-09
2.0426182e-07
3.1100115e-09
2.031893e-07
3.1422688e-09
2.0210451e-07
3.1781336e-09
2.0100638e-07
3.2171459e-09
1.9989338e-07
3.2606477e-09
1.9881127e-07
3.1700554e-09
1.9778462e-07
3.007516e-09
1.968091e-07
2.8576644e-09
1.9588062e-07
2.7198212e-09
1.9499535e-07
2.5932006e-09
1.941499e-07
2.4765082e-09
1.9334131e-07
2.3684898e-09
1.9256684e-07
2.268527e-09
1.9182391e-07
2.1760921e-09
1.9111027e-07
2.0902869e-09
1.9042393e-07
2.0102629e-09
1.8976309e-07
1.9356023e-09
1.8912597e-07
1.8660812e-09
1.8851087e-07
1.8015711e-09
1.8791628e-07
1.7414773e-09
1.8734056e-07
1.6862067e-09
1.867826e-07
1.634187e-09
1.8623888e-07
1.5925062e-09
1.8571081e-07
1.5466363e-09
1.851825e-07
1.547521e-09
1.846801e-07
1.4717537e-09
1.8406111e-07
1.8122119e-09
1.1354715e-09
2.6637192e-06
6.9822443e-11
2.6636893e-06
1.71621e-10
2.6636512e-06
2.1762111e-10
2.6636092e-06
2.3967839e-10
2.6635623e-06
2.6753618e-10
2.6635098e-06
3.0015154e-10
2.6634511e-06
3.3542526e-10
2.6633857e-06
3.7432213e-10
2.6633125e-06
4.1867215e-10
2.6632304e-06
4.7017198e-10
2.6631379e-06
5.3068122e-10
2.6630328e-06
6.0281812e-10
2.6629126e-06
6.9036966e-10
2.6627735e-06
7.9939695e-10
2.6626104e-06
9.3813568e-10
2.6624152e-06
1.1242598e-09
2.6621771e-06
1.3730046e-09
2.6618711e-06
1.7666515e-09
2.6614777e-06
2.2748817e-09
2.6608714e-06
3.5129342e-09
2.6600593e-06
4.7132828e-09
2.6577132e-06
1.3631849e-08
2.6566184e-06
6.2277064e-09
1.8002819e-06
6.2636655e-06
7.4885519e-07
6.9657593e-06
5.2434837e-07
7.9474147e-07
4.8555236e-07
1.2592503e-07
4.6974858e-07
5.1063846e-08
4.585253e-07
3.6354613e-08
4.489444e-07
3.1071464e-08
4.4047109e-07
2.7487382e-08
4.3289884e-07
2.4562241e-08
4.2606762e-07
2.2155287e-08
4.1984058e-07
2.0193932e-08
4.1411411e-07
1.8569416e-08
4.0881295e-07
1.7188982e-08
4.0388038e-07
1.5992644e-08
3.9927116e-07
1.4943136e-08
3.9494798e-07
1.401485e-08
3.9087937e-07
1.3188756e-08
3.8703839e-07
1.2450096e-08
3.8340172e-07
1.1787162e-08
3.7994903e-07
1.1190231e-08
3.7666274e-07
1.065041e-08
3.7352738e-07
1.0160751e-08
3.7052952e-07
9.7147225e-09
3.6765739e-07
9.3068482e-09
3.6490028e-07
8.9338e-09
3.622488e-07
8.5911949e-09
3.5969472e-07
8.2752667e-09
3.5723036e-07
7.9843278e-09
3.5484881e-07
7.7157889e-09
3.5254408e-07
7.466627e-09
3.5031063e-07
7.2354902e-09
3.4814319e-07
7.0214336e-09
3.4603721e-07
6.8221398e-09
3.4398869e-07
6.635807e-09
3.4199369e-07
6.4622603e-09
3.4004849e-07
6.3007786e-09
3.3814993e-07
6.1495089e-09
3.3629521e-07
6.0073326e-09
3.3448149e-07
5.8744214e-09
3.3270598e-07
5.7504922e-09
3.3096638e-07
5.6340433e-09
3.2926065e-07
5.5241614e-09
3.2758669e-07
5.4211389e-09
3.2594241e-07
5.3249089e-09
3.2432597e-07
5.2346128e-09
3.2273579e-07
5.1494065e-09
3.2117036e-07
5.0691341e-09
3.1962808e-07
4.9940616e-09
3.1810738e-07
4.9240526e-09
3.1660698e-07
4.8581824e-09
3.1512575e-07
4.7959502e-09
3.1366247e-07
4.7377376e-09
3.1221585e-07
4.6836687e-09
3.1078474e-07
4.6333428e-09
3.0936818e-07
4.5861324e-09
3.0796524e-07
4.5418691e-09
3.0657492e-07
4.5009223e-09
3.0519614e-07
4.4634362e-09
3.03828e-07
4.428898e-09
3.0246972e-07
4.3968193e-09
3.0112052e-07
4.3673524e-09
2.9977946e-07
4.3408354e-09
2.9844564e-07
4.3173521e-09
2.9711826e-07
4.296332e-09
2.9579669e-07
4.2774159e-09
2.9448015e-07
4.2610279e-09
2.9316777e-07
4.2474672e-09
2.918587e-07
4.2366017e-09
2.9055226e-07
4.2279862e-09
2.892478e-07
4.2214779e-09
2.879445e-07
4.2175723e-09
2.8664145e-07
4.2166286e-09
2.8533789e-07
4.2181927e-09
2.8403314e-07
4.221882e-09
2.8272642e-07
4.2281649e-09
2.8141676e-07
4.2375269e-09
2.8010324e-07
4.2498678e-09
2.7878507e-07
4.26479e-09
2.7746142e-07
4.2824009e-09
2.7613126e-07
4.3033283e-09
2.7479351e-07
4.3277314e-09
2.7344722e-07
4.3551964e-09
2.7209141e-07
4.3858581e-09
2.7072485e-07
4.4205027e-09
2.6934625e-07
4.4592668e-09
2.6795445e-07
4.5018107e-09
2.6654814e-07
4.5485773e-09
2.6512571e-07
4.6005666e-09
2.6368574e-07
4.6571179e-09
2.6222621e-07
4.7201757e-09
2.6080715e-07
4.5891128e-09
2.5946078e-07
4.3538847e-09
2.5818143e-07
4.1370152e-09
2.5696373e-07
3.9375208e-09
2.5580267e-07
3.7542629e-09
2.5469381e-07
3.5853712e-09
2.5363327e-07
3.4290309e-09
2.5261745e-07
3.2843454e-09
2.5164299e-07
3.1505524e-09
2.5070692e-07
3.0263542e-09
2.4980666e-07
2.9105226e-09
2.4893981e-07
2.8024518e-09
2.4810407e-07
2.7018177e-09
2.4729721e-07
2.6084349e-09
2.4651724e-07
2.5214442e-09
2.4576202e-07
2.441431e-09
2.4503008e-07
2.3661237e-09
2.4431683e-07
2.3057577e-09
2.4362411e-07
2.2393561e-09
2.4293113e-07
2.2405063e-09
2.4227213e-07
2.1307502e-09
2.4146003e-07
2.6243113e-09
1.6437015e-09
2.8986139e-06
8.3213037e-11
2.8985808e-06
2.0471822e-10
2.8985386e-06
2.5976677e-10
2.8984922e-06
2.861327e-10
2.8984403e-06
3.193702e-10
2.8983822e-06
3.5827016e-10
2.8983173e-06
4.0032541e-10
2.898245e-06
4.4668241e-10
2.8981641e-06
4.9952246e-10
2.8980734e-06
5.6086658e-10
2.8979712e-06
6.3292715e-10
2.8978552e-06
7.1881822e-10
2.8977225e-06
8.2304332e-10
2.8975691e-06
9.5281071e-10
2.8973893e-06
1.1179101e-09
2.8971742e-06
1.3393596e-09
2.896912e-06
1.6352392e-09
2.8965752e-06
2.1034116e-09
2.8961425e-06
2.7075592e-09
2.8954763e-06
4.1792008e-09
2.8945847e-06
5.6048122e-09
2.8920107e-06
1.6205855e-08
2.8907979e-06
7.4405385e-09
2.0385311e-06
7.1159323e-06
9.5143001e-07
8.0528604e-06
6.7861587e-07
1.0675556e-06
6.2860772e-07
1.7593318e-07
6.0815019e-07
7.1521374e-08
5.9366577e-07
5.0839037e-08
5.8131251e-07
4.3424724e-08
5.7038871e-07
3.8411182e-08
5.6062498e-07
3.4325963e-08
5.518149e-07
3.0965369e-08
5.4378272e-07
2.8226113e-08
5.3639517e-07
2.5956966e-08
5.2955539e-07
2.402876e-08
5.2319033e-07
2.2357709e-08
5.1724178e-07
2.0891682e-08
5.1166173e-07
1.9594899e-08
5.0640968e-07
1.8440805e-08
5.0145097e-07
1.7408813e-08
4.9675555e-07
1.6482579e-08
4.9229727e-07
1.5648515e-08
4.8805345e-07
1.4894221e-08
4.8400423e-07
1.4209979e-08
4.8013226e-07
1.3586687e-08
4.7642241e-07
1.3016696e-08
4.7286088e-07
1.2495332e-08
4.6943557e-07
1.2016508e-08
4.6613587e-07
1.1574968e-08
4.6295188e-07
1.1168318e-08
4.598747e-07
1.0792969e-08
4.5689661e-07
1.0444714e-08
4.5401046e-07
1.0121639e-08
4.5120948e-07
9.8224171e-09
4.4848777e-07
9.5438446e-09
4.4584018e-07
9.2833983e-09
4.4326164e-07
9.0408036e-09
4.4074735e-07
8.815066e-09
4.3829324e-07
8.6036216e-09
4.3589568e-07
8.4048959e-09
4.3355099e-07
8.2191048e-09
4.3125562e-07
8.0458625e-09
4.2900657e-07
7.8830951e-09
4.2680121e-07
7.729517e-09
4.2463684e-07
7.5855144e-09
4.2251075e-07
7.4510014e-09
4.2042057e-07
7.3247935e-09
4.1836426e-07
7.2057118e-09
4.1633987e-07
7.0935258e-09
4.1434533e-07
6.9886007e-09
4.1237863e-07
6.8907541e-09
4.104381e-07
6.7987072e-09
4.085223e-07
6.7117527e-09
4.0662963e-07
6.6304094e-09
4.0475844e-07
6.5548561e-09
4.0290724e-07
6.4845419e-09
4.0107478e-07
6.4185936e-09
3.9925988e-07
6.3567675e-09
3.9746123e-07
6.2995727e-09
3.9567745e-07
6.2472155e-09
3.9390736e-07
6.1989891e-09
3.9214997e-07
6.1542097e-09
3.9040424e-07
6.1130806e-09
3.8866901e-07
6.0760731e-09
3.8694305e-07
6.0433095e-09
3.8522538e-07
6.0140005e-09
3.8351516e-07
5.9876399e-09
3.8181137e-07
5.9648113e-09
3.801129e-07
5.945936e-09
3.7841867e-07
5.9308357e-09
3.7672776e-07
5.918891e-09
3.7503935e-07
5.9098973e-09
3.7335238e-07
5.9045417e-09
3.7166567e-07
5.9033305e-09
3.6997823e-07
5.9056368e-09
3.6828919e-07
5.9109239e-09
3.6659751e-07
5.9198384e-09
3.6490198e-07
5.9330617e-09
3.6320139e-07
5.9504601e-09
3.614947e-07
5.971479e-09
3.5978084e-07
5.9962639e-09
3.5805847e-07
6.0256906e-09
3.5632622e-07
6.0599875e-09
3.5458283e-07
6.0985792e-09
3.5282704e-07
6.1416503e-09
3.5105725e-07