/*--------------------------------*- C++ -*----------------------------------*\
  =========                 |
  \\      /  F ield         | OpenFOAM: The Open Source CFD Toolbox
   \\    /   O peration     | Website:  https://openfoam.org
    \\  /    A nd           | Version:  12
     \\/     M anipulation  |
\*---------------------------------------------------------------------------*/
FoamFile
{
    format      ascii;
    class       volVectorField;
    location    "300";
    object      U;
}
// * * * * * * * * * * * * * * * * * * * * * * * * * * * * * * * * * * * * * //

dimensions      [0 1 -1 0 0 0 0];

internalField   nonuniform List<vector> 
7480
(
(0.98683292 0.0005330398 1.0343928e-16)
(0.97532638 0.0012563815 0)
(0.96256774 0.0017337667 0)
(0.94883113 0.0020078397 0)
(0.93434917 0.0021848257 0)
(0.91932553 0.002313846 0)
(0.90383763 0.0024163873 0)
(0.88791071 0.0025130124 0)
(0.87158826 0.0026184181 0)
(0.85499666 0.0027400797 0)
(0.8383295 0.0028783836 0)
(0.82186712 0.0030269406 0)
(0.80599042 0.0031613394 0)
(0.79115866 0.0032322148 0)
(0.77780063 0.0031626387 0)
(0.76614603 0.0029770707 0)
(0.75625174 0.0025147386 0)
(0.74791828 0.001725449 0)
(0.7408587 0.0024547664 -8.8448556e-17)
(0.73480732 0.0015368713 -5.5732034e-17)
(0.72959198 0.00073377883 8.8291666e-18)
(0.72494165 0.00084243434 0)
(0.7206653 0.00033046599 0)
(0.71663673 9.4348029e-05 0)
(0.71275943 -9.3436116e-06 0)
(0.70899703 -5.3244131e-05 0)
(0.7053357 -3.8693281e-05 0)
(0.70177208 -6.7573562e-06 0)
(0.69831105 2.9312322e-05 0)
(0.6949618 6.1368533e-05 0)
(0.69172809 8.5939307e-05 0)
(0.68860101 0.00010337453 0)
(0.68556303 0.00011218711 0)
(0.68255098 0.00011398883 0)
(0.67952278 0.00011596268 0)
(0.67647346 0.00012033071 0)
(0.67342118 0.00012513366 0)
(0.67040165 0.00012763673 0)
(0.66745137 0.00012632818 0)
(0.66459594 0.0001214676 0)
(0.66184639 0.00011437086 0)
(0.65920313 0.00010635125 0)
(0.65666066 9.8347164e-05 0)
(0.65420764 9.037613e-05 0)
(0.6518328 8.1916958e-05 0)
(0.64948704 7.0210853e-05 0)
(0.64709194 4.6915504e-05 0)
(0.64451518 -3.8608966e-06 0)
(0.64154377 -7.9768063e-05 0)
(0.63798003 -0.00014982874 0)
(0.63403232 -0.00016833424 0)
(0.63018082 -0.00015166732 0)
(0.62669927 -0.00011799626 0)
(0.62364324 -9.1971288e-05 0)
(0.62091747 -7.33261e-05 0)
(0.61841346 -5.8088324e-05 0)
(0.61604544 -4.3638179e-05 0)
(0.61374058 -3.0329134e-05 0)
(0.61151065 -1.9126499e-05 0)
(0.60934158 -1.0072734e-05 0)
(0.6072244 -2.6230555e-06 0)
(0.60514779 3.7367669e-06 0)
(0.60310145 9.0066057e-06 0)
(0.6010783 1.3196933e-05 0)
(0.59907274 1.6404927e-05 0)
(0.59708028 1.8729781e-05 0)
(0.59509906 2.027584e-05 0)
(0.59312812 2.1177623e-05 0)
(0.59116584 2.1572312e-05 0)
(0.58921017 2.1564117e-05 0)
(0.58725927 2.1234106e-05 0)
(0.58531138 2.0639859e-05 0)
(0.58336502 1.9821065e-05 0)
(0.5814188 1.8820479e-05 0)
(0.57947129 1.7670995e-05 0)
(0.57752114 1.6398986e-05 0)
(0.57556701 1.5125828e-05 0)
(0.5736075 1.3955828e-05 0)
(0.57164144 1.2831146e-05 0)
(0.56966757 1.1711107e-05 0)
(0.56768487 1.0566204e-05 0)
(0.56569307 9.3902506e-06 0)
(0.56369317 8.1735678e-06 0)
(0.56170049 7.2563832e-06 0)
(0.55986719 1.7926304e-05 0)
(0.55934261 0.00027241391 0)
(0.57008887 0.00038258611 0)
(0.57556397 0.00035067604 0)
(0.57885825 0.00029534049 0)
(0.58009792 0.00023251975 0)
(0.5802733 0.0001825032 0)
(0.57985572 0.00014385423 0)
(0.57910518 0.00011360902 0)
(0.57815094 9.0209065e-05 0)
(0.57707206 7.2860054e-05 0)
(0.57589827 6.0354063e-05 0)
(0.57469751 5.1775328e-05 0)
(0.57335777 8.2352931e-05 6.8625441e-20)
(0.57221018 3.7947167e-05 -1.4905845e-19)
(0.56992395 5.9847172e-05 -1.0537806e-17)
(0.99589766 0.0022870776 0)
(0.99632242 0.003446264 0)
(0.99686881 0.0040222316 0)
(0.99714088 0.0040891259 0)
(0.99714557 0.0041211109 0)
(0.99699873 0.0041171986 0)
(0.99673327 0.0040956116 0)
(0.99630908 0.0040494892 0)
(0.99567295 0.0039738409 0)
(0.99473072 0.0038553269 0)
(0.99335545 0.0036770207 0)
(0.99137177 0.0034246767 0)
(0.98855124 0.0030908955 0)
(0.98463629 0.0026887151 0)
(0.97941056 0.0022608908 0)
(0.9728014 0.001861087 0)
(0.96487605 0.0016398243 0)
(0.95584084 0.0013987112 0)
(0.94594418 0.0012342158 0)
(0.93543465 0.0012763106 0)
(0.9245692 0.0012096242 0)
(0.91370946 0.0010879196 0)
(0.90309985 0.0010760914 0)
(0.89293425 0.0010551317 0)
(0.88333294 0.0010070052 0)
(0.87434761 0.00093808797 0)
(0.86599938 0.00085137306 0)
(0.85827014 0.00076816705 0)
(0.85110455 0.00069361112 0)
(0.84442296 0.00062927313 0)
(0.83814014 0.00057685228 0)
(0.83218036 0.00053696745 0)
(0.82647105 0.00051012086 0)
(0.82099201 0.00049374481 0)
(0.81573542 0.00048075217 0)
(0.81068897 0.00046582552 0)
(0.80583452 0.00044739614 0)
(0.80114924 0.00042596449 0)
(0.79660927 0.00040254981 0)
(0.79219854 0.00037854008 0)
(0.78790891 0.00035528455 0)
(0.78373773 0.00033351355 0)
(0.77968345 0.00031358734 0)
(0.77574338 0.00029561451 0)
(0.77191498 0.000280471 0)
(0.76820711 0.00027066283 0)
(0.7646408 0.00027022487 0)
(0.76126276 0.00028404484 0)
(0.758163 0.00031084321 0)
(0.75541028 0.00033362558 0)
(0.75283955 0.00033139837 0)
(0.7501819 0.00030550677 0)
(0.74733474 0.00026867809 0)
(0.74432763 0.00023576021 0)
(0.7412529 0.00021152129 0)
(0.73818199 0.00019508689 0)
(0.73514764 0.00018394323 0)
(0.73215643 0.0001747945 0)
(0.72921554 0.00016576744 0)
(0.72632898 0.00015737466 0)
(0.72349793 0.00014967687 0)
(0.72072063 0.0001427085 0)
(0.71799419 0.00013636363 0)
(0.71531615 0.00013056313 0)
(0.71268345 0.00012527642 0)
(0.71009314 0.00012039554 0)
(0.70754398 0.00011580244 0)
(0.70503494 0.00011147717 0)
(0.70256454 0.000107426 0)
(0.70013118 0.00010363048 0)
(0.69773341 0.00010007704 0)
(0.69536977 9.6744454e-05 0)
(0.693039 9.3604523e-05 0)
(0.69073995 9.0652399e-05 0)
(0.68847145 8.7873601e-05 0)
(0.68623246 8.5252267e-05 0)
(0.68402199 8.2778538e-05 0)
(0.68183897 8.0413759e-05 0)
(0.67968255 7.8146161e-05 0)
(0.67755168 7.6002132e-05 0)
(0.67544539 7.3948409e-05 0)
(0.67336314 7.1964628e-05 0)
(0.67130401 6.9923796e-05 0)
(0.66926856 6.6451191e-05 0)
(0.66725519 4.374427e-05 0)
(0.66499989 -0.00013181766 0)
(0.66050495 -0.00016574166 0)
(0.65866667 -8.6236335e-05 0)
(0.65725442 -4.4112479e-05 0)
(0.65594671 -9.83565e-06 0)
(0.65452024 8.7713425e-06 0)
(0.65297373 1.8642604e-05 0)
(0.65135125 2.367687e-05 0)
(0.64968641 2.6488814e-05 0)
(0.64800453 2.8150447e-05 0)
(0.64630132 2.8706603e-05 0)
(0.64462632 2.9137957e-05 0)
(0.64283837 3.1353772e-05 0)
(0.64130825 3.135395e-05 0)
(0.63850182 3.3653358e-05 0)
(0.99617322 0.0021847972 0)
(0.99654093 0.0028425481 0)
(0.99711242 0.0030010006 0)
(0.99757808 0.0029795154 0)
(0.99788963 0.002984044 0)
(0.99814084 0.00300812 0)
(0.99837975 0.0030362718 0)
(0.99860524 0.0030652083 0)
(0.9988133 0.0030964388 0)
(0.99900677 0.0031283809 0)
(0.99918832 0.0031571093 0)
(0.99935275 0.0031798846 0)
(0.9994843 0.0031943133 0)
(0.99955837 0.0032012946 0)
(0.99953993 0.0032068384 0)
(0.99938795 0.0032096978 0)
(0.99904614 0.0031959102 0)
(0.99844493 0.0031800431 0)
(0.9975208 0.0031067376 0)
(0.99618124 0.0030045552 0)
(0.99426773 0.0029138261 0)
(0.99160862 0.0028058915 0)
(0.98810793 0.0026817404 0)
(0.98370405 0.0025520195 0)
(0.97839106 0.002411248 0)
(0.97221042 0.0022718473 0)
(0.96522785 0.0021257632 0)
(0.95765055 0.001964964 0)
(0.94968202 0.0018053769 0)
(0.9415229 0.0016514901 0)
(0.93336278 0.001505152 0)
(0.92535807 0.0013678069 0)
(0.91762658 0.0012458207 0)
(0.91023659 0.0011445368 0)
(0.90320567 0.001060662 0)
(0.89651244 0.00098979882 0)
(0.89011598 0.00092882178 0)
(0.88396834 0.00087520234 0)
(0.87802942 0.00082652063 0)
(0.8722727 0.00078075028 0)
(0.86668283 0.00073675034 0)
(0.8612514 0.00069443311 0)
(0.8559691 0.00065429102 0)
(0.85082717 0.00061639402 0)
(0.84582202 0.00058151253 0)
(0.84096569 0.00055126531 0)
(0.83627352 0.00052726286 0)
(0.83176879 0.00051258112 0)
(0.82748674 0.00050549972 0)
(0.82345226 0.0004998024 0)
(0.81962008 0.0004843394 0)
(0.81589429 0.00045905998 0)
(0.81220181 0.00042981534 0)
(0.80850687 0.00040163683 0)
(0.80481304 0.00037635521 0)
(0.80114068 0.0003542108 0)
(0.79750881 0.00033562705 0)
(0.7939302 0.00031893915 0)
(0.7904135 0.0003028383 0)
(0.78696195 0.00028783788 0)
(0.78357558 0.00027388234 0)
(0.78025414 0.00026100769 0)
(0.77699702 0.00024913148 0)
(0.77380345 0.00023812474 0)
(0.77067106 0.00022791555 0)
(0.76759765 0.00021831779 0)
(0.76458238 0.00020918272 0)
(0.76162354 0.00020050468 0)
(0.75871916 0.00019228706 0)
(0.75586753 0.00018449656 0)
(0.75306715 0.00017711393 0)
(0.7503165 0.00017011083 0)
(0.74761415 0.00016344731 0)
(0.74495879 0.00015711487 0)
(0.74234908 0.00015109045 0)
(0.73978384 0.00014534956 0)
(0.73726192 0.00013986352 0)
(0.73478213 0.00013459768 0)
(0.73234345 0.00012956472 0)
(0.72994472 0.00012477541 0)
(0.72758479 0.000120176 0)
(0.72526284 0.00011575358 0)
(0.72297742 0.00011150648 0)
(0.72072479 0.00010623833 0)
(0.71847376 9.0608633e-05 0)
(0.7158589 7.6282079e-06 0)
(0.71115426 -5.1215538e-05 0)
(0.7080088 -2.1943413e-05 0)
(0.70546222 1.0360899e-05 0)
(0.70329909 3.5977541e-05 0)
(0.70124396 5.0141961e-05 0)
(0.69921086 5.7001357e-05 0)
(0.69718093 5.9751151e-05 0)
(0.69515647 6.0269495e-05 0)
(0.6931469 5.9579106e-05 0)
(0.69113874 5.8012015e-05 0)
(0.68917655 5.7282459e-05 0)
(0.68710863 5.5369327e-05 0)
(0.68533667 6.0301662e-05 0)
(0.68216202 5.4885427e-05 4.0181246e-20)
(0.99636938 0.0020428979 0)
(0.99666472 0.0026450603 0)
(0.99717671 0.0029790171 0)
(0.99763009 0.0031498016 0)
(0.99794948 0.0032869548 0)
(0.99820803 0.0034021238 0)
(0.99845411 0.00348454 0)
(0.99869053 0.0035397158 0)
(0.99891398 0.0035743631 0)
(0.99912844 0.0035928021 0)
(0.99933874 0.0035827506 0)
(0.9995454 0.0035472187 0)
(0.99974204 0.0034779537 0)
(0.9999188 0.0033742199 0)
(1.0000647 0.0032366042 0)
(1.0001756 0.0030789163 0)
(1.0002487 0.0029083345 0)
(1.0002853 0.0027511745 0)
(1.000302 0.0026331866 0)
(1.0003006 0.0025335718 0)
(1.0002714 0.0024705365 0)
(1.0002093 0.002439382 0)
(1.0000892 0.0024163303 0)
(0.99987198 0.0024015007 0)
(0.99950881 0.0023921385 0)
(0.99892622 0.0023809867 0)
(0.9980434 0.0023653461 0)
(0.99668522 0.0023435844 0)
(0.99471329 0.0023115338 0)
(0.99201706 0.0022671946 0)
(0.98851905 0.002211481 0)
(0.9841933 0.0021494822 0)
(0.97906317 0.0020731405 0)
(0.97327713 0.0019763714 0)
(0.96700114 0.0018685847 0)
(0.96041237 0.0017545233 0)
(0.95367805 0.0016378528 0)
(0.94693776 0.0015230699 0)
(0.94029319 0.0014166809 0)
(0.93379903 0.0013217322 0)
(0.92747039 0.001237118 0)
(0.92129813 0.0011617534 0)
(0.91526644 0.0010946252 0)
(0.90936515 0.001034016 0)
(0.90359065 0.00097816899 0)
(0.8979483 0.00092621737 0)
(0.89244942 0.00087883712 0)
(0.88710869 0.00083716502 0)
(0.88193977 0.00080284736 0)
(0.87695016 0.00077326532 0)
(0.87213019 0.00074263963 0)
(0.86745168 0.00070809261 0)
(0.86288666 0.00067126447 0)
(0.85841073 0.00063469697 0)
(0.85400907 0.00060000652 0)
(0.84967732 0.00056790183 0)
(0.84541862 0.00053910309 0)
(0.84123717 0.00051241283 0)
(0.83713402 0.00048666954 0)
(0.83310873 0.00046234725 0)
(0.82916147 0.00043961658 0)
(0.82529226 0.00041854524 0)
(0.82150029 0.00039887903 0)
(0.81778458 0.00038045959 0)
(0.81414274 0.00036323225 0)
(0.81057292 0.00034696717 0)
(0.80707407 0.00033150271 0)
(0.80364361 0.00031684466 0)
(0.80027928 0.00030297349 0)
(0.79697921 0.00028982589 0)
(0.79374172 0.00027736674 0)
(0.79056507 0.00026555305 0)
(0.78744757 0.00025432638 0)
(0.78438765 0.00024366772 0)
(0.7813837 0.00023353943 0)
(0.77843427 0.0002239024 0)
(0.77553794 0.00021475298 0)
(0.77269327 0.00020605487 0)
(0.76989902 0.00019777211 0)
(0.7671538 0.0001899067 0)
(0.76445624 0.00018238193 0)
(0.76180536 0.00017517734 0)
(0.75919957 0.00016829922 0)
(0.75663552 0.00016097792 0)
(0.75408992 0.00014634758 0)
(0.75134322 7.6636281e-05 0)
(0.74758601 1.8610302e-05 0)
(0.744405 3.36229e-05 0)
(0.74158739 5.5252561e-05 0)
(0.73907429 7.5180335e-05 0)
(0.73669844 8.7128634e-05 0)
(0.73438033 9.3081367e-05 0)
(0.73208918 9.5117311e-05 0)
(0.72981766 9.4623335e-05 0)
(0.72757058 9.293056e-05 0)
(0.72533246 9.044753e-05 0)
(0.72314693 8.944208e-05 0)
(0.72085838 8.6147251e-05 0)
(0.71889324 9.6075541e-05 0)
(0.71540564 8.170013e-05 -3.3223644e-20)
(0.99655568 0.0019822402 0)
(0.99680341 0.0025641743 0)
(0.99724926 0.0029217668 0)
(0.99766154 0.0030774694 0)
(0.99796303 0.0031644011 0)
(0.99820933 0.0032259632 0)
(0.99844596 0.0032634339 0)
(0.9986767 0.0032823185 0)
(0.99889719 0.0032905433 0)
(0.99910996 0.0032875515 0)
(0.99931937 0.0032729584 0)
(0.99952558 0.0032394403 0)
(0.99972285 0.0031827968 0)
(0.99990283 0.0031032716 0)
(1.0000565 0.0030068132 0)
(1.0001786 0.0029065994 0)
(1.0002671 0.0028103203 0)
(1.0003253 0.0027340621 0)
(1.0003701 0.0026868945 0)
(1.0004073 0.0026486283 0)
(1.0004371 0.0026227553 0)
(1.0004687 0.0026035879 0)
(1.0005008 0.002580947 0)
(1.0005313 0.0025596038 0)
(1.0005607 0.0025376693 0)
(1.0005854 0.002514969 0)
(1.0005998 0.0024918425 0)
(1.0005939 0.0024677715 0)
(1.0005511 0.0024429703 0)
(1.0004455 0.0024177699 0)
(1.0002363 0.0023920364 0)
(0.99986173 0.002364238 0)
(0.999248 0.0023343112 0)
(0.99824304 0.002302333 0)
(0.99671185 0.0022651906 0)
(0.99453729 0.0022202919 0)
(0.99163884 0.0021674859 0)
(0.98798156 0.0021049952 0)
(0.98360815 0.0020256494 0)
(0.97864336 0.0019312257 0)
(0.97323612 0.0018298861 0)
(0.96753954 0.0017252641 0)
(0.96169208 0.0016215851 0)
(0.95580115 0.0015242522 0)
(0.94992918 0.001435515 0)
(0.94410358 0.0013551334 0)
(0.93833723 0.0012831232 0)
(0.93264298 0.0012195117 0)
(0.9270383 0.0011638025 0)
(0.92154061 0.0011133782 0)
(0.91615917 0.0010639032 0)
(0.91089264 0.0010127643 0)
(0.90573417 0.00096097737 0)
(0.90067579 0.0009107188 0)
(0.89571123 0.00086334317 0)
(0.89083642 0.00081921301 0)
(0.88605149 0.00077868018 0)
(0.8813562 0.00074052022 0)
(0.87674691 0.00070371115 0)
(0.87222138 0.00066878195 0)
(0.86778051 0.00063586697 0)
(0.86342485 0.00060503059 0)
(0.85915377 0.00057605443 0)
(0.8549662 0.00054879575 0)
(0.85086094 0.00052320517 0)
(0.8468363 0.0004990271 0)
(0.84289018 0.00047606629 0)
(0.83902065 0.0004543163 0)
(0.83522577 0.00043373825 0)
(0.83150372 0.0004142363 0)
(0.82785279 0.00039575594 0)
(0.8242712 0.00037823693 0)
(0.82075722 0.0003616001 0)
(0.81730919 0.00034581327 0)
(0.8139254 0.00033082193 0)
(0.81060428 0.00031657003 0)
(0.8073443 0.00030303995 0)
(0.80414388 0.0002901787 0)
(0.80100163 0.00027794278 0)
(0.79791604 0.00026632985 0)
(0.79488562 0.00025524241 0)
(0.79190927 0.00024465575 0)
(0.7889854 0.00023462188 0)
(0.78611161 0.00022461873 0)
(0.78327366 0.00020882591 0)
(0.78035367 0.00014574875 0)
(0.777002 9.165726e-05 0)
(0.77385435 9.5520608e-05 0)
(0.77091211 0.00010934399 0)
(0.76817824 0.00012377271 0)
(0.76556681 0.00013265735 0)
(0.76301997 0.00013656636 0)
(0.76050881 0.00013685033 0)
(0.75802292 0.00013489684 0)
(0.75556524 0.00013200771 0)
(0.75312 0.00012801585 0)
(0.75073088 0.00012624143 0)
(0.74824 0.00012084409 4.9921942e-20)
(0.74609699 0.00013670805 0)
(0.7423134 0.00011087856 0)
(0.99672899 0.0019374385 0)
(0.99693663 0.0024695916 0)
(0.99732028 0.0028117382 0)
(0.99769432 0.0029724739 0)
(0.99798453 0.0030715516 0)
(0.99822688 0.0031568315 0)
(0.99845965 0.0032253003 0)
(0.9986871 0.0032754797 0)
(0.99890433 0.0033100563 0)
(0.99911339 0.0033368596 0)
(0.99931813 0.0033347025 0)
(0.99951829 0.0033175524 0)
(0.9997093 0.0032740735 0)
(0.99988357 0.0032056116 0)
(1.0000329 0.0031169408 0)
(1.0001531 0.0030181694 0)
(1.0002422 0.002915829 0)
(1.0003034 0.0028230716 0)
(1.0003508 0.0027474676 0)
(1.0003903 0.0026763766 0)
(1.0004239 0.00261769 0)
(1.0004593 0.0025704844 0)
(1.0004967 0.0025279803 0)
(1.0005347 0.0024935047 0)
(1.0005747 0.0024641851 0)
(1.0006159 0.0024380342 0)
(1.0006576 0.0024139484 0)
(1.0006986 0.0023905955 0)
(1.0007376 0.00236859 0)
(1.0007741 0.002348234 0)
(1.0008069 0.0023296728 0)
(1.0008342 0.0023138125 0)
(1.0008527 0.0023011705 0)
(1.0008545 0.0022907988 0)
(1.0008247 0.0022809646 0)
(1.0007361 0.0022696009 0)
(1.0005431 0.002254869 0)
(1.0001816 0.0022351399 0)
(0.99954471 0.0022105564 0)
(0.99848648 0.0021806961 0)
(0.99687642 0.0021437598 0)
(0.99461415 0.0020999436 0)
(0.99164167 0.0020474741 0)
(0.98798115 0.001980631 0)
(0.98373397 0.0019011451 0)
(0.97903055 0.0018151387 0)
(0.97400947 0.0017257524 0)
(0.9687962 0.0016387782 0)
(0.96348658 0.001559553 0)
(0.95814113 0.0014871501 0)
(0.95279064 0.0014182938 0)
(0.9474517 0.0013505697 0)
(0.94213734 0.0012841477 0)
(0.93686174 0.001220209 0)
(0.93163796 0.0011595964 0)
(0.92647422 0.0011024733 0)
(0.92137677 0.0010490882 0)
(0.91635022 0.00099843548 0)
(0.91139624 0.00094966967 0)
(0.90651561 0.00090322537 0)
(0.90171034 0.00085916825 0)
(0.8969826 0.00081760318 0)
(0.89233404 0.00077834825 0)
(0.88776539 0.00074126592 0)
(0.88327782 0.00070631047 0)
(0.87887098 0.00067322645 0)
(0.87454302 0.00064181096 0)
(0.87029344 0.00061203341 0)
(0.86612132 0.00058382458 0)
(0.86202558 0.0005570667 0)
(0.85800503 0.00053169214 0)
(0.85405837 0.00050762461 0)
(0.85018424 0.00048476449 0)
(0.84638129 0.00046306673 0)
(0.84264808 0.00044246003 0)
(0.83898321 0.00042287111 0)
(0.8353853 0.00040426976 0)
(0.83185287 0.00038658626 0)
(0.82838461 0.00036976631 0)
(0.82497905 0.00035380159 0)
(0.82163474 0.00033857274 0)
(0.8183506 0.00032404882 0)
(0.81512514 0.00031031265 0)
(0.81195677 0.00029698479 0)
(0.80883718 0.00027880659 0)
(0.80570301 0.00021892779 0)
(0.80240469 0.00016525769 0)
(0.79919123 0.0001617932 0)
(0.79610247 0.00016937902 0)
(0.79315895 0.0001788732 0)
(0.79032116 0.00018437132 0)
(0.7875506 0.00018584449 0)
(0.78482308 0.00018418603 0)
(0.78212683 0.00018042557 0)
(0.77946306 0.00017584885 0)
(0.77681544 0.000170059 0)
(0.77422749 0.00016734214 0)
(0.77153902 0.00015927562 0)
(0.76922246 0.0001821185 3.5545699e-20)
(0.76514849 0.0001427078 0)
(0.99688911 0.0018995598 0)
(0.99706444 0.0023817298 0)
(0.99739509 0.0027142858 0)
(0.99773449 0.0028929757 0)
(0.99801259 0.0030080721 0)
(0.99824901 0.0031032049 0)
(0.99847512 0.0031758543 0)
(0.99869655 0.0032238163 0)
(0.99890871 0.0032528829 0)
(0.9991133 0.0032653431 0)
(0.9993136 0.0032611435 0)
(0.99950862 0.0032360299 0)
(0.99969466 0.0031877814 0)
(0.99986482 0.00311719 0)
(1.0000117 0.0030285866 0)
(1.0001312 0.0029310209 0)
(1.0002215 0.0028316942 0)
(1.0002859 0.0027430774 0)
(1.0003362 0.0026727255 0)
(1.0003781 0.0026121399 0)
(1.0004144 0.0025668038 0)
(1.0004516 0.0025341807 0)
(1.00049 0.0025068311 0)
(1.0005289 0.0024852406 0)
(1.0005696 0.0024663102 0)
(1.0006116 0.0024482316 0)
(1.0006544 0.0024300177 0)
(1.0006971 0.0024108842 0)
(1.000739 0.0023915346 0)
(1.0007796 0.0023722588 0)
(1.0008189 0.0023533513 0)
(1.0008568 0.0023356904 0)
(1.0008944 0.0023192549 0)
(1.000932 0.0023033352 0)
(1.0009694 0.0022875474 0)
(1.0010063 0.002271291 0)
(1.0010408 0.0022544529 0)
(1.0010697 0.0022376826 0)
(1.0010867 0.0022213227 0)
(1.0010792 0.0022050608 0)
(1.0010241 0.0021884132 0)
(1.0008809 0.0021704042 0)
(1.000589 0.0021499719 0)
(1.0000416 0.0021269624 0)
(0.99909531 0.0021004375 0)
(0.99761817 0.0020685208 0)
(0.99551095 0.0020318044 0)
(0.99271892 0.0019851126 0)
(0.98929996 0.0019258206 0)
(0.98535703 0.0018586696 0)
(0.98101709 0.0017833242 0)
(0.9764038 0.0017022508 0)
(0.97161515 0.0016212624 0)
(0.9667158 0.0015435671 0)
(0.9617439 0.0014705311 0)
(0.9567246 0.0014021732 0)
(0.95168143 0.0013379875 0)
(0.94663724 0.0012764397 0)
(0.94160949 0.0012167022 0)
(0.93660976 0.0011592867 0)
(0.93164689 0.0011043375 0)
(0.92672899 0.0010520646 0)
(0.92186332 0.0010023632 0)
(0.91705552 0.00095512114 0)
(0.91231057 0.00091033742 0)
(0.90763191 0.00086782049 0)
(0.90302116 0.00082737241 0)
(0.89847997 0.00078893535 0)
(0.89400954 0.00075243576 0)
(0.88961068 0.00071774682 0)
(0.88528386 0.00068479635 0)
(0.8810291 0.00065349862 0)
(0.87684619 0.00062373869 0)
(0.87273476 0.00059546303 0)
(0.86869415 0.00056858689 0)
(0.8647237 0.00054302227 0)
(0.86082258 0.00051873009 0)
(0.85698983 0.00049562587 0)
(0.85322452 0.00047364335 0)
(0.84952555 0.00045276832 0)
(0.84589177 0.00043285933 0)
(0.84232234 0.0004138784 0)
(0.83881601 0.00039592672 0)
(0.83537194 0.00037870307 0)
(0.83198522 0.00035715048 0)
(0.8286194 0.00029704096 0)
(0.82520995 0.00024190052 0)
(0.82185544 0.00023335973 0)
(0.81858878 0.00023583374 0)
(0.81543073 0.00024075009 0)
(0.81236585 0.00024262263 0)
(0.80937032 0.00024124432 0)
(0.80642522 0.00023722496 0)
(0.80351848 0.00023130921 0)
(0.8006497 0.00022476712 0)
(0.79780159 0.00021692566 0)
(0.79501721 0.00021307862 0)
(0.7921337 0.00020189301 0)
(0.78964595 0.00023269347 3.4331789e-20)
(0.78528568 0.000177639 0)
(0.99703743 0.0018683954 0)
(0.99718728 0.0023054808 0)
(0.99747284 0.0026268187 0)
(0.99777922 0.0028162718 0)
(0.99804297 0.0029391217 0)
(0.99827197 0.0030370059 0)
(0.99849111 0.0031123645 0)
(0.99870659 0.0031641138 0)
(0.99891451 0.0031971992 0)
(0.99911533 0.0032162416 0)
(0.9993114 0.0032177049 0)
(0.99950193 0.0031998378 0)
(0.9996835 0.0031604711 0)
(0.99984991 0.0030999096 0)
(0.99999453 0.003022074 0)
(1.0001134 0.0029348895 0)
(1.000205 0.002845418 0)
(1.0002723 0.0027645522 0)
(1.0003252 0.0026985475 0)
(1.0003693 0.0026410871 0)
(1.0004076 0.0025956689 0)
(1.000446 0.0025597782 0)
(1.0004849 0.0025276241 0)
(1.0005242 0.0024998628 0)
(1.000565 0.0024745775 0)
(1.0006069 0.0024505938 0)
(1.0006495 0.0024272691 0)
(1.000692 0.0024040486 0)
(1.0007335 0.0023814337 0)
(1.0007741 0.0023597073 0)
(1.0008135 0.0023391472 0)
(1.0008522 0.0023203925 0)
(1.0008909 0.002303378 0)
(1.0009301 0.0022876105 0)
(1.0009704 0.0022727415 0)
(1.0010114 0.0022579296 0)
(1.0010525 0.002242686 0)
(1.0010929 0.0022269436 0)
(1.0011321 0.0022103833 0)
(1.0011696 0.0021931406 0)
(1.0012044 0.0021758805 0)
(1.0012359 0.002159244 0)
(1.001262 0.002143944 0)
(1.0012767 0.0021301262 0)
(1.001267 0.0021172408 0)
(1.001207 0.002104502 0)
(1.001049 0.0020905953 0)
(1.0007251 0.0020757664 0)
(1.0000959 0.0020600701 0)
(0.9990222 0.0020401763 0)
(0.99738408 0.0020127668 0)
(0.99510012 0.0019720478 0)
(0.99218824 0.0019155009 0)
(0.98873314 0.0018483699 0)
(0.9848518 0.0017748369 0)
(0.98066295 0.0016994821 0)
(0.97626202 0.0016266552 0)
(0.97171213 0.0015563465 0)
(0.96705174 0.0014882883 0)
(0.96230951 0.0014228696 0)
(0.95751273 0.0013597673 0)
(0.95268628 0.0012989095 0)
(0.94784988 0.0012402972 0)
(0.94301849 0.001183952 0)
(0.93820485 0.0011300221 0)
(0.93341995 0.0010784573 0)
(0.92867224 0.0010291314 0)
(0.9239684 0.00098202894 0)
(0.91931388 0.00093710714 0)
(0.91471326 0.00089425442 0)
(0.91017023 0.00085341763 0)
(0.90568757 0.00081452082 0)
(0.90126745 0.00077744851 0)
(0.8969115 0.00074215095 0)
(0.89262082 0.00070853948 0)
(0.88839621 0.00067651927 0)
(0.88423813 0.00064604913 0)
(0.8801467 0.00061703499 0)
(0.87612194 0.00058940235 0)
(0.87216356 0.00056313459 0)
(0.86827109 0.00053807031 0)
(0.86444429 0.00051416628 0)
(0.86068248 0.00049153668 0)
(0.85698555 0.00046992356 0)
(0.85335071 0.00044427473 0)
(0.84975437 0.0003818436 0)
(0.84616861 0.00032421313 0)
(0.84263568 0.00031136533 0)
(0.83917552 0.00030929548 0)
(0.8358035 0.00030982254 0)
(0.83251545 0.00030787177 0)
(0.8292979 0.00030325277 0)
(0.82613719 0.00029644194 0)
(0.82302195 0.00028799122 0)
(0.81995064 0.00027916795 0)
(0.816905 0.00026898053 0)
(0.81392741 0.00026378174 0)
(0.81085214 0.00024904024 -2.0648027e-20)
(0.80819605 0.00028873271 0)
(0.8035544 0.00021596937 1.0817069e-20)
(0.99717525 0.0018415927 0)
(0.99730487 0.0022381353 0)
(0.99755203 0.0025452486 0)
(0.99782747 0.0027403299 0)
(0.99807595 0.0028699821 0)
(0.99829708 0.0029723041 0)
(0.99850932 0.00305286 0)
(0.99871866 0.0031101597 0)
(0.99892183 0.0031477852 0)
(0.99911826 0.0031696766 0)
(0.99930964 0.0031733039 0)
(0.99949537 0.0031576198 0)
(0.99967224 0.0031209473 0)
(0.99983469 0.0030637605 0)
(0.99997681 0.0029899063 0)
(1.0000949 0.0029065193 0)
(1.0001875 0.002820524 0)
(1.0002573 0.0027416329 0)
(1.0003128 0.0026754175 0)
(1.0003591 0.0026178068 0)
(1.0003997 0.0025715448 0)
(1.0004396 0.0025346889 0)
(1.0004796 0.0025027745 0)
(1.0005198 0.0024760292 0)
(1.0005612 0.0024526137 0)
(1.0006035 0.002431105 0)
(1.0006464 0.0024105803 0)
(1.000689 0.0023903013 0)
(1.0007307 0.0023704681 0)
(1.0007714 0.0023512951 0)
(1.000811 0.0023329911 0)
(1.0008498 0.0023160579 0)
(1.0008885 0.0023004955 0)
(1.0009276 0.0022858773 0)
(1.0009674 0.0022717766 0)
(1.001008 0.0022573852 0)
(1.0010488 0.0022422313 0)
(1.0010895 0.0022262709 0)
(1.0011297 0.0022094209 0)
(1.0011689 0.0021920773 0)
(1.0012071 0.0021748945 0)
(1.0012441 0.0021582448 0)
(1.0012797 0.0021423371 0)
(1.0013144 0.0021269561 0)
(1.0013476 0.0021121409 0)
(1.0013788 0.0020982881 0)
(1.001407 0.0020861246 0)
(1.0014296 0.0020765667 0)
(1.0014385 0.0020696736 0)
(1.0014153 0.0020635119 0)
(1.00132 0.0020540734 0)
(1.0010872 0.0020389554 0)
(1.0005884 0.0020186264 0)
(0.99967694 0.0019932082 0)
(0.99822663 0.0019631738 0)
(0.99615216 0.0019240133 0)
(0.99347613 0.0018729225 0)
(0.99027902 0.0018127428 0)
(0.98667165 0.0017456982 0)
(0.98276174 0.0016765126 0)
(0.97863104 0.0016083925 0)
(0.97433222 0.0015422042 0)
(0.9699014 0.0014781952 0)
(0.96537049 0.001416089 0)
(0.9607697 0.0013557522 0)
(0.95612444 0.0012972267 0)
(0.95145446 0.0012405612 0)
(0.94677579 0.0011859084 0)
(0.94210217 0.0011333501 0)
(0.9374451 0.0010828594 0)
(0.93281404 0.0010344576 0)
(0.92821672 0.00098812027 0)
(0.92365964 0.00094376503 0)
(0.91914811 0.00090137367 0)
(0.91468636 0.00086087463 0)
(0.91027791 0.00082218345 0)
(0.90592555 0.00078527117 0)
(0.90163141 0.00075004512 0)
(0.89739725 0.00071643226 0)
(0.89322426 0.00068442167 0)
(0.88911329 0.00065383792 0)
(0.88506523 0.00062463788 0)
(0.88108035 0.0005969493 0)
(0.8771596 0.00057053978 0)
(0.87330179 0.00054027993 0)
(0.86948967 0.0004744137 0)
(0.8657116 0.00041350496 0)
(0.86199017 0.00039636048 0)
(0.85833606 0.00038990554 0)
(0.85475848 0.00038610337 0)
(0.8512576 0.00038016511 0)
(0.84782681 0.00037198348 0)
(0.84445722 0.00036200474 0)
(0.84113908 0.00035065961 0)
(0.83787041 0.00033923583 0)
(0.83463225 0.00032640599 0)
(0.8314664 0.00031963502 0)
(0.82820407 0.0003008971 0)
(0.82538364 0.00035043866 3.4096091e-20)
(0.82046707 0.00025787324 0)
(0.99730382 0.001818191 0)
(0.99741721 0.0021785238 0)
(0.99763182 0.0024698459 0)
(0.99787888 0.0026673571 0)
(0.99811169 0.0028030136 0)
(0.99832434 0.002909432 0)
(0.99852935 0.0029938744 0)
(0.99873208 0.0030550477 0)
(0.99892991 0.0030956669 0)
(0.99912165 0.0031194785 0)
(0.9993083 0.0031255521 0)
(0.9994893 0.0031129271 0)
(0.99966165 0.0030804229 0)
(0.99982033 0.0030286802 0)
(0.99996006 0.0029612821 0)
(1.0000773 0.0028845446 0)
(1.0001708 0.0028050438 0)
(1.000243 0.0027313831 0)
(1.0003009 0.0026685425 0)
(1.0003495 0.0026140689 0)
(1.0003922 0.0025699858 0)
(1.0004335 0.002534524 0)
(1.0004746 0.0025039436 0)
(1.0005156 0.0024779728 0)
(1.0005575 0.0024548683 0)
(1.0006001 0.002433266 0)
(1.000643 0.0024123314 0)
(1.0006858 0.0023914763 0)
(1.0007276 0.0023709077 0)
(1.0007684 0.0023509293 0)
(1.0008083 0.0023318006 0)
(1.0008473 0.0023139914 0)
(1.0008862 0.0022975654 0)
(1.0009254 0.002282143 0)
(1.0009653 0.0022672984 0)
(1.0010058 0.0022523329 0)
(1.0010465 0.0022368168 0)
(1.0010871 0.0022207157 0)
(1.001127 0.0022039954 0)
(1.0011659 0.0021869578 0)
(1.0012038 0.0021700897 0)
(1.0012406 0.0021536736 0)
(1.0012767 0.0021378803 0)
(1.0013122 0.0021226284 0)
(1.0013473 0.0021081063 0)
(1.001382 0.0020946642 0)
(1.0014162 0.0020826842 0)
(1.0014502 0.0020724401 0)
(1.001485 0.0020640154 0)
(1.0015213 0.0020565612 0)
(1.001558 0.002047932 0)
(1.0015911 0.0020370278 0)
(1.0016105 0.0020246057 0)
(1.001597 0.0020115162 0)
(1.001511 0.0019973539 0)
(1.0012881 0.0019817064 0)
(1.0007929 0.0019640603 0)
(0.9998798 0.0019419106 0)
(0.99842297 0.0019129701 0)
(0.99635935 0.0018733203 0)
(0.99372963 0.0018222099 0)
(0.99062307 0.0017631032 0)
(0.98714648 0.001699774 0)
(0.98339173 0.0016359407 0)
(0.97942204 0.0015728622 0)
(0.97528009 0.001511113 0)
(0.97100179 0.0014506489 0)
(0.96662089 0.0013914472 0)
(0.9621663 0.0013336261 0)
(0.95766103 0.0012773246 0)
(0.95312419 0.0012227448 0)
(0.94857221 0.0011700019 0)
(0.94401893 0.0011191179 0)
(0.93947583 0.0010701642 0)
(0.93495249 0.0010231294 0)
(0.93045701 0.00097797472 0)
(0.92599613 0.00093471265 0)
(0.92157534 0.00089327342 0)
(0.91719937 0.00085360391 0)
(0.91287192 0.00081571469 0)
(0.90859602 0.00077942791 0)
(0.90437444 0.00074471131 0)
(0.90020915 0.00071171272 0)
(0.89610257 0.00068021879 0)
(0.89205526 0.00064500166 0)
(0.88805361 0.00057508537 0)
(0.88409365 0.00051030103 0)
(0.88019241 0.0004886278 0)
(0.87635593 0.00047773745 0)
(0.87258854 0.00046957053 0)
(0.86889133 0.00045949533 0)
(0.86526181 0.00044748555 0)
(0.86169521 0.00043401331 0)
(0.85818393 0.00041944253 0)
(0.85472641 0.00040511036 0)
(0.85130342 0.00038934858 0)
(0.84795642 0.00038079063 0)
(0.84451365 0.00035760851 0)
(0.84153445 0.00041781059 0)
(0.83635137 0.00030350094 0)
(0.9974242 0.0017973327 0)
(0.99752444 0.002125448 0)
(0.99771154 0.0024003402 0)
(0.99793288 0.0025975215 0)
(0.99814995 0.0027376154 0)
(0.99835348 0.0028472368 0)
(0.998551 0.0029346172 0)
(0.99874685 0.0029991847 0)
(0.99893903 0.0030429916 0)
(0.99912588 0.0030694663 0)
(0.99930776 0.0030785892 0)
(0.99948404 0.0030694098 0)
(0.99965188 0.0030411172 0)
(0.9998068 0.0029944728 0)
(0.99994407 0.0029327776 0)
(1.0000604 0.0028616746 0)
(1.0001546 0.0027873819 0)
(1.0002287 0.0027175779 0)
(1.0002889 0.0026568112 0)
(1.0003395 0.0026038769 0)
(1.0003842 0.0025603317 0)
(1.000427 0.0025246538 0)
(1.0004691 0.0024938214 0)
(1.0005109 0.0024673805 0)
(1.0005533 0.0024438318 0)
(1.0005962 0.0024219637 0)
(1.0006394 0.00240101 0)
(1.0006823 0.0023804324 0)
(1.0007244 0.0023603375 0)
(1.0007654 0.0023409732 0)
(1.0008055 0.0023225435 0)
(1.0008448 0.0023054099 0)
(1.0008839 0.0022896141 0)
(1.0009233 0.0022747857 0)
(1.0009633 0.0022604921 0)
(1.0010038 0.0022460955 0)
(1.0010445 0.0022311632 0)
(1.0010851 0.0022156241 0)
(1.001125 0.0021994409 0)