/*--------------------------------*- C++ -*----------------------------------*\
  =========                 |
  \\      /  F ield         | OpenFOAM: The Open Source CFD Toolbox
   \\    /   O peration     | Website:  https://openfoam.org
    \\  /    A nd           | Version:  12
     \\/     M anipulation  |
\*---------------------------------------------------------------------------*/
FoamFile
{
    format      ascii;
    class       volVectorField;
    location    "300";
    object      U;
}
// * * * * * * * * * * * * * * * * * * * * * * * * * * * * * * * * * * * * * //

dimensions      [0 1 -1 0 0 0 0];

internalField   nonuniform List<vector> 
13056
(
(1 1.0741767e-10 8.7076777e-25)
(0.9999919 2.9842765e-10 0)
(0.9999792 4.2818659e-10 0)
(0.9999653 5.3476183e-10 0)
(0.99994993 6.771803e-10 0)
(0.99993264 8.6163107e-10 0)
(0.99991326 1.0915325e-09 0)
(0.99989163 1.3799939e-09 0)
(0.99986747 1.7471164e-09 0)
(0.99984038 2.218299e-09 0)
(0.99980987 2.8265901e-09 0)
(0.99977532 3.61783e-09 0)
(0.99973591 4.657108e-09 0)
(0.99969054 6.0426969e-09 0)
(0.99963766 7.9157003e-09 0)
(0.99957512 1.0538067e-08 0)
(0.99949921 1.4212711e-08 0)
(0.9994058 2.0052137e-08 0)
(0.99928127 2.8071365e-08 0)
(0.99912415 4.6663753e-08 0)
(0.99884735 6.6593981e-08 0)
(0.99853637 2.0193876e-07 0)
(0.9971633 9.3338526e-08 -2.6864573e-21)
(0.99775205 0.00011967529 2.8072849e-16)
(0.028704053 0.00012535816 0)
(0.014474015 4.7106499e-07 -9.8685238e-20)
(0.012942167 1.9157754e-07 1.6392909e-17)
(0.012438838 2.0170359e-08 2.1990361e-21)
(0.012119634 1.4305424e-08 0)
(0.011852492 1.2169808e-08 0)
(0.011617126 1.0683398e-08 0)
(0.011407556 9.4537331e-09 0)
(0.011219535 8.4429133e-09 0)
(0.011048988 7.6195256e-09 0)
(0.010892723 6.9351777e-09 0)
(0.010748465 6.3516908e-09 0)
(0.010614549 5.8450227e-09 0)
(0.010489667 5.4003148e-09 0)
(0.010372748 5.0068557e-09 0)
(0.010262899 4.6565335e-09 0)
(0.010159358 4.3430151e-09 0)
(0.010061471 4.0612262e-09 0)
(0.0099686647 3.8071475e-09 0)
(0.0098804434 3.5768265e-09 0)
(0.0097963776 3.3674983e-09 0)
(0.0097160837 3.1762983e-09 0)
(0.0096392392 3.0009039e-09 0)
(0.0095655488 2.8400568e-09 0)
(0.0094947424 2.6917196e-09 0)
(0.0094265978 2.5544072e-09 0)
(0.0093609059 2.4274839e-09 0)
(0.0092974697 2.3097215e-09 0)
(0.0092361237 2.1999308e-09 0)
(0.0091767209 2.0975806e-09 0)
(0.0091191157 2.0022279e-09 0)
(0.0090631764 1.9128586e-09 0)
(0.0090087968 1.8288295e-09 0)
(0.008955874 1.7500398e-09 0)
(0.0089043027 1.6760797e-09 0)
(0.0088539926 1.6062258e-09 0)
(0.00880487 1.5400992e-09 0)
(0.0087568617 1.4776996e-09 0)
(0.0087098899 1.4188043e-09 0)
(0.0086638867 1.3628538e-09 0)
(0.0086188001 1.3095596e-09 0)
(0.0085745764 1.2589809e-09 0)
(0.0085311573 1.2109662e-09 0)
(0.0084884906 1.1652135e-09 0)
(0.0084465332 1.1214453e-09 0)
(0.0084052465 1.0796062e-09 0)
(0.0083645891 1.0396884e-09 0)
(0.0083245175 1.0015911e-09 0)
(0.0082849932 9.6502159e-10 0)
(0.0082459885 9.2984872e-10 0)
(0.0082074725 8.9613977e-10 0)
(0.0081694105 8.6383752e-10 0)
(0.0081317699 8.3281426e-10 0)
(0.008094523 8.0289478e-10 0)
(0.0080576475 7.7403453e-10 0)
(0.0080211181 7.4626922e-10 0)
(0.007984906 7.1957366e-10 0)
(0.0079489837 6.9380829e-10 0)
(0.0079133315 6.6886183e-10 0)
(0.0078779298 6.4475281e-10 0)
(0.0078427556 6.2149052e-10 0)
(0.0078077838 5.9905528e-10 0)
(0.0077729904 5.7731604e-10 0)
(0.0077383601 5.5620657e-10 0)
(0.0077038744 5.3577701e-10 0)
(0.0076695105 5.1602365e-10 0)
(0.0076352452 4.9690058e-10 0)
(0.0076010582 4.7832075e-10 0)
(0.007566934 4.6025599e-10 0)
(0.007532854 4.4274386e-10 0)
(0.0074987941 4.2579346e-10 0)
(0.0074647305 4.0932099e-10 0)
(0.0074306469 3.932716e-10 0)
(0.0073965255 3.7768148e-10 0)
(0.0073623417 3.6256473e-10 0)
(0.00732807 3.4788342e-10 0)
(0.0072936881 3.3358013e-10 0)
(0.0072591768 3.1965064e-10 0)
(0.0072245116 3.0612248e-10 0)
(0.007189663 2.929773e-10 0)
(0.0071546045 2.801619e-10 0)
(0.0071193133 2.6767049e-10 0)
(0.0070837603 2.5553252e-10 0)
(0.0070479098 2.4372486e-10 0)
(0.0070117308 2.3220593e-10 0)
(0.0069751935 2.2098289e-10 0)
(0.006938259 2.1007968e-10 0)
(0.0069008811 1.9943722e-10 0)
(0.0068630329 1.8911505e-10 0)
(0.0068254961 1.7936249e-10 0)
(0.0067894543 1.7031211e-10 0)
(0.006755236 1.6195593e-10 0)
(0.0067226971 1.5426063e-10 0)
(0.0066917008 1.4718373e-10 0)
(0.0066621215 1.4065159e-10 0)
(0.0066338527 1.3459675e-10 0)
(0.006606798 1.2898874e-10 0)
(0.0065808653 1.2379967e-10 0)
(0.0065559707 1.1897666e-10 0)
(0.0065320431 1.1447297e-10 0)
(0.0065090185 1.102697e-10 0)
(0.0064868354 1.0635441e-10 0)
(0.0064654351 1.0272082e-10 0)
(0.0064447591 9.933296e-11 0)
(0.0064247627 9.6213462e-11 0)
(0.0064053776 9.3284821e-11 0)
(0.0063865963 9.0932162e-11 0)
(0.0063681822 8.8389358e-11 0)
(0.0063504736 8.8402273e-11 0)
(0.0063320245 3.1018491e-10 0)
(0.0063160989 1.0172638e-10 1.4805562e-22)
(0.0062896582 2.4208913e-10 0)
(1 3.2515563e-10 0)
(0.99999184 9.0417708e-10 0)
(0.99997903 1.2977877e-09 0)
(0.999965 1.6208907e-09 0)
(0.99994949 2.052486e-09 0)
(0.99993204 2.6113926e-09 0)
(0.99991249 3.307923e-09 0)
(0.99989067 4.1817405e-09 0)
(0.9998663 5.2936893e-09 0)
(0.99983898 6.7206351e-09 0)
(0.99980822 8.5625683e-09 0)
(0.99977339 1.0958165e-08 0)
(0.99973367 1.4104309e-08 0)
(0.99968796 1.8298233e-08 0)
(0.99963468 2.3966628e-08 0)
(0.9995717 3.1901649e-08 0)
(0.99949527 4.3018683e-08 0)
(0.99940125 6.0682033e-08 0)
(0.99927594 8.493166e-08 0)
(0.99911791 1.4114581e-07 0)
(0.99883963 2.0137633e-07 0)
(0.99852715 6.1061926e-07 0)
(0.99714728 2.8182942e-07 9.8462022e-21)
(0.99773474 0.00036069604 -3.2055229e-21)
(0.084070838 0.00036893726 0)
(0.043638042 8.2337197e-06 0)
(0.03901924 1.0792798e-06 2.2591971e-20)
(0.037502796 4.2514507e-07 0)
(0.036539249 3.0060451e-07 -1.9405385e-21)
(0.03573353 2.5529809e-07 0)
(0.035023918 2.2393672e-07 0)
(0.034392127 1.9818664e-07 0)
(0.033825275 1.7698238e-07 0)
(0.033311103 1.5968526e-07 0)
(0.032839999 1.4532266e-07 0)
(0.032405103 1.3309077e-07 0)
(0.032001382 1.224762e-07 0)
(0.031624898 1.1315831e-07 0)
(0.031272421 1.0491259e-07 0)
(0.030941257 9.7570003e-08 0)
(0.030629109 9.0998592e-08 0)
(0.030334005 8.5093264e-08 0)
(0.030054219 7.9767258e-08 0)
(0.029788254 7.494146e-08 0)
(0.029534817 7.0554561e-08 0)
(0.029292751 6.6548913e-08 0)
(0.029061083 6.2876665e-08 0)
(0.028838923 5.9507354e-08 0)
(0.028625459 5.6402156e-08 0)
(0.028420018 5.3529085e-08 0)
(0.028221972 5.0871754e-08 0)
(0.028030726 4.8406668e-08 0)
(0.027845782 4.6108977e-08 0)
(0.027666695 4.3966209e-08 0)
(0.027493027 4.1968236e-08 0)
(0.027324383 4.0096013e-08 0)
(0.027160439 3.8335446e-08 0)
(0.027000888 3.6682934e-08 0)
(0.026845411 3.5130727e-08 0)
(0.026693736 3.3664826e-08 0)
(0.026545641 3.2276797e-08 0)
(0.026400905 3.0965706e-08 0)
(0.026259294 2.9727368e-08 0)
(0.026120603 2.855117e-08 0)
(0.025984675 2.7430776e-08 0)
(0.025851348 2.6366374e-08 0)
(0.025720447 2.5355579e-08 0)
(0.025591814 2.4392262e-08 0)
(0.025465319 2.3470922e-08 0)
(0.025340846 2.258978e-08 0)
(0.02521827 2.1748769e-08 0)
(0.02509746 2.094578e-08 0)
(0.0249783 2.0175317e-08 0)
(0.024860706 1.9434388e-08 0)
(0.024744586 1.8723822e-08 0)
(0.024629833 1.8042901e-08 0)
(0.024516351 1.7388895e-08 0)
(0.024404056 1.6758442e-08 0)
(0.024292881 1.615028e-08 0)
(0.024182748 1.5565043e-08 0)
(0.024073572 1.5002296e-08 0)
(0.02396527 1.445933e-08 0)
(0.023857781 1.3933863e-08 0)
(0.023751047 1.3425918e-08 0)
(0.023645 1.2935864e-08 0)
(0.023539562 1.2463189e-08 0)
(0.023434662 1.200544e-08 0)
(0.023330253 1.1561131e-08 0)
(0.02322628 1.1131032e-08 0)
(0.023122673 1.0715277e-08 0)
(0.023019364 1.0312864e-08 0)
(0.022916291 9.9221135e-09 0)
(0.022813406 9.5422995e-09 0)
(0.022710655 9.1741458e-09 0)
(0.022607964 8.8178533e-09 0)
(0.022505262 8.4718319e-09 0)
(0.022402499 8.1348982e-09 0)
(0.022299621 7.8076342e-09 0)
(0.022196555 7.4904228e-09 0)
(0.022093224 7.1825072e-09 0)
(0.021989561 6.882731e-09 0)
(0.021885506 6.5909106e-09 0)
(0.021780988 6.3075945e-09 0)
(0.021675916 6.0324699e-09 0)
(0.02157021 5.764463e-09 0)
(0.021463803 5.5033819e-09 0)
(0.021356606 5.2497914e-09 0)
(0.021248511 5.0033034e-09 0)
(0.021139426 4.7630533e-09 0)
(0.02102926 4.5291143e-09 0)
(0.020917896 4.3019904e-09 0)
(0.020805194 4.0805098e-09 0)
(0.020691074 3.8658602e-09 0)
(0.020577892 3.6630764e-09 0)
(0.020469218 3.4750392e-09 0)
(0.020366041 3.3016862e-09 0)
(0.020267928 3.1422366e-09 0)
(0.020174465 2.9957901e-09 0)
(0.020085275 2.860834e-09 0)
(0.020000037 2.7359178e-09 0)
(0.019918459 2.6203334e-09 0)
(0.019840263 2.5134649e-09 0)
(0.019765198 2.414265e-09 0)
(0.019693049 2.3217524e-09 0)
(0.019623622 2.2354501e-09 0)
(0.019556733 2.1550963e-09 0)
(0.019492204 2.0805428e-09 0)
(0.019429859 2.0110968e-09 0)
(0.019369563 1.947237e-09 0)
(0.019311111 1.8871433e-09 0)
(0.019254479 1.8390603e-09 0)
(0.019198957 1.7861203e-09 0)
(0.01914556 1.7874463e-09 0)
(0.019089944 1.7258362e-09 0)
(0.019041922 2.0873381e-09 -2.2904662e-22)
(0.018962192 1.337549e-09 3.3682218e-23)
(1 5.4950012e-10 0)
(0.99999177 1.5285967e-09 0)
(0.99997883 2.1947948e-09 0)
(0.99996467 2.7413733e-09 0)
(0.999949 3.4711937e-09 0)
(0.99993138 4.4161888e-09 0)
(0.99991164 5.5937286e-09 0)
(0.99988961 7.0707817e-09 0)
(0.999865 8.95012e-09 0)
(0.99983743 1.1361556e-08 0)
(0.9998064 1.4473922e-08 0)
(0.99977126 1.8521335e-08 0)
(0.9997312 2.3836151e-08 0)
(0.9996851 3.092008e-08 0)
(0.9996314 4.0493206e-08 0)
(0.99956792 5.3892442e-08 0)
(0.99949092 7.2661676e-08 0)
(0.99939622 1.0247877e-07 0)
(0.99927006 1.4340289e-07 0)
(0.99911104 2.3825816e-07 0)
(0.99883112 3.3985474e-07 0)
(0.99851702 1.0304148e-06 0)
(0.9971298 4.7736169e-07 -5.1528285e-21)
(0.99771581 0.00058950811 9.7632906e-55)
(0.13822858 0.00060978182 -8.2289229e-54)
(0.073452639 2.2971168e-05 0)
(0.065676329 3.0834703e-06 -1.1941115e-20)
(0.0631243 1.2348454e-06 0)
(0.06150093 8.7333231e-07 0)
(0.060144437 7.4127655e-07 0)
(0.058950116 6.5009845e-07 0)
(0.057886839 5.7534814e-07 0)
(0.056932813 5.13803e-07 0)
(0.056067446 4.6358397e-07 0)
(0.055274575 4.2188223e-07 0)
(0.054542651 3.8636951e-07 0)
(0.053863193 3.5555474e-07 0)
(0.053229571 3.2850466e-07 0)
(0.052636352 3.0456715e-07 0)
(0.052079002 2.8325155e-07 0)
(0.051553654 2.6417484e-07 0)
(0.051056991 2.4703202e-07 0)
(0.050586105 2.3157055e-07 0)
(0.05013848 2.1756154e-07 0)
(0.049711937 2.0482617e-07 0)
(0.049304533 1.9319765e-07 0)
(0.048914627 1.8253721e-07 0)
(0.048540724 1.7275538e-07 0)
(0.048181455 1.6374061e-07 0)
(0.047835688 1.5539998e-07 0)
(0.047502366 1.4768506e-07 0)
(0.04718049 1.4052837e-07 0)
(0.046869218 1.3385803e-07 0)
(0.046567804 1.2763733e-07 0)
(0.046275511 1.2183669e-07 0)
(0.045991672 1.1640156e-07 0)
(0.045715745 1.1129084e-07 0)
(0.045447208 1.0649351e-07 0)
(0.04518553 1.0198733e-07 0)
(0.044930251 9.7732092e-08 0)
(0.044680995 9.3703084e-08 0)
(0.044437392 8.9897188e-08 0)
(0.04419905 8.6302413e-08 0)
(0.043965622 8.2888338e-08 0)
(0.043736843 7.9636422e-08 0)
(0.04351244 7.6546816e-08 0)
(0.043292121 7.3612783e-08 0)
(0.043075619 7.0816679e-08 0)
(0.042862716 6.8142586e-08 0)
(0.042653214 6.5585122e-08 0)
(0.042446904 6.314405e-08 0)
(0.042243567 6.0813296e-08 0)
(0.042043007 5.8577121e-08 0)
(0.041845081 5.6426732e-08 0)
(0.041649634 5.436433e-08 0)
(0.041456491 5.2387947e-08 0)
(0.041265485 5.0489708e-08 0)
(0.041076476 4.8659926e-08 0)
(0.04088935 4.6894829e-08 0)
(0.040703979 4.5196192e-08 0)
(0.040520218 4.3562791e-08 0)
(0.040337928 4.1986859e-08 0)
(0.040157006 4.0461771e-08 0)
(0.039977354 3.8987478e-08 0)
(0.039798856 3.7565077e-08 0)
(0.039621383 3.6193081e-08 0)
(0.039444816 3.486447e-08 0)
(0.039269075 3.3574885e-08 0)
(0.039094066 3.2326473e-08 0)
(0.038919674 3.1119675e-08 0)
(0.038745782 2.9951592e-08 0)
(0.038572287 2.8817394e-08 0)
(0.038399107 2.7714928e-08 0)
(0.038226152 2.6646259e-08 0)
(0.038053297 2.5611986e-08 0)
(0.037880423 2.460755e-08 0)
(0.037707445 2.3629501e-08 0)
(0.037534274 2.2679472e-08 0)
(0.037360785 2.1758597e-08 0)
(0.037186849 2.0864701e-08 0)
(0.037012353 1.9994437e-08 0)
(0.036837197 1.9147245e-08 0)
(0.036661259 1.8324706e-08 0)
(0.03648439 1.7525932e-08 0)
(0.036306453 1.674782e-08 0)
(0.036127333 1.5989795e-08 0)
(0.035946882 1.5253482e-08 0)
(0.035764921 1.4537778e-08 0)
(0.03558129 1.3840174e-08 0)
(0.035395839 1.3160869e-08 0)
(0.03520837 1.2501323e-08 0)
(0.035018648 1.1858151e-08 0)
(0.034826537 1.1234815e-08 0)
(0.034636004 1.0645914e-08 0)
(0.034453057 1.0099809e-08 0)
(0.034279365 9.596332e-09 0)
(0.034114196 9.1332113e-09 0)
(0.033956856 8.70783e-09 0)
(0.033806707 8.3158045e-09 0)
(0.033663209 7.9529253e-09 0)
(0.033525874 7.6171334e-09 0)
(0.033394233 7.3066476e-09 0)
(0.033267861 7.0184304e-09 0)
(0.033146397 6.749633e-09 0)
(0.033029516 6.4988677e-09 0)
(0.032916907 6.2653789e-09 0)
(0.032808271 6.0487352e-09 0)
(0.032703312 5.8469261e-09 0)
(0.032601802 5.6613387e-09 0)
(0.032503397 5.4866836e-09 0)
(0.032408056 5.3469059e-09 0)
(0.032314587 5.1929674e-09 0)
(0.032224691 5.1967475e-09 0)
(0.03213108 4.9365015e-09 0)
(0.032050231 6.0764141e-09 0)
(0.031916 3.8171754e-09 0)
(1 7.8413304e-10 1.8660395e-24)
(0.9999917 2.1824159e-09 0)
(0.99997862 3.1347924e-09 0)
(0.9999643 3.9157137e-09 0)
(0.99994845 4.9579726e-09 0)
(0.99993064 6.3073518e-09 0)
(0.99991068 7.9885504e-09 0)
(0.99988842 1.0097044e-08 0)
(0.99986356 1.2779419e-08 0)
(0.99983571 1.6220796e-08 0)
(0.99980436 2.0661882e-08 0)
(0.99976888 2.6436421e-08 0)
(0.99972844 3.4018133e-08 0)
(0.99968192 4.4122068e-08 0)
(0.99962774 5.777429e-08 0)
(0.99956372 7.6879899e-08 0)
(0.99948609 1.0363733e-07 0)
(0.99939064 1.4613752e-07 0)
(0.99926354 2.0445152e-07 0)
(0.99910341 3.3959431e-07 0)
(0.99882171 4.8427818e-07 0)
(0.99850582 1.4681126e-06 0)
(0.99711059 6.8253781e-07 0)
(0.99769497 0.00081136164 -5.0888417e-55)
(0.19186288 0.00085312051 4.2735119e-54)
(0.10434537 4.5826738e-05 0)
(0.093304337 6.3571004e-06 0)
(0.089677329 2.5445236e-06 0)
(0.087369166 1.7997223e-06 0)
(0.085441935 1.5269274e-06 0)
(0.083745632 1.3389218e-06 0)
(0.082235533 1.1849683e-06 0)
(0.080880532 1.0582302e-06 0)
(0.079651437 9.5479386e-07 0)
(0.078525318 8.6889732e-07 0)
(0.077485764 7.9575378e-07 0)
(0.076520723 7.3229015e-07 0)
(0.075620777 6.7658041e-07 0)
(0.074778208 6.2728066e-07 0)
(0.073986581 5.8338067e-07 0)
(0.073240403 5.4409186e-07 0)
(0.072534961 5.0878615e-07 0)
(0.071866128 4.7694273e-07 0)
(0.07123033 4.4809106e-07 0)
(0.070624474 4.2186192e-07 0)
(0.070045798 3.9791254e-07 0)
(0.069491974 3.7595732e-07 0)
(0.068960877 3.5581062e-07 0)
(0.068450565 3.3724422e-07 0)
(0.06795943 3.2006664e-07 0)
(0.067485969 3.0417688e-07 0)
(0.067028766 2.8943696e-07 0)
(0.066586623 2.7569921e-07 0)
(0.066158481 2.6288727e-07 0)
(0.065743294 2.5093994e-07 0)
(0.065340114 2.397459e-07 0)
(0.064948171 2.2922033e-07 0)
(0.064566723 2.1933965e-07 0)
(0.064195018 2.1005843e-07 0)
(0.063832401 2.0129451e-07 0)
(0.063478339 1.9299671e-07 0)
(0.063132304 1.8515799e-07 0)
(0.062793741 1.777539e-07 0)
(0.062462159 1.7072239e-07 0)
(0.062137178 1.6402505e-07 0)
(0.061818412 1.5766163e-07 0)
(0.061505446 1.5161851e-07 0)
(0.061197902 1.4585961e-07 0)
(0.060895468 1.4035222e-07 0)
(0.060597863 1.3508495e-07 0)
(0.060304792 1.3005721e-07 0)
(0.060015943 1.2525662e-07 0)
(0.059731037 1.2065105e-07 0)
(0.059449872 1.1622226e-07 0)
(0.059172227 1.1197447e-07 0)
(0.058897853 1.0790379e-07 0)
(0.058626514 1.039941e-07 0)
(0.05835801 1.0022554e-07 0)
(0.058092181 9.6590188e-08 0)
(0.057828843 9.30916e-08 0)
(0.05756779 8.9727317e-08 0)
(0.057308825 8.6481488e-08 0)
(0.057051803 8.3340467e-08 0)
(0.056796583 8.0303985e-08 0)
(0.056543001 7.7374322e-08 0)
(0.056290875 7.4548438e-08 0)
(0.056040034 7.1812009e-08 0)
(0.055790364 6.9156002e-08 0)
(0.055541733 6.6584703e-08 0)
(0.055293978 6.4099082e-08 0)
(0.05504693 6.1693211e-08 0)
(0.054800445 5.9357193e-08 0)
(0.054554407 5.7086528e-08 0)
(0.054308685 5.4885415e-08 0)
(0.054063105 5.2755114e-08 0)
(0.053817496 5.0686318e-08 0)
(0.053571738 4.8671901e-08 0)
(0.053325703 4.6715144e-08 0)
(0.053079215 4.481841e-08 0)
(0.05283209 4.2977256e-08 0)
(0.052584166 4.1184806e-08 0)
(0.052335304 3.9439862e-08 0)
(0.052085329 3.774566e-08 0)
(0.051834028 3.6100412e-08 0)
(0.051581208 3.4497742e-08 0)
(0.051326705 3.2936436e-08 0)
(0.051070309 3.1419824e-08 0)
(0.050811765 2.9945664e-08 0)
(0.050550846 2.85088e-08 0)
(0.050287337 2.7109609e-08 0)
(0.050020959 2.5751101e-08 0)
(0.049751378 2.4426328e-08 0)
(0.049478399 2.3142428e-08 0)
(0.049207659 2.1929434e-08 0)
(0.048947697 2.0804568e-08 0)
(0.048700882 1.9767518e-08 0)
(0.048466177 1.8813601e-08 0)
(0.048242594 1.7937384e-08 0)
(0.04802923 1.7129889e-08 0)
(0.047825314 1.6382431e-08 0)
(0.047630153 1.5690755e-08 0)
(0.047443084 1.5051198e-08 0)
(0.047263502 1.4457514e-08 0)
(0.047090893 1.3903835e-08 0)
(0.046924796 1.3387291e-08 0)
(0.046764769 1.2906327e-08 0)
(0.046610387 1.2460055e-08 0)
(0.046461231 1.204434e-08 0)
(0.046316976 1.1662031e-08 0)
(0.046177132 1.1302224e-08 0)
(0.046041643 1.1014198e-08 0)
(0.045908818 1.0696975e-08 0)
(0.045781066 1.0704434e-08 0)
(0.045648061 1.0176722e-08 0)
(0.045533163 1.2524545e-08 0)
(0.045342399 7.8600035e-09 0)
(1 1.0328864e-09 0)
(0.99999162 2.8764331e-09 0)
(0.99997838 4.1334749e-09 0)
(0.99996389 5.1635645e-09 0)
(0.99994785 6.5376831e-09 0)
(0.99992982 8.3164594e-09 0)
(0.99990962 1.0532307e-08 0)
(0.99988709 1.3310865e-08 0)
(0.99986195 1.6845124e-08 0)
(0.99983378 2.1378769e-08 0)
(0.99980209 2.7228567e-08 0)
(0.99976623 3.4833653e-08 0)
(0.99972536 4.4817259e-08 0)
(0.99967837 5.8120023e-08 0)
(0.99962365 7.60914e-08 0)
(0.99955903 1.0123708e-07 0)
(0.99948069 1.3644626e-07 0)
(0.99938442 1.923606e-07 0)
(0.99925627 2.690545e-07 0)
(0.99909492 4.467651e-07 0)
(0.99881124 6.3692124e-07 0)
(0.99849338 1.9306004e-06 0)
(0.99708938 9.0079849e-07 0)
(0.9976719 0.0010293849 0)
(0.24549495 0.0010985826 0)
(0.13674627 7.678768e-05 0)
(0.12229635 1.1027168e-05 0)
(0.11753737 4.4149124e-06 4.3691098e-21)
(0.11451032 3.1221969e-06 0)
(0.11198503 2.6478357e-06 0)
(0.10976303 2.3214983e-06 0)
(0.10778502 2.0545687e-06 0)
(0.10601005 1.8348649e-06 0)
(0.10439996 1.6555186e-06 0)
(0.10292475 1.5065766e-06 0)
(0.10156294 1.379755e-06 0)
(0.10029871 1.2697226e-06 0)
(0.099119735 1.1731343e-06 0)
(0.098015908 1.0876585e-06 0)
(0.096978802 1.0115443e-06 0)
(0.096001223 9.4342497e-07 0)
(0.095076999 8.822116e-07 0)
(0.094200725 8.2700039e-07 0)
(0.093367721 7.7697661e-07 0)
(0.092573934 7.3149896e-07 0)
(0.091815752 6.8997419e-07 0)
(0.091090119 6.5190728e-07 0)
(0.090394258 6.1697455e-07 0)
(0.089725625 5.8478244e-07 0)
(0.08908211 5.549989e-07 0)
(0.088461746 5.27447e-07 0)
(0.087862682 5.0188886e-07 0)
(0.087283346 4.7806915e-07 0)
(0.08672235 4.5585424e-07 0)
(0.086178326 4.351377e-07 0)
(0.085650031 4.1572807e-07 0)
(0.085136455 3.9747794e-07 0)
(0.084636628 3.8034516e-07 0)
(0.084149564 3.642515e-07 0)
(0.083674406 3.4905555e-07 0)
(0.083210453 3.3466808e-07 0)
(0.082757016 3.2107595e-07 0)
(0.082313367 3.0823714e-07 0)
(0.081878862 2.9604498e-07 0)
(0.081453004 2.8443255e-07 0)
(0.081035286 2.7339857e-07 0)
(0.080625166 2.6291974e-07 0)
(0.080222149 2.5293399e-07 0)
(0.079825824 2.4338466e-07 0)
(0.079435824 2.3425153e-07 0)
(0.079051763 2.2553345e-07 0)
(0.078673231 2.1720913e-07 0)
(0.078299864 2.0922334e-07 0)
(0.077931397 2.0154419e-07 0)
(0.077567538 1.9417857e-07 0)
(0.077207963 1.8711992e-07 0)
(0.076852364 1.8034049e-07 0)
(0.076500477 1.73806e-07 0)
(0.076152091 1.6750247e-07 0)
(0.075806967 1.6143587e-07 0)
(0.075464836 1.5560206e-07 0)
(0.075125438 1.4997379e-07 0)
(0.074788584 1.4452738e-07 0)
(0.074454087 1.3926213e-07 0)
(0.074121734 1.3418198e-07 0)
(0.073791288 1.2928173e-07 0)
(0.073462522 1.2453675e-07 0)
(0.073135287 1.1993127e-07 0)
(0.072809411 1.1547254e-07 0)
(0.072484678 1.111623e-07 0)
(0.072160872 1.0699037e-07 0)
(0.071837799 1.0293966e-07 0)
(0.071515308 9.9002258e-08 0)
(0.071193228 9.5185365e-08 0)
(0.070871332 9.1491207e-08 0)
(0.070549393 8.790378e-08 0)
(0.070227256 8.4410685e-08 0)
(0.069904751 8.1017494e-08 0)
(0.06958165 7.7728336e-08 0)
(0.06925771 7.4535576e-08 0)
(0.068932719 7.1427309e-08 0)
(0.068606494 6.8401391e-08 0)
(0.068278806 6.5463408e-08 0)
(0.067949376 6.2610312e-08 0)
(0.06761795 5.983108e-08 0)
(0.067284315 5.7123556e-08 0)
(0.066948193 5.4493488e-08 0)
(0.06660925 5.1937039e-08 0)
(0.06626719 4.9445279e-08 0)
(0.065921729 4.701882e-08 0)
(0.065572502 4.4662877e-08 0)
(0.065219071 4.2365446e-08 0)
(0.064861179 4.0138918e-08 0)
(0.064506217 3.8035313e-08 0)
(0.064165381 3.6084508e-08 0)
(0.063841778 3.4285999e-08 0)
(0.063534047 3.2631653e-08 0)
(0.063240896 3.1112039e-08 0)
(0.062961138 2.9711603e-08 0)
(0.062693767 2.8415285e-08 0)
(0.062437873 2.7215688e-08 0)
(0.062192586 2.6106464e-08 0)
(0.061957114 2.5076804e-08 0)
(0.061730783 2.4116526e-08 0)
(0.061512989 2.3220638e-08 0)
(0.061303153 2.2386447e-08 0)
(0.061100719 2.161241e-08 0)
(0.060905135 2.0891371e-08 0)
(0.060715977 2.0228251e-08 0)
(0.060532603 1.9604145e-08 0)
(0.060354939 1.9104386e-08 0)
(0.060180774 1.8554074e-08 0)
(0.060013252 1.856623e-08 0)
(0.059838879 1.7658175e-08 0)
(0.05968821 2.173217e-08 -2.9484736e-22)
(0.05943805 1.3629672e-08 4.3359479e-23)
(1 1.2999936e-09 0)
(0.99999153 3.6226582e-09 0)
(0.99997812 5.2083723e-09 0)
(0.99996342 6.5068941e-09 0)
(0.99994716 8.2381042e-09 0)
(0.99992889 1.0478775e-08 0)
(0.99990843 1.326954e-08 0)
(0.99988561 1.6768357e-08 0)
(0.99986014 2.1217991e-08 0)
(0.99983162 2.692492e-08 0)
(0.99979953 3.4287418e-08 0)
(0.99976324 4.3857518e-08 0)
(0.9997219 5.641856e-08 0)
(0.99967439 7.3152709e-08 0)
(0.99961907 9.5755479e-08 0)
(0.99955377 1.2737533e-07 0)
(0.99947464 1.7163943e-07 0)
(0.99937744 2.4191928e-07 0)
(0.99924813 3.3828205e-07 0)
(0.99908542 5.6152938e-07 0)
(0.99879954 8.0027402e-07 0)
(0.99847949 2.4253419e-06 0)
(0.99706585 1.1360551e-06 0)
(0.99764631 0.0012452122 0)
(0.299472 0.0013497507 0)
(0.171072 0.00011667797 0)
(0.15304046 1.7349999e-05 0)
(0.14707479 6.9545374e-06 0)
(0.14328666 4.915957e-06 0)
(0.14012961 4.1671744e-06 0)
(0.13735263 3.6530877e-06 0)
(0.13488061 3.2330815e-06 0)
(0.13266212 2.8874525e-06 0)
(0.13064958 2.6052516e-06 0)
(0.1288056 2.3708754e-06 0)
(0.12710328 2.1713168e-06 0)
(0.1255229 1.9981839e-06 0)
(0.12404902 1.8462043e-06 0)
(0.12266905 1.7117075e-06 0)
(0.12137244 1.5919393e-06 0)
(0.12015021 1.4847507e-06 0)
(0.11899466 1.3884281e-06 0)
(0.11789903 1.3015486e-06 0)
(0.11685746 1.2228317e-06 -6.1436788e-33)
(0.11586491 1.1512667e-06 0)
(0.11491686 1.0859218e-06 0)
(0.11400949 1.0260184e-06 0)
(0.11313932 9.7104449e-07 0)
(0.11230319 9.2038397e-07 0)
(0.11149845 8.7351432e-07 0)
(0.11072265 8.3015448e-07 0)
(0.10997347 7.8993214e-07 0)
(0.10924895 7.5244666e-07 0)
(0.10854736 7.1748587e-07 0)
(0.10786698 6.8488187e-07 0)
(0.10720627 6.5433566e-07 0)
(0.10656395 6.2561486e-07 0)
(0.10593881 5.9865117e-07 0)
(0.10532964 5.7332228e-07 0)
(0.10473534 5.4940729e-07 0)
(0.10415505 5.2676506e-07 0)
(0.10358791 5.0537343e-07 0)
(0.103033 4.8516686e-07 0)
(0.10248952 4.6597895e-07 0)
(0.10195684 4.4770383e-07 0)
(0.10143434 4.303382e-07 0)
(0.10092134 4.1384587e-07 0)
(0.10041722 3.9812994e-07 0)
(0.09992146 3.831013e-07 0)
(0.099433605 3.6872747e-07 0)
(0.098953171 3.5500634e-07 0)
(0.098479649 3.4190475e-07 0)
(0.098012582 3.2933648e-07 0)
(0.097551635 3.1725098e-07 0)
(0.097096448 3.0565842e-07 0)
(0.096646614 2.9454875e-07 0)
(0.096201747 2.8387865e-07 0)
(0.09576152 2.7359434e-07 0)
(0.095325663 2.6367348e-07 0)
(0.094893883 2.5412519e-07 0)
(0.09446584 2.4494311e-07 0)
(0.094041212 2.3608473e-07 0)
(0.093619758 2.2751275e-07 0)
(0.093201249 2.1922569e-07 0)
(0.092785415 2.1122977e-07 0)
(0.092371961 2.0351691e-07 0)
(0.091960603 1.9604863e-07 0)
(0.091551155 1.8879999e-07 0)
(0.0911434 1.8178207e-07 0)
(0.09073707 1.7499777e-07 0)
(0.090331893 1.6843117e-07 0)
(0.089927627 1.6205547e-07 0)
(0.089524083 1.558581e-07 0)
(0.089121046 1.4985023e-07 0)
(0.088718233 1.4403545e-07 0)
(0.08831536 1.3838876e-07 0)
(0.087912232 1.328906e-07 0)
(0.087508637 1.2754954e-07 0)
(0.087104289 1.2237214e-07 0)
(0.086698885 1.1734649e-07 0)
(0.086292157 1.1245387e-07 0)
(0.085883879 1.0769082e-07 0)
(0.085473761 1.0306608e-07 0)
(0.085061456 9.8574942e-08 0)
(0.084646646 9.4200099e-08 0)
(0.084229061 8.9938084e-08 0)
(0.083808357 8.5797906e-08 0)
(0.083384113 8.1773601e-08 0)
(0.082955959 7.785113e-08 0)
(0.08252354 7.4031391e-08 0)
(0.082086397 7.0322592e-08 0)
(0.081643983 6.6705901e-08 0)
(0.081195974 6.3200846e-08 0)
(0.080751623 5.9889233e-08 0)
(0.080324947 5.6818095e-08 0)
(0.079919835 5.3986703e-08 0)
(0.079534585 5.1382224e-08 0)
(0.079167581 4.8989834e-08 0)
(0.078817339 4.6785041e-08 0)
(0.078482599 4.4744148e-08 0)
(0.078162222 4.2855488e-08 0)
(0.077855121 4.1109081e-08 0)
(0.077560303 3.9487935e-08 0)
(0.077276928 3.7976023e-08 0)
(0.077004239 3.6565463e-08 0)
(0.07674151 3.5252017e-08 0)
(0.076488046 3.403326e-08 0)
(0.076243157 3.2897945e-08 0)
(0.076006312 3.1853779e-08 0)
(0.075776709 3.0871034e-08 0)
(0.075554253 3.00838e-08 0)
(0.075336184 2.9217224e-08 0)
(0.075126422 2.9234902e-08 0)
(0.074908132 2.7804644e-08 0)
(0.074719467 3.4230475e-08 0)
(0.074406215 2.1453795e-08 -2.4722144e-23)
(1 1.5901433e-09 0)
(0.99999142 4.4344869e-09 0)
(0.99997782 6.3791167e-09 0)
(0.9999629 7.9703255e-09 0)
(0.9999464 1.0090362e-08 0)
(0.99992785 1.283379e-08 0)
(0.99990708 1.62501e-08 0)
(0.99988393 2.0532267e-08 0)
(0.9998581 2.5977065e-08 0)
(0.99982918 3.295907e-08 0)
(0.99979666 4.1964899e-08 0)
(0.99975989 5.3668897e-08 0)
(0.99971802 6.9027805e-08 0)
(0.9996699 8.9485305e-08 0)
(0.99961392 1.1711138e-07 0)
(0.99954786 1.5575017e-07 0)
(0.99946784 2.0982591e-07 0)
(0.99936961 2.9566456e-07 0)
(0.999239 4.1331249e-07 0)
(0.99907476 6.8581815e-07 0)
(0.99878644 9.7705541e-07 0)
(0.99846396 2.9604953e-06 0)
(0.99703968 1.3926647e-06 0)
(0.99761782 0.0014596899 0)
(0.35394409 0.0016084991 0)
(0.20770523 0.00016688976 0)
(0.18589892 2.568807e-05 0)
(0.17863831 1.0315223e-05 -1.147217e-20)
(0.17404111 7.2851883e-06 6.5374092e-21)
(0.17021431 6.1724508e-06 0)
(0.1668493 5.4102669e-06 0)
(0.16385373 4.7883552e-06 0)
(0.16116496 4.2766856e-06 0)
(0.15872556 3.8588158e-06 0)
(0.15649027 3.5117301e-06 0)
(0.15442658 3.2162136e-06 0)
(0.15251055 2.9598364e-06 0)
(0.15072353 2.7347795e-06 0)
(0.14905023 2.5356049e-06 0)
(0.14747793 2.3582367e-06 0)
(0.14599573 2.1994949e-06 0)
(0.1445943 2.0568424e-06 0)
(0.14326547 1.9281712e-06 0)
(0.14200216 1.8115872e-06 6.5951735e-33)
(0.14079823 1.705592e-06 0)
(0.13964823 1.6088081e-06 0)
(0.13854752 1.5200827e-06 0)
(0.13749191 1.4386543e-06 0)
(0.13647754 1.3636149e-06 0)
(0.13550123 1.2941908e-06 0)
(0.13455998 1.229962e-06 0)
(0.13365101 1.17038e-06 0)
(0.13277193 1.1148533e-06 0)
(0.13192063 1.0630648e-06 0)
(0.13109506 1.0147654e-06 0)
(0.13029332 9.6951551e-07 0)
(0.12951388 9.2697045e-07 0)
(0.12875527 8.870261e-07 0)
(0.12801601 8.4950256e-07 0)
(0.12729479 8.1407505e-07 0)
(0.12659055 7.8053343e-07 0)
(0.12590223 7.488427e-07 0)
(0.12522876 7.1890667e-07 0)
(0.12456914 6.9048104e-07 0)
(0.12392261 6.6340816e-07 0)
(0.12328842 6.3768126e-07 0)
(0.12266575 6.132474e-07 0)
(0.12205383 5.8996425e-07 0)
(0.12145205 5.676999e-07 0)
(0.12085985 5.4640526e-07 0)
(0.12027665 5.260767e-07 0)
(0.11970182 5.0666572e-07 0)
(0.11913482 4.8804557e-07 0)
(0.11857523 4.7014085e-07 0)
(0.11802262 4.5296563e-07 0)
(0.11747649 4.3650538e-07 0)
(0.11693639 4.2069654e-07 0)
(0.1164019 4.0545964e-07 0)
(0.11587271 3.907611e-07 0)
(0.11534845 3.7661399e-07 0)
(0.11482872 3.6300916e-07 0)
(0.11431313 3.498842e-07 0)
(0.11380137 3.371838e-07 0)
(0.11329318 3.2490522e-07 0)
(0.11278823 3.1305763e-07 0)
(0.11228615 3.0162928e-07 0)
(0.11178661 2.9056358e-07 0)
(0.11128938 2.798234e-07 0)
(0.11079418 2.6942469e-07 0)
(0.11030071 2.5937189e-07 0)
(0.10980863 2.4964168e-07 0)
(0.10931764 2.4019446e-07 0)
(0.10882751 2.3101141e-07 0)
(0.10833799 2.2210887e-07 0)
(0.10784873 2.1349225e-07 0)
(0.10735939 2.0512485e-07 0)
(0.10686972 1.9697757e-07 0)
(0.10637947 1.8906285e-07 0)
(0.10588829 1.8139046e-07 0)
(0.10539582 1.7394294e-07 0)
(0.10490173 1.666926e-07 0)
(0.10440574 1.5963414e-07 0)
(0.1039075 1.5278046e-07 0)
(0.10340659 1.4612471e-07 0)
(0.10290262 1.3964132e-07 0)
(0.10239527 1.3332504e-07 0)
(0.10188411 1.2718917e-07 0)
(0.10136864 1.2122497e-07 0)
(0.1008484 1.1541167e-07 0)
(0.10032297 1.097505e-07 0)
(0.099791773 1.0425363e-07 0)
(0.099254159 9.8893251e-08 0)
(0.098709729 9.369833e-08 0)
(0.098169725 8.879e-08 0)
(0.097651184 8.4237963e-08 0)
(0.097158836 8.0041235e-08 0)
(0.096690614 7.6180782e-08 0)
(0.096244555 7.2634592e-08 0)
(0.095818857 6.9366436e-08 0)
(0.095411991 6.6341186e-08 0)
(0.095022575 6.3541517e-08 0)
(0.094649288 6.0952658e-08 0)
(0.094290925 5.8549468e-08 0)
(0.093946464 5.6308187e-08 0)
(0.093614986 5.4217105e-08 0)
(0.09329561 5.2269944e-08 0)
(0.092987493 5.0463118e-08 0)
(0.092689795 4.877998e-08 0)
(0.092401873 4.7231896e-08 0)
(0.092122753 4.5774864e-08 0)
(0.091852316 4.4607217e-08 0)
(0.091587222 4.3322447e-08 0)
(0.09133221 4.3346224e-08 0)
(0.091066892 4.1223527e-08 -4.084617e-23)
(0.090837521 5.0765476e-08 0)
(0.090456666 3.1801834e-08 0)
(1 1.9085824e-09 0)
(0.99999131 5.3270011e-09 0)
(0.99997749 7.6679064e-09 0)
(0.99996231 9.5817272e-09 0)
(0.99994553 1.2129673e-08 0)
(0.99992668 1.5426163e-08 0)
(0.99990557 1.953032e-08 0)
(0.99988204 2.4673451e-08 0)
(0.9998558 3.121152e-08 0)
(0.99982643 3.9593716e-08 0)
(0.99979341 5.0403373e-08 0)
(0.9997561 6.4448684e-08 0)
(0.99971363 8.287607e-08 0)
(0.99966485 1.074152e-07 0)
(0.99960811 1.4054531e-07 0)
(0.9995412 1.8687092e-07 0)
(0.99946019 2.5168556e-07 0)
(0.9993608 3.5454448e-07 0)
(0.99922873 4.9545559e-07 0)
(0.99906279 8.2177154e-07 0)
(0.99877174 1.1702705e-06 0)
(0.99844655 3.5450535e-06 0)
(0.99701051 1.6755433e-06 0)
(0.99758603 0.0016731538 -1.3421418e-54)
(0.40883808 0.0018763037 1.0632234e-53)
(0.24695368 0.00022848977 -5.9511878e-19)
(0.22117192 3.6503623e-05 0)
(0.21252214 1.4692494e-05 -1.3394481e-20)
(0.20706639 1.0363152e-05 0)
(0.20253142 8.7753305e-06 0)