/*--------------------------------*- C++ -*----------------------------------*\
  =========                 |
  \\      /  F ield         | OpenFOAM: The Open Source CFD Toolbox
   \\    /   O peration     | Website:  https://openfoam.org
    \\  /    A nd           | Version:  12
     \\/     M anipulation  |
\*---------------------------------------------------------------------------*/
FoamFile
{
    format      ascii;
    class       volVectorField;
    location    "300";
    object      wallShearStress;
}
// * * * * * * * * * * * * * * * * * * * * * * * * * * * * * * * * * * * * * //

dimensions      [0 2 -2 0 0 0 0];

internalField   uniform (0 0 0);

boundaryField
{
    bottom
    {
        type            calculated;
        value           nonuniform List<vector> 
112
(
(-0.0057275181 -3.5259404e-05 0)
(-0.0028880891 -3.8598554e-07 -1.8664783e-17)
(-0.0025824291 -8.4308301e-08 -5.1943822e-19)
(-0.0024819966 -1.8710539e-08 -9.9953469e-19)
(-0.0024183037 -1.3229652e-08 0)
(-0.0023649991 -1.1240365e-08 0)
(-0.002318035 -9.8622408e-09 0)
(-0.0022762181 -8.7282683e-09 0)
(-0.002238701 -7.7945742e-09 0)
(-0.0022046707 -7.033212e-09 -7.4980487e-19)
(-0.0021734901 -6.400906e-09 0)
(-0.0021447054 -5.8622031e-09 -6.2491101e-19)
(-0.0021179843 -5.3946293e-09 5.7507315e-19)
(-0.0020930658 -4.9842121e-09 -5.3132242e-19)
(-0.0020697362 -4.6210345e-09 0)
(-0.0020478173 -4.2976362e-09 4.5812677e-19)
(-0.0020271571 -4.0082064e-09 0)
(-0.0020076251 -3.7481135e-09 -1.9977075e-19)
(-0.0019891069 -3.513541e-09 0)
(-0.0019715035 -3.3009824e-09 -3.5187348e-19)
(-0.0019547293 -3.1077611e-09 3.3127478e-19)
(-0.0019387078 -2.9313138e-09 0)
(-0.0019233745 -2.7695292e-09 0)
(-0.0019086706 -2.6211015e-09 0)
(-0.0018945422 -2.4842877e-09 -2.6482992e-19)
(-0.0018809448 -2.3576863e-09 0)
(-0.0018678369 -2.2406067e-09 0)
(-0.0018551791 -2.1319934e-09 0)
(-0.0018429383 -2.0307504e-09 0)
(-0.0018310853 -1.9363452e-09 -2.0644907e-19)
(-0.001819591 -1.8483372e-09 1.9706785e-19)
(-0.0018084291 -1.765868e-09 0)
(-0.0017975784 -1.6883215e-09 0)
(-0.0017870184 -1.6155548e-09 0)
(-0.001776728 -1.5472174e-09 1.649604e-19)
(-0.0017666893 -1.4826803e-09 0)
(-0.0017568876 -1.4215789e-09 0)
(-0.0017473082 -1.3638792e-09 -1.4539757e-19)
(-0.0017379356 -1.3093915e-09 0)
(-0.0017287563 -1.2576375e-09 0)
(-0.0017197599 -1.2083398e-09 0)
(-0.0017109357 -1.1615188e-09 1.2378905e-19)
(-0.001702272 -1.1170627e-09 -5.9519636e-20)
(-0.0016937584 -1.0746955e-09 1.1451248e-19)
(-0.0016853864 -1.034173e-09 0)
(-0.0016771482 -9.9542269e-10 0)
(-0.0016690356 -9.584425e-10 -1.5313471e-19)
(-0.0016610399 -9.2313768e-10 0)
(-0.0016531533 -8.892605e-10 9.4694829e-20)
(-0.0016453705 -8.5668093e-10 0)
(-0.0016376852 -8.2544075e-10 0)
(-0.0016300904 -7.9550411e-10 -4.2336339e-20)
(-0.0016225798 -7.6675146e-10 -4.0799376e-20)
(-0.0016151476 -7.3903239e-10 0)
(-0.0016077897 -7.1229281e-10 -7.5777494e-20)
(-0.0016005007 -6.8656231e-10 0)
(-0.0015932751 -6.6182189e-10 0)
(-0.0015861073 -6.3794923e-10 0)
(-0.0015789934 -6.1484252e-10 0)
(-0.0015719295 -5.9250767e-10 0)
(-0.0015649109 -5.7095906e-10 0)
(-0.0015579328 -5.5017452e-10 0)
(-0.0015509903 -5.3004366e-10 0)
(-0.0015440803 -5.1050141e-10 0)
(-0.0015371991 -4.9158471e-10 -5.218903e-20)
(-0.0015303423 -4.7329787e-10 0)
(-0.0015235051 -4.5559706e-10 -2.4172306e-20)
(-0.0015166836 -4.3840579e-10 0)
(-0.0015098746 -4.2169433e-10 -2.2362186e-20)
(-0.0015030744 -4.0549588e-10 4.2994796e-20)
(-0.0014962782 -3.8981771e-10 4.1320986e-20)
(-0.0014894813 -3.7458896e-10 -1.9847803e-20)
(-0.0014826804 -3.597574e-10 0)
(-0.0014758719 -3.4535091e-10 0)
(-0.001469051 -3.3138567e-10 3.5086185e-20)
(-0.0014622126 -3.17827e-10 -3.3640178e-20)
(-0.0014553522 -3.0462431e-10 0)
(-0.0014484659 -2.9177035e-10 0)
(-0.0014415489 -2.7928947e-10 -2.953224e-20)
(-0.0014345954 -2.6716684e-10 0)
(-0.0014276 -2.553553e-10 0)
(-0.0014205581 -2.4384685e-10 0)
(-0.001413464 -2.3266683e-10 0)
(-0.0014063105 -2.2179777e-10 0)
(-0.0013990915 -2.1120058e-10 0)
(-0.001391801 -2.0087959e-10 0)
(-0.0013844312 -1.9085734e-10 0)
(-0.001376973 -1.8108121e-10 1.9081843e-20)
(-0.0013694209 -1.7160459e-10 -1.8075275e-20)
(-0.001361931 -1.6265136e-10 0)
(-0.0013547393 -1.5434694e-10 0)
(-0.0013479115 -1.4668769e-10 0)
(-0.0013414189 -1.3964019e-10 0)
(-0.001335234 -1.3316443e-10 0)
(-0.0013293318 -1.2719379e-10 0)
(-0.0013236912 -1.2166502e-10 0)
(-0.0013182928 -1.1654765e-10 0)
(-0.0013131183 -1.1181488e-10 -1.1738058e-20)
(-0.0013081509 -1.0742004e-10 0)
(-0.0013033765 -1.0331981e-10 0)
(-0.0012987823 -9.9494274e-11 0)
(-0.0012943559 -9.5931888e-11 0)
(-0.0012900858 -9.262633e-11 0)
(-0.0012859602 -8.9546302e-11 0)
(-0.0012819702 -8.6713035e-11 0)
(-0.0012781022 -8.4048177e-11 0)
(-0.0012743546 -8.1915375e-11 0)
(-0.0012706804 -7.9574158e-11 0)
(-0.0012671469 -7.9631909e-11 0)
(-0.0012634656 -1.3586966e-10 0)
(-0.0012602879 -9.2811807e-11 -9.7954919e-21)
(-0.001255012 -1.0544026e-10 0)
)
;
    }
    back
    {
        type            empty;
    }
    front
    {
        type            empty;
    }
    inlet
    {
        type            calculated;
        value           uniform (0 0 0);
    }
    outlet
    {
        type            calculated;
        value           uniform (0 0 0);
    }
    top
    {
        type            calculated;
        value           uniform (0 0 0);
    }
    slipsurface
    {
        type            calculated;
        value           uniform (0 0 0);
    }
}


// ************************************************************************* //
