/*--------------------------------*- C++ -*----------------------------------*\
  =========                 |
  \\      /  F ield         | OpenFOAM: The Open Source CFD Toolbox
   \\    /   O peration     | Website:  https://openfoam.org
    \\  /    A nd           | Version:  12
     \\/     M anipulation  |
\*---------------------------------------------------------------------------*/
FoamFile
{
    format      ascii;
    class       volScalarField;
    location    "300";
    object      yPlus;
}
// * * * * * * * * * * * * * * * * * * * * * * * * * * * * * * * * * * * * * //

dimensions      [];

internalField   uniform 0;

boundaryField
{
    inlet
    {
        type            calculated;
        value           uniform 0;
    }
    top
    {
        type            calculated;
        value           uniform 0;
    }
    outlet
    {
        type            calculated;
        value           uniform 0;
    }
    slipsurface
    {
        type            calculated;
        value           uniform 0;
    }
    bottom
    {
        type            calculated;
        value           nonuniform List<scalar> 
100
(
116.32488
115.15015
113.84585
112.43948
110.95443
109.41121
107.81745
106.17546
104.4894
102.77206
101.04329
99.33211
97.6783
96.130127
94.733035
93.511921
92.473549
91.597746
90.855402
90.218015
89.668322
89.177948
88.726652
88.30127
87.891622
87.493882
87.106603
86.72945
86.362954
86.008104
85.665319
85.33367
85.011314
84.691553
84.369923
84.04589
83.721383
83.400199
83.086227
82.782205
82.48932
82.207632
81.936567
81.67493
81.421529
81.171131
80.915364
80.640082
80.322488
79.941371
79.518917
79.106476
78.733411
78.405751
78.113352
77.844615
77.590398
77.342831
77.103214
76.870045
76.642365
76.418964
76.198735
75.980922
75.764921
75.550253
75.336718
75.124213
74.912563
74.70155
74.490974
74.280646
74.070405
73.860102
73.649582
73.438698
73.227305
73.01525
72.802404
72.588633
72.373823
72.157942
71.9411
71.724955
71.526023
71.469094
72.634281
73.226985
73.583306
73.717333
73.736289
73.691146
73.609999
73.506812
73.390125
73.263146
73.133219
72.988219
72.863985
72.616404
)
;
    }
    frontandback
    {
        type            empty;
    }
}


// ************************************************************************* //
