/*--------------------------------*- C++ -*----------------------------------*\
  =========                 |
  \\      /  F ield         | OpenFOAM: The Open Source CFD Toolbox
   \\    /   O peration     | Website:  https://openfoam.org
    \\  /    A nd           | Version:  12
     \\/     M anipulation  |
\*---------------------------------------------------------------------------*/
FoamFile
{
    format      ascii;
    class       volScalarField;
    location    "1000";
    object      k;
}
// * * * * * * * * * * * * * * * * * * * * * * * * * * * * * * * * * * * * * //

dimensions      [0 2 -2 0 0 0 0];

internalField   nonuniform List<scalar> 
66675
(
0.060624423
0.079065978
0.085881908
0.088827574
0.090408489
0.091394379
0.092070184
0.0925641
0.092941378
0.093242533
0.093494164
0.093735036
0.093992036
0.094366346
0.094358459
0.094201836
0.094012449
0.093899733
0.093846914
0.093854265
0.093887741
0.09395739
0.09404883
0.094137217
0.094221492
0.0942998
0.094374926
0.094440984
0.094509284
0.094561695
0.09462738
0.094667227
0.094812658
0.095722849
0.082640254
0.060616212
0.079056397
0.085874118
0.088821058
0.090402759
0.091389161
0.092065321
0.092559496
0.092936971
0.093238279
0.093490029
0.093730982
0.093988021
0.094362534
0.094354512
0.094197658
0.094008373
0.093895745
0.093842996
0.093850353
0.09388383
0.093953463
0.094044907
0.094133288
0.094217544
0.094295854
0.094370921
0.094437072
0.094505123
0.094557969
0.094623143
0.094662772
0.094792324
0.096311584
0.088459304
0.06058705
0.079024697
0.085849038
0.088800311
0.090384604
0.091372669
0.092049974
0.09254498
0.092923084
0.093224878
0.093477004
0.093718201
0.093975344
0.094350404
0.094341881
0.094184907
0.093996108
0.093883814
0.093831314
0.093838707
0.093872212
0.093941836
0.094033294
0.094121667
0.094205884
0.094284197
0.094359141
0.094425482
0.094493033
0.094546762
0.094610806
0.094650571
0.094751535
0.095967306
0.093161654
0.060536195
0.078969773
0.085805705
0.088764509
0.090353291
0.091344232
0.092023516
0.092519958
0.092899148
0.093201779
0.093454552
0.09369617
0.093953489
0.094329474
0.094319975
0.094162962
0.093975067
0.093863373
0.09381131
0.093818774
0.093852333
0.093921949
0.094013432
0.094101793
0.094185947
0.094264264
0.094339018
0.094405633
0.094472463
0.094527472
0.094589515
0.094631318
0.094705256
0.095353478
0.095332739
0.060462932
0.078890478
0.085743104
0.088712776
0.090308043
0.091303138
0.09198528
0.092483797
0.092864556
0.093168399
0.093422106
0.093664331
0.093921906
0.094299233
0.094287963
0.094131068
0.093944576
0.093833789
0.093782377
0.093789951
0.093823595
0.093893203
0.093984722
0.094073066
0.094157131
0.094235447
0.094309948
0.094376896
0.094442871
0.094499377
0.094558555
0.094607363
0.094658657
0.094891881
0.096077174
0.06036658
0.078785621
0.085660164
0.088644185
0.090248032
0.09124863
0.09193456
0.092435827
0.092818665
0.093124113
0.09337906
0.093622094
0.093880011
0.094259143
0.094244936
0.094088419
0.093903919
0.093794389
0.093743865
0.0937516
0.093785361
0.093854959
0.093946525
0.094034843
0.094118792
0.0941971
0.094271295
0.094338587
0.094403714
0.09446155
0.094518385
0.094572198
0.094614639
0.094718018
0.095303757
0.0602465
0.078653966
0.085555754
0.088557751
0.09017238
0.091179901
0.091870601
0.092375332
0.09276079
0.093068262
0.093324772
0.093568827
0.093827185
0.094208635
0.094189965
0.094034194
0.093852355
0.093744467
0.093695091
0.093703038
0.093736953
0.093806533
0.093898155
0.09398644
0.094070244
0.094148525
0.094222381
0.094289968
0.09435439
0.094413078
0.094468964
0.094523383
0.094569488
0.094626831
0.094815453
0.060102111
0.078494235
0.085428683
0.088452433
0.090080155
0.091096098
0.091792604
0.092301554
0.092690203
0.093000141
0.093258557
0.093503864
0.093762769
0.094146243
0.094122071
0.093967545
0.093789101
0.093683276
0.093635324
0.093643545
0.093677648
0.093747197
0.093838882
0.09392712
0.09401075
0.094088978
0.09416248
0.09423026
0.094294195
0.094353228
0.094409181
0.094462279
0.094513974
0.0945586
0.094628904
0.059932893
0.078305111
0.085277699
0.088327127
0.089970367
0.090996311
0.091699718
0.092213684
0.092606131
0.092919003
0.093179689
0.093426493
0.093686068
0.094069822
0.094040256
0.093887608
0.093713345
0.093610031
0.093563794
0.093572351
0.093606677
0.093676175
0.093767927
0.093856102
0.093939528
0.094017662
0.094090818
0.094158653
0.094222307
0.094281378
0.094337566
0.094390193
0.094442195
0.094490734
0.094532208
0.059738409
0.078085239
0.085101483
0.088180664
0.089841966
0.090879574
0.091591038
0.092110866
0.092507749
0.092824052
0.093087394
0.093335958
0.093596346
0.093978068
0.093943551
0.093793512
0.093624247
0.093523909
0.093479689
0.093488648
0.093523227
0.093592644
0.093684463
0.093772551
0.093855742
0.093933731
0.094006563
0.09407431
0.094137812
0.094196815
0.094253061
0.094305879
0.09435703
0.094406867
0.094451167
0.059518315
0.077833228
0.084898652
0.088011807
0.089693839
0.090744863
0.091465606
0.091992187
0.092394184
0.092714442
0.092980849
0.093231455
0.093492818
0.093869894
0.093831024
0.093684391
0.093520944
0.093424054
0.093382152
0.093391578
0.093426433
0.09349573
0.093587609
0.09367558
0.093758508
0.093836287
0.093908819
0.09397636
0.094039748
0.09409867
0.094154829
0.094207828
0.094258561
0.094307831
0.094353908
0.059272377
0.07754766
0.084667755
0.08781925
0.089524804
0.090591089
0.091322399
0.091856676
0.092264504
0.092589274
0.092859181
0.093112131
0.093374653
0.093744228
0.093701782
0.093559387
0.093402555
0.093309575
0.093270285
0.093280235
0.093315386
0.09338451
0.093476434
0.09356425
0.093646883
0.09372438
0.093796627
0.09386388
0.09392712
0.09398596
0.094041957
0.094094943
0.094145437
0.094193981
0.094239803
0.05900049
0.077227093
0.084407273
0.087601613
0.089333609
0.090417097
0.091160333
0.091703304
0.092117721
0.092447591
0.092721459
0.092977077
0.093240969
0.093600083
0.093554974
0.093417649
0.093268176
0.093179547
0.093143145
0.093153668
0.093189123
0.093258007
0.09334995
0.093437563
0.093519868
0.093597008
0.093668964
0.093735884
0.0937989
0.093857629
0.093913409
0.093966213
0.094016396
0.094064231
0.094109296
0.058702702
0.076870069
0.084115621
0.087357438
0.089118928
0.09022166
0.090978258
0.091530977
0.091952784
0.092288378
0.092566696
0.092825329
0.093090829
0.093436576
0.093389788
0.093258338
0.093116889
0.093033014
0.092999747
0.093010881
0.093046633
0.093115195
0.093207116
0.093294466
0.093376407
0.093453117
0.093524745
0.09359131
0.093654018
0.093712575
0.093768065
0.093820558
0.093870282
0.093917372
0.093961533
0.058379231
0.076475123
0.083791146
0.087085192
0.088879357
0.090003478
0.090774952
0.09133853
0.091768576
0.092110554
0.09239384
0.09265586
0.092923234
0.093252902
0.093205444
0.093080616
0.092947758
0.092868984
0.092839063
0.092850827
0.092886857
0.092954995
0.093046833
0.093133848
0.09321538
0.093291596
0.093362833
0.093429024
0.093491343
0.093549641
0.093604753
0.093656812
0.093705935
0.093752204
0.093795376
0.058030492
0.076040798
0.083432132
0.08678326
0.088613414
0.089761173
0.090549116
0.09112473
0.091563911
0.091912972
0.092201776
0.092467583
0.092737125
0.093048317
0.093001178
0.092883648
0.092759826
0.092686436
0.092660021
0.092672418
0.092708685
0.092776278
0.092867945
0.09295454
0.093035608
0.093111272
0.09318204
0.09324782
0.093309678
0.093367616
0.093422249
0.093473747
0.093522144
0.093567507
0.093609617
0.057657127
0.075565655
0.083036799
0.086449944
0.088319529
0.089493287
0.090299377
0.090888267
0.09133753
0.091694412
0.091989318
0.092259338
0.092531378
0.092822107
0.092776229
0.092666584
0.092552115
0.092484315
0.092461505
0.092474517
0.09251096
0.092577865
0.092669235
0.092755311
0.09283585
0.09291091
0.092981123
0.093046434
0.09310776
0.093165226
0.093219273
0.093270084
0.093317641
0.093362014
0.093403002
0.057260027
0.07504829
0.082603315
0.086083467
0.08799605
0.089198276
0.090024277
0.09062775
0.091088096
0.091453581
0.091755206
0.092029897
0.092304794
0.092573564
0.092529813
0.092428555
0.092323624
0.092261531
0.092242359
0.092255945
0.092292482
0.092358533
0.092449419
0.092534871
0.092614803
0.092689211
0.092758784
0.092823549
0.092884265
0.092941141
0.092994492
0.093044494
0.093091105
0.09313441
0.093174222
0.056840369
0.074487358
0.082129796
0.085681969
0.087641234
0.088874506
0.089722273
0.090341707
0.09081419
0.091189104
0.091498103
0.091777954
0.092056104
0.092301956
0.092261116
0.092168658
0.092073316
0.092016959
0.092001384
0.092015478
0.092052006
0.092117009
0.092207143
0.092291866
0.092371109
0.092444812
0.092513666
0.092577792
0.092637811
0.092693977
0.092746519
0.092795596
0.092841166
0.092883331
0.092921915
0.056399642
0.073881592
0.081614321
0.085243512
0.087253249
0.088520256
0.089391731
0.090028576
0.09051431
0.090899525
0.09121659
0.091502126
0.091783956
0.092006498
0.091969269
0.091885945
0.091800122
0.091749435
0.091737336
0.091751853
0.091788247
0.091851977
0.091940965
0.092024878
0.092103354
0.092176294
0.092244352
0.092307739
0.092366967
0.092422302
0.092473923
0.092521966
0.092566405
0.092607363
0.092644668
0.055939683
0.073229832
0.081054944
0.08476608
0.086830174
0.08813371
0.089030928
0.089686706
0.090186864
0.090583299
0.090909163
0.091200945
0.091486918
0.091686333
0.091653342
0.091579407
0.091502924
0.091457753
0.09144893
0.091463763
0.091499886
0.09156207
0.091649338
0.091732432
0.091810078
0.091882187
0.091949371
0.092011916
0.092070249
0.092124637
0.092175223
0.092222133
0.09226536
0.092305043
0.092341019
0.055462708
0.072531061
0.080449707
0.084247589
0.086369997
0.087712956
0.088638043
0.089314352
0.089830165
0.090238791
0.090574228
0.090872853
0.091163469
0.091340507
0.091312326
0.091247965
0.091180556
0.091140662
0.09113484
0.091149864
0.091185544
0.091245924
0.091330571
0.091413011
0.09148978
0.091560979
0.091627205
0.091688799
0.091746132
0.091799455
0.0918489
0.091894583
0.091936522
0.091974865
0.092009457
0.054971341
0.071784434
0.079796665
0.083685893
0.085870619
0.087255989
0.088211157
0.088909671
0.089442435
0.089864271
0.090210099
0.090516204
0.090811997
0.090967958
0.090945132
0.090890454
0.090831787
0.090796858
0.09079369
0.090808771
0.090843795
0.090902132
0.090983277
0.091065112
0.091140927
0.091211121
0.091276293
0.091336822
0.091393043
0.09144519
0.091493392
0.09153776
0.091578338
0.091615275
0.091648426
0.054468644
0.070989327
0.079093915
0.083078794
0.085329859
0.086760709
0.087748257
0.088470721
0.089021792
0.089457912
0.089814991
0.090129255
0.090430795
0.090567501
0.090550572
0.090505606
0.090455315
0.09042498
0.090424058
0.090439065
0.090473182
0.09052923
0.090606181
0.090687232
0.090761958
0.090831023
0.090895031
0.090954378
0.091009374
0.091060235
0.091107095
0.091150065
0.09118921
0.091224672
0.091256321
0.053958141
0.070145381
0.078339623
0.082424064
0.084745462
0.086224925
0.087247228
0.087995462
0.088566258
0.089017785
0.089387021
0.089710164
0.09001806
0.090137813
0.090127358
0.090092036
0.090049759
0.090023601
0.090024471
0.090039292
0.090072208
0.090125702
0.090197968
0.090277827
0.090351259
0.09041905
0.090481771
0.090539815
0.090593469
0.09064294
0.090688364
0.090729855
0.090767495
0.090801408
0.09083149
0.053443835
0.069252555
0.077532073
0.081719461
0.084115106
0.085646357
0.08670586
0.087481751
0.08807375
0.088541861
0.088924204
0.089256991
0.089571884
0.089677425
0.0896741
0.089648217
0.089613643
0.089591364
0.089593351
0.089607908
0.089639331
0.089689986
0.089757279
0.089835233
0.089907135
0.089973503
0.090034811
0.090091432
0.090143632
0.090191611
0.090235508
0.090275441
0.090311498
0.090343783
0.090372235
0.052930213
0.068311184
0.07666971
0.080962759
0.08343642
0.08502265
0.086121853
0.086927348
0.087542085
0.088028006
0.088424452
0.088767689
0.089090259
0.089184712
0.089189308
0.089172448
0.089145395
0.089126667
0.089129247
0.089143303
0.089172946
0.089220477
0.089282702
0.089357534
0.089427788
0.089492619
0.089552399
0.089607478
0.089658117
0.089704505
0.089746788
0.08978508
0.089819473
0.089850042
0.089876857
0.052422246
0.067322037
0.075751213
0.08015178
0.082707003
0.084351379
0.08549282
0.086329919
0.086968982
0.087473987
0.087885573
0.088240111
0.088571072
0.088657913
0.088671315
0.088662961
0.088643336
0.088627818
0.088630592
0.088643835
0.088671399
0.088715535
0.088772743
0.088842431
0.088911356
0.088974587
0.089032727
0.089086153
0.089135123
0.089179825
0.089220403
0.089256969
0.08928961
0.089318399
0.089343933
0.051925368
0.066286382
0.07477556
0.079284445
0.08192445
0.083630069
0.0848163
0.085687044
0.086352064
0.08687747
0.087305274
0.087672006
0.088012104
0.088095141
0.088118148
0.088118152
0.088105517
0.088093028
0.088095698
0.088107808
0.088132999
0.088173495
0.08822574
0.08828927
0.08835615
0.088417575
0.088473938
0.088525592
0.088572786
0.088615705
0.088654486
0.088689236
0.088720047
0.08874719
0.088772271
0.051445436
0.065206051
0.073742128
0.078358826
0.081086389
0.082856219
0.084089774
0.084996223
0.085688868
0.086236029
0.086681166
0.087061024
0.087411038
0.087494344
0.087527653
0.087536245
0.087529668
0.087520404
0.087522752
0.087533441
0.087556002
0.087592654
0.087639944
0.087697048
0.087760096
0.087819624
0.087874081
0.087923849
0.087969162
0.088010196
0.088047083
0.088079931
0.08810897
0.088135487
0.088160125
0.05098867
0.06408349
0.0726508
0.077373213
0.080190523
0.082027328
0.083310683
0.084254899
0.084976854
0.085547154
0.086010769
0.086404719
0.086765454
0.086853298
0.086897604
0.08691502
0.086913785
0.086907959
0.086909794
0.086918852
0.086938603
0.086971259
0.087013568
0.087064391
0.087121379
0.087178699
0.0872311
0.08727887
0.087322193
0.087361238
0.087396133
0.087427081
0.087455079
0.087481123
0.087505403
0.050559684
0.062923549
0.071502094
0.076326206
0.079234689
0.081140938
0.08247646
0.083460472
0.084213427
0.084808263
0.085291524
0.085700562
0.086072848
0.086169603
0.086225625
0.086251998
0.086256047
0.086253307
0.08625469
0.086262046
0.086278923
0.086307484
0.086344798
0.086389559
0.086439882
0.086492471
0.086542766
0.086588471
0.086629682
0.086666621
0.086699475
0.086728985
0.086756383
0.086782008
0.086805984
0.050160854
0.061734089
0.070297316
0.075216814
0.078216929
0.080194682
0.081584566
0.082610333
0.083395954
0.084016724
0.084520809
0.084945952
0.085330631
0.085440674
0.085509171
0.085544565
0.085554134
0.085554088
0.08555517
0.085560909
0.085574976
0.085599402
0.085631769
0.085670686
0.085714437
0.085760734
0.085806761
0.085850342
0.085889216
0.085923952
0.085954995
0.085983736
0.08601056
0.086035797
0.086059494
0.049793965
0.060524497
0.069038718
0.074044581
0.077135579
0.079186351
0.080632538
0.081701901
0.082521798
0.083169877
0.083695959
0.084138234
0.084536157
0.084663748
0.08474553
0.08479004
0.084805345
0.084807967
0.084808849
0.084813219
0.084824636
0.084844957
0.084872527
0.084905844
0.084943319
0.084983117
0.085023237
0.085062
0.08509793
0.08513067
0.085160773
0.085188682
0.085214885
0.085239702
0.085263098
0.04946017
0.059305675
0.067729675
0.072809736
0.07598938
0.078113975
0.079618054
0.080732671
0.081588361
0.082265075
0.082814302
0.08327473
0.083686736
0.083835887
0.083931824
0.083985594
0.084006786
0.084012331
0.084013502
0.08401668
0.084025604
0.084042017
0.084065019
0.084093023
0.08412459
0.084158148
0.084192117
0.084225161
0.084256321
0.084285823
0.084313843
0.084340434
0.084365801
0.084390094
0.084413122
0.049159961
0.058089969
0.06637486
0.071513365
0.074777613
0.076975927
0.078539012
0.079700283
0.080593133
0.081299722
0.08187319
0.082352768
0.082779675
0.082954009
0.083065022
0.083128271
0.083155574
0.083164389
0.083166747
0.083168811
0.083175421
0.083188304
0.083207059
0.083230104
0.083256178
0.083283916
0.083312016
0.083339472
0.083366091
0.083392051
0.083417202
0.083441575
0.083465285
0.083488358
0.083510446
0.048893174
0.056890996
0.064980422
0.070157615
0.073500257
0.075771046
0.077393631
0.078602601
0.079533768
0.08027134
0.080870063
0.081369735
0.081812312
0.082014941
0.082141958
0.082215001
0.082248726
0.082261247
0.082265174
0.082266891
0.082271532
0.082281417
0.082296326
0.082314834
0.08233588
0.082358302
0.082381062
0.082403734
0.082426502
0.082449092
0.082471411
0.082493504
0.082515447
0.082537163
0.082558165
0.048659026
0.055723369
0.063554141
0.068745918
0.072158189
0.074498796
0.076180577
0.07743782
0.078408168
0.079177642
0.079802506
0.080323137
0.080782078
0.081015506
0.081159376
0.081242635
0.081283192
0.081299941
0.081305933
0.081308438
0.081311331
0.081318841
0.081330375
0.081344832
0.081361376
0.081379076
0.081397307
0.081416316
0.081435743
0.081455401
0.081475256
0.08149537
0.08151578
0.081536318
0.081556363
0.048456165
0.054602307
0.062105538
0.067283241
0.070753404
0.073159453
0.074899119
0.076204595
0.077214597
0.078016635
0.078668346
0.079210673
0.079686567
0.079952656
0.08011399
0.080207987
0.080255906
0.080277488
0.080286163
0.080289852
0.080292211
0.080298006
0.080306655
0.08031762
0.080330278
0.080344029
0.080359001
0.080374953
0.080391619
0.080408887
0.080426772
0.080445347
0.080464609
0.080484287
0.080503638
0.048282756
0.053543119
0.060645916
0.065776352
0.069289279
0.071754326
0.073549316
0.074902201
0.075951822
0.076786737
0.077465758
0.078030345
0.07852363
0.078823659
0.079002615
0.079107914
0.079163845
0.079190962
0.079203033
0.079208471
0.07921164
0.079216133
0.079222538
0.079230687
0.079240239
0.079251252
0.079263683
0.079277246
0.079291777
0.079307241
0.079323702
0.079341234
0.079359782
0.079378974
0.079397945
0.04813657
0.052560578
0.059188279
0.064234087
0.067770858
0.070286021
0.072132245
0.073530736
0.074619282
0.075486937
0.076193405
0.076780579
0.077291494
0.077626564
0.077822408
0.077939469
0.07800415
0.078037586
0.078053854
0.078061759
0.078066209
0.078070397
0.078075456
0.078081644
0.078089211
0.078098407
0.078109013
0.078120866
0.078133903
0.078148166
0.07816376
0.078180758
0.078199041
0.078218132
0.078237052
0.048015093
0.051668221
0.057747104
0.062667595
0.066205163
0.068758737
0.07065027
0.072091348
0.073217304
0.074116981
0.074850611
0.075460385
0.075988913
0.076360485
0.07657112
0.076700151
0.076774308
0.076814893
0.076836222
0.076847416
0.076853809
0.076858578
0.076863211
0.076868496
0.076875212
0.076883357
0.076892863
0.076903691
0.076915879
0.076929544
0.07694483
0.076961796
0.076980253
0.076999617
0.077018803
0.047915622
0.05087763
0.05633789
0.061090549
0.064601509
0.067178594
0.069107344
0.070586524
0.071747354
0.072677606
0.073437576
0.074069556
0.07461536
0.075022824
0.075247045
0.075388144
0.075472405
0.075520948
0.075548222
0.075563588
0.075572717
0.075578949
0.075584157
0.075589809
0.075596488
0.075604357
0.075613492
0.07562398
0.07563596
0.075649623
0.075665146
0.075682563
0.075701611
0.075721598
0.075741347
0.047835363
0.050192613
0.054981848
0.059519265
0.062971788
0.065553981
0.067509361
0.069020408
0.070212334
0.071170815
0.071955628
0.072608906
0.073171284
0.073610829
0.073849118
0.074002504
0.074097401
0.074154638
0.074188711
0.074209143
0.07422187
0.074230499
0.0742375
0.074244427
0.074251906
0.07426028
0.074269773
0.074280598
0.074292999
0.074307241
0.074323522
0.074341845
0.074361867
0.074382796
0.074403373
0.047771511
0.049609621
0.053704353
0.057972587
0.061330681
0.063895891
0.065864517
0.067399165
0.068616931
0.069600199
0.070407531
0.071080559
0.071658352
0.07212568
0.072377655
0.07254351
0.072649473
0.072716029
0.072757679
0.072784031
0.072801238
0.072813299
0.07282315
0.072832211
0.072841305
0.072850946
0.072861507
0.072873328
0.07288676
0.072902132
0.07291966
0.072939306
0.072960645
0.072982794
0.07300443
0.047721322
0.049122632
0.052528767
0.056471394
0.059695736
0.062218211
0.064183679
0.065731363
0.06696799
0.067971306
0.068797835
0.069488283
0.070079757
0.070570698
0.070835093
0.071013268
0.07113051
0.071206843
0.07125671
0.071289743
0.071312299
0.071328908
0.071342424
0.071354423
0.071365903
0.071377535
0.071389839
0.071403283
0.071418318
0.071435335
0.071454557
0.071475896
0.071498848
0.071522452
0.071545336
0.047682143
0.048723687
0.051474808
0.055037725
0.058087215
0.060537903
0.062480712
0.064028362
0.065274923
0.06629204
0.067133267
0.067837873
0.068440592
0.068950897
0.069226422
0.069416348
0.069544729
0.069631033
0.069689559
0.069729891
0.069758644
0.069780621
0.069798569
0.069814247
0.069828818
0.069843106
0.069857774
0.069873415
0.069890577
0.069909701
0.069931006
0.069954353
0.069979165
0.070004409
0.07002869
0.047651402
0.048403573
0.050557049
0.053693488
0.056527649
0.058874985
0.060772694
0.062304644
0.063550096
0.064573078
0.065423159
0.066137571
0.066748268
0.067273357
0.067559475
0.067760277
0.06789928
0.067995439
0.068062802
0.068110854
0.068146524
0.068174434
0.068197426
0.068217396
0.068235653
0.068253166
0.068270733
0.068289067
0.068308803
0.068330424
0.068354132
0.068379737
0.068406589
0.068433606
0.068459384
0.047626521
0.048152625
0.049783786
0.052458775
0.055041011
0.057252229
0.059079946
0.060578039
0.061809156
0.062828251
0.063679852
0.064398495
0.065012952
0.065547619
0.065845631
0.06605614
0.066204885
0.066310407
0.066386442
0.066442394
0.066485288
0.066519486
0.066547922
0.066572609
0.066594983
0.066616143
0.066637016
0.066658424
0.066681077
0.066705481
0.066731819
0.066759844
0.066788841
0.066817694
0.06684501
0.047605495
0.047960814
0.049156421
0.051349907
0.053651489
0.055694457
0.057425758
0.058869728
0.060071213
0.061074835
0.061919062
0.062635029
0.063247993
0.063786098
0.064101632
0.064319337
0.064476219
0.064590052
0.064674116
0.064737816
0.064787779
0.064828276
0.064862266
0.06489184
0.064918536
0.064943571
0.064967982
0.064992689
0.065018459
0.065045808
0.065074885
0.065105383
0.065136534
0.065167202
0.065196023
0.047588282
0.047816836
0.048664392
0.050383144
0.052381946
0.054227354
0.055835694
0.05720392
0.05835877
0.059333649
0.060160082
0.060865124
0.061470264
0.062004506
0.062350027
0.062568496
0.062730887
0.062851457
0.062942495
0.063013276
0.063069829
0.063116306
0.063155654
0.063190008
0.063220989
0.063249908
0.063277901
0.063305962
0.063334894
0.063365208
0.063397004
0.063429912
0.063463121
0.063495491
0.063525705
0.047574807
0.04771057
0.048287942
0.049571811
0.051251865
0.052875779
0.054336382
0.055607071
0.05669727
0.05762884
0.058425753
0.059110372
0.059700312
0.060222383
0.060603974
0.06082099
0.060987209
0.06111326
0.061210279
0.061287184
0.061349593
0.061401474
0.061445728
0.061484518
0.061519526
0.061552145
0.061583586
0.061614899
0.061646897
0.06168006
0.061714428
0.061749568
0.061784634
0.0618185
0.061849911
0.047565031
0.047633087
0.048006907
0.048918259
0.050274919
0.051661646
0.052953758
0.054106543
0.05511413
0.055987223
0.056742022
0.057395762
0.057962203
0.058463664
0.058866439
0.059094982
0.059264957
0.059395703
0.0594978
0.059579766
0.05964711
0.059703626
0.059752148
0.059794852
0.059833466
0.059869446
0.05990406
0.059938379
0.059973208
0.060008969
0.060045627
0.060082686
0.060119281
0.060154317
0.06018662
0.047559037
0.047576422
0.047802234
0.048414969
0.049456931
0.05060168
0.051710859
0.052728691
0.053637175
0.054437032
0.05513697
0.055748934
0.056282941
0.056755936
0.057156768
0.057418706
0.057588372
0.057721381
0.057827281
0.05791307
0.057984174
0.058044317
0.058096268
0.058142179
0.058183798
0.05822262
0.058259944
0.058296837
0.05833406
0.058371963
0.058410426
0.058448903
0.058486524
0.058522246
0.058554999
0.047557181
0.047532967
0.047657476
0.048046827
0.048794659
0.049705508
0.050625454
0.051496504
0.05229249
0.053006051
0.053639213
0.054198814
0.05469135
0.055128523
0.055509666
0.055800269
0.055981825
0.056114543
0.056221845
0.056310204
0.056383999
0.056446685
0.056501005
0.056549132
0.056592849
0.056633692
0.056672979
0.056711756
0.056750714
0.056790112
0.056829757
0.056869056
0.05690715
0.056943064
0.056975835
0.04755861
0.047499519
0.047557095
0.047786545
0.048283712
0.048974644
0.049707905
0.050427107
0.051101888
0.051719194
0.052275664
0.052773587
0.053216279
0.053610912
0.053960281
0.054250038
0.054457545
0.054600177
0.054706049
0.054795456
0.054870692
0.054934588
0.054989999
0.055039173
0.055083927
0.055125851
0.055166297
0.055206293
0.05524645
0.055286924
0.055327433
0.055367344
0.055405801
0.055441879
0.0554747
0.047561686
0.04747598
0.047487214
0.047607285
0.047910309
0.048401637
0.048959733
0.049529616
0.050080374
0.050595843
0.05106888
0.051498116
0.051884171
0.052230623
0.052540339
0.052808426
0.053024556
0.053185772
0.0533042
0.053395962
0.05347055
0.053533138
0.053587987
0.053637291
0.053682542
0.053725253
0.053766779
0.053808133
0.053849841
0.053891907
0.053933898
0.053975079
0.054014569
0.054051473
0.054084974
0.047565117
0.047462419
0.047435949
0.047487552
0.04765342
0.047970435
0.048373375
0.048803866
0.049234163
0.049647417
0.050034393
0.050391159
0.050716254
0.051010617
0.051275937
0.051510993
0.051711675
0.051876499
0.052009181
0.052111077
0.052192884
0.052260779
0.052318711
0.052369801
0.052416454
0.052460572
0.052503667
0.052546787
0.052590409
0.052634422
0.052678232
0.052720948
0.052761597
0.052799292
0.052833331
0.047568104
0.04745643
0.04739961
0.047407918
0.047484009
0.047663346
0.047933478
0.048240442
0.048559779
0.048875772
0.049178609
0.049462923
0.049725865
0.049966598
0.05018548
0.05038223
0.050555395
0.050704513
0.050831035
0.050936552
0.051024896
0.051099511
0.05116274
0.051217578
0.051266795
0.051312486
0.051356199
0.051398977
0.051441353
0.051483383
0.05152473
0.051564789
0.051602834
0.051638129
0.051670023
0.04757031
0.047454899
0.047377867
0.047351757
0.047375363
0.047459474
0.047618415
0.047822022
0.048044563
0.048272921
0.048497866
0.048713597
0.048916547
0.049104844
0.049277812
0.04943507
0.049576016
0.049700581
0.049809579
0.049904
0.049985547
0.050056111
0.050117511
0.050171595
0.050220115
0.050264607
0.05030632
0.05034617
0.050384715
0.050422165
0.050458431
0.050493204
0.050526035
0.05055643
0.050583916
0.047571714
0.047455536
0.04736677
0.047314711
0.047304169
0.047331449
0.047405468
0.047525959
0.047668555
0.047822244
0.047978996
0.048133318
0.048281507
0.048421232
0.048551202
0.048670702
0.048779235
0.048876719
0.048963678
0.049040653
0.049108503
0.049168274
0.049221097
0.049268143
0.049310566
0.04934943
0.049385652
0.04941994
0.049452759
0.049484325
0.04951463
0.04954349
0.049570609
0.049595642
0.049618254
0.047572464
0.04745691
0.047362024
0.047294048
0.047256238
0.047251461
0.047273011
0.047326701
0.04740729
0.047500974
0.047601339
0.047703716
0.047804675
0.047901858
0.047993718
0.048079296
0.048157988
0.048229559
0.048294283
0.048352404
0.048404359
0.048450717
0.048492145
0.048529364
0.048563115
0.048594109
0.048622981
0.048650237
0.048676221
0.048701104
0.048724898
0.048747484
0.048768657
0.048788176
0.048805802
0.047572767
0.047458248
0.04736066
0.047283594
0.047229025
0.047198563
0.047192026
0.047203823
0.047235148
0.047283404
0.047339764
0.047400673
0.047463183
0.04752519
0.047585135
0.047641969
0.047695004
0.047743859
0.047788587
0.04782923
0.047865968
0.047899085
0.047928947
0.047955977
0.047980629
0.048003357
0.048024574
0.048044618
0.048063725
0.04808201
0.048099483
0.048116059
0.048131594
0.048145918
0.048158861
0.047572819
0.047459237
0.047360804
0.047278999
0.047214765
0.047168614
0.047140862
0.047128544
0.047131492
0.047144016
0.047167924
0.047197654
0.047230643
0.047265255
0.047299984
0.047333842
0.047366133
0.0473964
0.047424532
0.047450434
0.047474119
0.047495692
0.047515321
0.04753323
0.047549675
0.047564922
0.047579224
0.047592788
0.047605758
0.047618205
0.047630126
0.047641458
0.047652098
0.047661924
0.047670815
0.047572763
0.047459834
0.047361406
0.047277425
0.047208019
0.047152891
0.047112239
0.047084023
0.047067838
0.047060889
0.047062638
0.047068862
0.047080475
0.047095131
0.047111047
0.047127572
0.047144069
0.047160054
0.047175309
0.047189658
0.047203011
0.047215355
0.047226733
0.047237234
0.047246979
0.047256105
0.047264747
0.047273018
0.047280993
0.047288704
0.047296139
0.047303247
0.047309952
0.047316167
0.047321808
0.047572687
0.047460129
0.047361975
0.047277182
0.047205248
0.047145354
0.047097337
0.047059724
0.047031923
0.047012117
0.046999647
0.046992215
0.046989481
0.046990123
0.046992393
0.046996604
0.047001835
0.047007517
0.047013403
0.04701928
0.047024992
0.047030462
0.047035659
0.047040585
0.047045271
0.047049767
0.047054126
0.047058395
0.0470626
0.047066745
0.047070809
0.047074748
0.047078505
0.047082017
0.047085223
0.04757263
0.047460238
0.047362357
0.047277377
0.047204343
0.047142128
0.047090192
0.047047347
0.047012869
0.046985473
0.046964407
0.046948334
0.046936485
0.046928061
0.046922098
0.046918135
0.046915676
0.046914302
0.046913787
0.046913858
0.04691419
0.046914834
0.046915693
0.046916694
0.046917812
0.046919037
0.046920372
0.046921816
0.046923364
0.046925001
0.046926696
0.046928411
0.046930101
0.046931718
0.046933217
0.047572599
0.047460259
0.047362556
0.047277616
0.047204171
0.047140932
0.047087062
0.047041483
0.047003382
0.046971737
0.046945768
0.04692455
0.046907329
0.046893444
0.046882245
0.046873229
0.046865976
0.046860132
0.046855433
0.046851651
0.046848592
0.046846123
0.046844139
0.046842558
0.046841322
0.04684039
0.046839732
0.046839324
0.046839141
0.046839145
0.046839267
0.046839513
0.046839842
0.046840213
0.04684059
0.047572589
0.047460254
0.047362638
0.047277774
0.047204205
0.047140559
0.0470858
0.047038878
0.046998914
0.046965005
0.046936375
0.046912265
0.046891998
0.046874986
0.0468607
0.04684869
0.046838579
0.046830049
0.046822841
0.046816738
0.04681156
0.046807159
0.046803416
0.046800233
0.046797534
0.046795257
0.046793351
0.046791773
0.046790484
0.046789446
0.046788623
0.046787979
0.046787478
0.046787089
0.046786781
0.04757259
0.04746025
0.047362661
0.047277849
0.047204247
0.047140446
0.047085297
0.047037738
0.046996851
0.046961777
0.046931753
0.046906085
0.046884153
0.046865415
0.046849397
0.04683569
0.046823948
0.046813873
0.046805218
0.046797773
0.046791358
0.046785826
0.04678105
0.046776927
0.046773368
0.046770302
0.046767667
0.046765412
0.046763489
0.046761857
0.046760478
0.046759315
0.046758334
0.046757506
0.046756802
0.047572596
0.047460254
0.047362664
0.04727787
0.04720425
0.047140379
0.047085047
0.047037178
0.046995828
0.046960153
0.046929401
0.046902904
0.046880075
0.0468604
0.046843433
0.04682879