/*--------------------------------*- C++ -*----------------------------------*\
  =========                 |
  \\      /  F ield         | OpenFOAM: The Open Source CFD Toolbox
   \\    /   O peration     | Website:  https://openfoam.org
    \\  /    A nd           | Version:  12
     \\/     M anipulation  |
\*---------------------------------------------------------------------------*/
FoamFile
{
    format      ascii;
    class       volScalarField;
    location    "1000";
    object      omega;
}
// * * * * * * * * * * * * * * * * * * * * * * * * * * * * * * * * * * * * * //

dimensions      [0 0 -1 0 0 0 0];

internalField   nonuniform List<scalar> 
66675
(
23.772004
23.74293
23.726751
23.716088
23.708503
23.703015
23.699114
23.696592
23.695346
23.695327
23.69636
23.699108
23.704527
23.715602
23.726884
23.740571
23.760712
23.790872
23.833249
23.898453
23.984301
24.126013
24.301605
24.516369
24.748252
25.035994
25.361473
25.755896
26.25338
26.843085
27.676531
31.512908
162.67114
5913.014
259642.05
23.772003
23.742919
23.726732
23.716063
23.708473
23.702982
23.699079
23.696554
23.695306
23.695286
23.696318
23.699064
23.704481
23.715556
23.726834
23.740514
23.760648
23.790797
23.833161
23.898333
23.984162
24.125765
24.301312
24.516027
24.747669
25.035599
25.359779
25.756003
26.246704
26.847719
27.646763
30.725688
112.64245
3101.2946
97484.973
23.771999
23.74288
23.726667
23.71598
23.708376
23.702873
23.698961
23.696428
23.695173
23.695148
23.696177
23.698918
23.704326
23.715396
23.726656
23.740322
23.760435
23.790557
23.832889
23.897993
23.98378
24.125151
24.300605
24.515218
24.74636
25.03468
25.356223
25.755946
26.2342
26.853295
27.602997
29.80812
69.535086
1233.5058
29175.519
23.771992
23.742812
23.726554
23.715835
23.708207
23.702684
23.698756
23.69621
23.694944
23.69491
23.695932
23.698663
23.704057
23.715117
23.726344
23.739985
23.760064
23.79014
23.832422
23.897414
23.983132
24.124131
24.299436
24.513882
24.74425
25.03312
25.350777
25.755052
26.217645
26.853438
27.556172
29.133376
45.774668
424.39841
7754.484
23.771981
23.742714
23.726392
23.715626
23.707962
23.702412
23.698461
23.695895
23.694613
23.694566
23.695578
23.698295
23.703667
23.714714
23.725889
23.739493
23.759524
23.789535
23.831745
23.896575
23.982196
24.122661
24.297755
24.511949
24.741271
25.03074
25.343497
25.752335
26.198983
26.841457
27.513285
28.728729
35.326791
145.46922
1942.1209
23.771968
23.742585
23.726178
23.715351
23.70764
23.702052
23.698071
23.695479
23.694175
23.694111
23.69511
23.697809
23.703153
23.714181
23.725279
23.738837
23.758805
23.788729
23.830841
23.895454
23.980947
24.120695
24.29551
24.509339
24.737369
25.027313
25.33453
25.746832
26.179399
26.812949
27.497598
28.486596
31.298959
61.294129
461.0886
23.771951
23.742425
23.725911
23.715006
23.707236
23.701601
23.697581
23.694958
23.693625
23.69354
23.694523
23.697199
23.702506
23.713514
23.724503
23.738005
23.757895
23.787709
23.829697
23.894029
23.979359
24.118185
24.29265
24.505965
24.732505
25.022562
25.324046
25.737864
26.157814
26.776883
27.458733
28.347664
29.804201
38.30594
121.27094
23.771932
23.742232
23.725588
23.714589
23.706747
23.701055
23.696989
23.694325
23.692959
23.692847
23.693811
23.696458
23.701723
23.712697
23.723552
23.736987
23.756782
23.78646
23.828294
23.892277
23.977405
24.115083
24.289122
24.501729
24.726646
25.016183
25.312199
25.724943
26.132666
26.740455
27.376511
28.295165
29.150061
32.604563
48.301559
23.771911
23.742007
23.725208
23.714098
23.70617
23.70041
23.696288
23.693578
23.692171
23.692027
23.692968
23.695582
23.700796
23.711704
23.722415
23.735772
23.755454
23.784969
23.826618
23.890174
23.975058
24.111339
24.284873
24.496529
24.719766
25.00787
25.2991
25.70752
26.104247
26.698137
27.288132
28.168978
29.023789
30.924518
31.447186
23.771889
23.741748
23.72477
23.713529
23.705502
23.699662
23.695475
23.69271
23.691256
23.691074
23.691989
23.694564
23.699719
23.710523
23.72108
23.734348
23.753901
23.783221
23.82465
23.887697
23.97229
24.106905
24.279852
24.490259
24.711828
24.997349
25.284768
25.685064
26.073563
26.644963
27.200758
28.023263
28.818749
30.110012
30.443036
23.771865
23.741455
23.724272
23.712881
23.704739
23.698807
23.694545
23.691717
23.690209
23.689982
23.690867
23.693399
23.698487
23.709145
23.719539
23.732707
23.75211
23.781204
23.822376
23.884824
23.969073
24.101735
24.274007
24.482817
24.702773
24.984418
25.269049
25.657388
26.040805
26.57966
27.116537
27.853789
28.602397
29.55765
30.288742
23.77184
23.741129
23.723712
23.712151
23.703877
23.697841
23.693493
23.690593
23.689023
23.688746
23.689597
23.692079
23.697093
23.707562
23.717783
23.730837
23.75007
23.778904
23.819778
23.881533
23.965376
24.095784
24.267284
24.474108
24.692507
24.968982
25.251561
25.62488
26.004652
26.505671
27.027205
27.679148
28.371411
29.159658
29.910553
23.771816
23.740768
23.72309
23.711336
23.702915
23.696761
23.692316
23.689335
23.687695
23.68736
23.688173
23.690599
23.69553
23.705767
23.715805
23.728731
23.747773
23.776308
23.816842
23.877805
23.96117
24.089014
24.25963
24.464053
24.680891
24.951056
25.23172
25.588348
25.963197
26.426917
26.92751
27.506977
28.135299
28.800604
29.477795
23.771792
23.740373
23.722404
23.710435
23.701848
23.695562
23.691009
23.687936
23.686217
23.685817
23.686587
23.688951
23.693792
23.703755
23.713601
23.726381
23.745207
23.773407
23.813552
23.873624
23.956425
24.081393
24.250988
24.45259
24.667745
24.930737
25.208885
25.548582
25.915172
26.345292
26.817477
27.337568
27.898122
28.470398
29.047636
23.77177
23.739946
23.721653
23.709445
23.700674
23.694241
23.689567
23.686392
23.684586
23.684111
23.684835
23.687131
23.691873
23.701522
23.711164
23.723782
23.742367
23.770191
23.809896
23.868974
23.95111
24.0729
24.241298
24.439673
24.652865
24.908145
25.182528
25.505997
25.86042
26.260824
26.699741
27.169073
27.664732
28.160708
28.649871
23.771751
23.739485
23.720838
23.708366
23.699391
23.692794
23.687987
23.684699
23.682796
23.682237
23.682909
23.685131
23.689766
23.699067
23.708492
23.720927
23.739246
23.766651
23.805863
23.863847
23.945193
24.063525
24.230496
24.425264
24.636043
24.883356
25.152361
25.460565
25.799582
26.172898
26.576975
27.000673
27.437604
27.868592
28.284285
23.771735
23.738993
23.719957
23.707195
23.697995
23.691219
23.686264
23.682851
23.680841
23.68019
23.680804
23.682944
23.687464
23.696387
23.705582
23.717815
23.735839
23.762782
23.801443
23.858235
23.938643
24.053274
24.218511
24.409323
24.61709
24.856367
25.118336
25.412005
25.733537
26.081149
26.45102
26.832655
27.217706
27.592538
27.947732
23.771724
23.73847
23.719011
23.705931
23.696486
23.689512
23.684395
23.680845
23.678717
23.677963
23.678513
23.680566
23.684963
23.693483
23.702435
23.714442
23.732144
23.758581
23.796628
23.852138
23.931426
24.042173
24.205258
24.391795
24.595856
24.827087
25.080573
25.360031
25.663039
25.985689
26.323009
26.665783
27.005298
27.331556
27.636706
23.771719
23.737919
23.718001
23.704575
23.69486
23.68767
23.682376
23.678676
23.676418
23.675551
23.676031
23.677989
23.682254
23.690354
23.69905
23.71081
23.728159
23.754047
23.791414
23.845559
23.923512
24.030271
24.190624
24.372592
24.572228
24.79537
25.039252
25.304501
25.588642
25.886964
26.193724
26.500855
26.800381
27.084754
27.348097
23.771721
23.73734
23.716927
23.703125
23.693118
23.685692
23.680204
23.67634
23.673942
23.67295
23.673351
23.675208
23.679334
23.687
23.695427
23.706918
23.723886
23.749182
23.785799
23.838505
23.914873
24.01764
24.174436
24.35159
24.546128
24.761065
24.994547
25.245447
25.510778
25.78555
26.063813
26.338521
26.602892
26.851207
27.079335
23.771731
23.736737
23.715791
23.701582
23.691257
23.683576
23.677877
23.673835
23.671283
23.670154
23.670468
23.672217
23.676197
23.683422
23.691568
23.702769
23.719327
23.74399
23.779785
23.830988
23.90549
24.004369
24.156402
24.328628
24.517508
24.724058
24.94661
25.183033
25.429849
25.682038
25.933871
26.179274
26.412732
26.629988
26.828277
23.771751
23.736113
23.714595
23.699947
23.689279
23.68132
23.675393
23.671158
23.668439
23.667161
23.667377
23.669013
23.672837
23.67962
23.687474
23.698366
23.714487
23.738478
23.773376
23.823023
23.895355
23.990543
24.136018
24.303568
24.486365
24.684306
24.89559
25.117507
25.346266
25.576998
25.804444
26.023481
26.229765
26.420221
26.593102
23.771783
23.735471
23.713342
23.698222
23.687183
23.678925
23.67275
23.668306
23.665407
23.663967
23.664072
23.66559
23.669252
23.675593
23.683149
23.693714
23.709373
23.732654
23.766582
23.814625
23.884485
23.976182
24.113541
24.276436
24.452767
24.641852
24.841665
25.049168
25.26046
25.470964
25.676021
25.871411
26.053816
26.221095
26.372243
23.771826
23.734814
23.712036
23.696409
23.684971
23.67639
23.669948
23.665278
23.662184
23.66057
23.660549
23.661945
23.665436
23.671343
23.678595
23.688818
23.703991
23.726531
23.759416
23.805811
23.87292
23.961237
24.089524
24.247407
24.416848
24.596812
24.785046
24.978345
25.172868
25.364429
25.549022
25.723257
25.884674
26.031862
26.164344
23.771883
23.734148
23.710681
23.694512
23.682645
23.673716
23.666988
23.662074
23.65877
23.656969
23.656804
23.658077
23.661388
23.666872
23.673815
23.683683
23.698351
23.720122
23.751894
23.796596
23.860724
23.945627
24.064466
24.216669
24.378737
24.549327
24.725956
24.905371
25.083907
25.257834
25.423795
25.579136
25.722099
25.851826
25.968215
23.771955
23.733476
23.709281
23.692535
23.680209
23.670907
23.66387
23.658694
23.655164
23.653162
23.652834
23.653983
23.657105
23.66218
23.668813
23.678317
23.692463
23.71344
23.744039
23.786997
23.847982
23.929268
24.038839
24.184251
24.338467
24.499496
24.664601
24.830554
24.993953
25.151553
25.300605
25.439095
25.56582
25.680338
25.7828
23.772041
23.732805
23.707844
23.690482
23.677667
23.667966
23.660597
23.655141
23.651367
23.64915
23.64864
23.649662
23.652584
23.657272
23.663594
23.672726
23.686338
23.706502
23.735874
23.777033
23.834783
23.912109
24.013089
24.149722
24.295893
24.447357
24.601149
24.754165
24.90333
25.045886
25.179642
25.303115
25.415541
25.516779
25.607147
23.772144
23.732139
23.706375
23.688362
23.675024
23.664896
23.657173
23.651416
23.647382
23.644935
23.644222
23.645114
23.647828
23.65215
23.658161
23.666918
23.679987
23.699324
23.727426
23.766725
23.821212
23.894176
23.987541
24.111875
24.250835
24.392967
24.535778
24.676457
24.812316
24.94107
25.061019
25.171118
25.270939
25.360554
25.440388
23.772262
23.731486
23.704883
23.686181
23.672287
23.661705
23.653604
23.647525
23.643213
23.640521
23.639584
23.64034
23.642836
23.646816
23.652521
23.660901
23.673423
23.691924
23.718723
23.756104
23.807337
23.875606
23.962028
24.073216
24.203852
24.336579
24.468713
24.597675
24.721147
24.837275
24.944779
25.042967
25.131659
25.211078
25.281707
23.772397
23.730852
23.703378
23.683948
23.669466
23.6584
23.649896
23.643475
23.638866
23.635913
23.63473
23.635343
23.637614
23.641277
23.646679
23.654683
23.666658
23.684318
23.709796
23.745205
23.793213
23.856601
23.936313
24.035313
24.154666
24.278232
24.400082
24.517978
24.629966
24.734574
24.830874
24.918446
24.997299
25.067748
25.13031
23.772546
23.730244
23.701868
23.681675
23.666569
23.65499
23.646058
23.639272
23.634348
23.631118
23.629669
23.630128
23.632168
23.635538
23.640642
23.648274
23.659704
23.676525
23.700672
23.734071
23.778888
23.837365
23.910352
23.998772
24.103602
24.217971
24.329916
24.437418
24.5388
24.632917
24.71913
24.797234
24.867366
24.929903
24.985367
23.77271
23.729669
23.700366
23.679373
23.66361
23.651488
23.642101
23.634928
23.629668
23.626145
23.624411
23.624701
23.626506
23.629604
23.634418
23.641684
23.652575
23.668561
23.691379
23.722747
23.76441
23.818062
23.884348
23.963258
24.054461
24.155402
24.258034
24.355918
24.447529
24.532088
24.609209
24.678846
24.741223
24.79675
24.84594
23.772886
23.729134
23.698882
23.677056
23.660602
23.647906
23.638038
23.630455
23.62484
23.621007
23.61897
23.619068
23.620642
23.623484
23.628015
23.634922
23.645283
23.660444
23.681943
23.711279
23.749838
23.798814
23.858569
23.928651
24.007947
24.094566
24.184352
24.273428
24.355829
24.431602
24.500506
24.562539
24.617976
24.66724
24.710832
23.773073
23.728646
23.697431
23.674738
23.657561
23.644261
23.633885
23.625868
23.619877
23.615717
23.613365
23.613235
23.614594
23.617189
23.621446
23.628
23.637842
23.65219
23.672389
23.699713
23.735233
23.779722
23.833247
23.895106
23.963887
24.037741
24.1139
24.18983
24.262441
24.330372
24.392016
24.447139
24.496226
24.539761
24.578235
23.773266
23.72821
23.696025
23.672438
23.654504
23.64057
23.629659
23.621185
23.614798
23.610293
23.607612
23.607216
23.608377
23.610734
23.614721
23.620932
23.630266
23.643816
23.66274
23.688089
23.720658
23.760874
23.80855
23.86283
23.922252
23.98504
24.049079
24.112446
24.173292
24.230415
24.282957
24.330552
24.373217
24.411183
24.444784
23.773464
23.727834
23.694679
23.670173
23.651452
23.636854
23.625381
23.616427
23.609622
23.604755
23.601733
23.601034
23.602008
23.604136
23.607854
23.61373
23.62257
23.635339
23.653018
23.676446
23.706173
23.742353
23.784602
23.831982
23.883095
23.936329
23.989988
24.042572
24.09283
24.139895
24.183236
24.22262
24.258045
24.289666
24.317732
23.773663
23.727521
23.693407
23.667961
23.648425
23.633135
23.621075
23.611617
23.604375
23.599128
23.595753
23.594715
23.595507
23.597415
23.600859
23.606413
23.614769
23.626776
23.643244
23.664815
23.691828
23.724228
23.761492
23.80266
23.84645
23.891458
23.936319
23.979873
24.021224
24.059773
24.095183
24.127332
24.156255
24.182093
24.205055
23.773857
23.727274
23.692223
23.665825
23.645449
23.62944
23.616766
23.606782
23.599082
23.593437
23.5897
23.588289
23.588899
23.59059
23.59376
23.598997
23.60688
23.618143
23.633438
23.653227
23.67767
23.706555
23.739279
23.774906
23.812291
23.850248
23.887689
23.923728
23.957718
23.989249
24.018115
24.044265
24.067762
24.088744
24.10739
23.774044
23.727094
23.691139
23.663783
23.642547
23.625795
23.612484
23.601952
23.593775
23.587715
23.583605
23.581793
23.58221
23.583684
23.586583
23.591504
23.598924
23.609461
23.623621
23.641708
23.663733
23.689377
23.717999
23.748719
23.78054
23.812481
23.843687
23.873489
23.901424
23.927215
23.950745
23.972009
23.991085
24.008101
24.023215
23.77422
23.726981
23.690168
23.661858
23.639747
23.62223
23.60826
23.59716
23.588488
23.581995
23.577502
23.575269
23.575468
23.576724
23.579359
23.583957
23.590922
23.600749
23.613814
23.630282
23.650048
23.672721
23.697661
23.724064
23.75108
23.77791
23.803891
23.828524
23.851483
23.872589
23.891781
23.909083
23.924577
23.938383
23.950638
23.77438
23.72693
23.689318
23.660069
23.637075
23.618777
23.604129
23.59244
23.583257
23.576316
23.57143
23.568766
23.568697
23.569748
23.572125
23.576377
23.582896
23.59203
23.604038
23.618972
23.636638
23.656605
23.678259
23.700885
23.723768
23.746269
23.76788
23.788234
23.807107
23.824386
23.84005
23.854139
23.866736
23.877947
23.887891
23.774522
23.726936
23.688597
23.658435
23.634558
23.615467
23.600125
23.587833
23.578122
23.570718
23.565429
23.562334
23.561921
23.562805
23.564918
23.568801
23.574874
23.583327
23.594317
23.6078
23.623522
23.641037
23.659772
23.679105
23.698446
23.717289
23.73525
23.752063
23.767577
23.781729
23.794522
23.806003
23.816251
23.825363
23.833439
23.774643
23.726991
23.688007
23.656972
23.632222
23.612334
23.596286
23.583377
23.573127
23.565247
23.559543
23.556022
23.555194
23.555922
23.557766
23.561264
23.566884
23.574666
23.584673
23.596788
23.610715
23.626015
23.642167
23.65864
23.674951
23.690707
23.70562
23.719501
23.732254
23.743846
23.754297
23.763656
23.771999
23.779408
23.785971
23.774742
23.727084
23.687547
23.655693
23.630091
23.609409
23.59265
23.579115
23.568314
23.559949
23.55382
23.549875
23.548577
23.549129
23.550701
23.553804
23.558958
23.566072
23.57513
23.585955
23.598229
23.611534
23.625405
23.639396
23.653119
23.666271
23.678637
23.690089
23.700567
23.71006
23.718596
23.726226
23.733017
23.739042
23.744377
23.774819
23.727204
23.687211
23.654607
23.628185
23.606721
23.589253
23.575088
23.563731
23.554871
23.548307
23.543944
23.54213
23.542475
23.543756
23.54646
23.551126
23.557575
23.565712
23.57532
23.586073
23.597582
23.609442
23.621282
23.632793
23.643744
23.65398
23.663415
23.672015
23.679782
23.686748
23.692964
23.698488
23.703385
23.707719
23.774875
23.72734
23.686989
23.653714
23.626521
23.604297
23.586129
23.571335
23.559421
23.550062
23.543056
23.538276
23.535925
23.536001
23.536976
23.539286
23.543416
23.549203
23.556446
23.564904
23.574256
23.584148
23.594233
23.604206
23.613825
23.622915
23.631365
23.639121
23.646164
23.652506
23.658182
23.663235
23.667722
23.671695
23.67521
23.774911
23.727479
23.686866
23.653011
23.625106
23.602159
23.583309
23.567895
23.555426
23.545569
23.538114
23.532916
23.530045
23.529715
23.530421
23.532332
23.535878
23.540995
23.547363
23.55473
23.562789
23.571223
23.579739
23.58809
23.596085
23.603596
23.610545
23.616897
23.622646
23.627808
23.632416
23.636512
23.640144
23.643358
23.6462
23.774931
23.727611
23.686823
23.652485
23.623942
23.600318
23.580816
23.564799
23.551785
23.541434
23.533528
23.52791
23.524542
23.523682
23.524131
23.52563
23.528561
23.532992
23.538501
23.544828
23.55169
23.558807
23.565934
23.572869
23.579469
23.585636
23.591318
23.596492
23.60116
23.60534
23.609063
23.612366
23.61529
23.617877
23.620162
23.774938
23.727729
23.686841
23.65212
23.623021
23.598781
23.578666
23.562072
23.548529
23.537694
23.529339
23.523298
23.519453
23.517992
23.518139
23.51921
23.521516
23.525245
23.529904
23.535241
23.540993
23.546917
23.55281
23.55851
23.563905
23.568926
23.573534
23.577716
23.581478
23.584837
23.587822
23.590464
23.592801
23.594866
23.59669
23.774935
23.727828
23.686898
23.651891
23.622328
23.597541
23.576864
23.559729
23.54568
23.534377
23.52558
23.519115
23.514807
23.512745
23.51244
23.513128
23.514826
23.517809
23.521631
23.526023
23.530747
23.535591
23.540387
23.545006
23.54936
23.553399
23.557094
23.560437
23.563435
23.566105
23.568471
23.570562
23.572408
23.574037
23.575477
23.774927
23.727905
23.686977
23.651771
23.621836
23.596581
23.575404
23.557772
23.54325
23.5315
23.522273
23.515387
23.510623
23.507994
23.507102
23.507437
23.508564
23.510731
23.513747
23.517246
23.521019
23.524886
23.528706
23.532376
23.535829
23.539024
23.541939
23.54457
23.546922
23.54901
23.550856
23.552483
23.553917
23.555182
23.556298
23.774915
23.72796
23.68706
23.651729
23.621513
23.595874
23.574265
23.55619
23.541234
23.529066
23.519427
23.512126
23.506916
23.503741
23.502247
23.502132
23.50272
23.504106
23.506328
23.508983
23.511879
23.514862
23.517814
23.520652
23.523321
23.525787
23.528035
23.530058
23.531861
23.533457
23.534863
23.536098
23.537185
23.538143
23.538988
23.774904
23.727997
23.687137
23.65174
23.621324
23.595384
23.573416
23.554957
23.539614
23.527062
23.517034
23.509328
23.503683
23.499974
23.497929
23.497131
23.49731
23.498028
23.499419
23.501287
23.50338
23.505567
23.507747
23.509853
23.51184
23.513677
23.51535
23.516854
23.51819
23.519367
23.520399
23.521304
23.522097
23.522795
23.523412
23.774893
23.728018
23.6872
23.651778
23.621232
23.595069
23.572814
23.554035
23.538354
23.525457
23.515068
23.506974
23.500908
23.496681
23.494078
23.492656
23.492241
23.492449
23.493078
23.494198
23.495555
23.497024
23.49852
23.499983
23.501374
23.502667
23.503847
23.504905
23.505841
23.506661
23.507377
23.507999
23.508543
23.509021
23.509443
23.774885
23.728028
23.687248
23.651826
23.621203
23.594884
23.572412
23.553375
23.537409
23.524206
23.513488
23.505027
23.498555
23.493837
23.490669
23.488704
23.487621
23.487248
23.48735
23.487722
23.488405
23.489232
23.49012
23.491018
23.49189
23.49271
23.493462
23.494135
23.494726
23.495238
23.495679
23.496057
23.496383
23.496668
23.496919
23.77488
23.728031
23.68728
23.651871
23.621209
23.594789
23.572159
23.552921
23.53672
23.523253
23.512239
23.503434
23.496574
23.491399
23.487685
23.485163
23.483515
23.482524
23.48201
23.481876
23.481956
23.482171
23.482522
23.482922
23.483335
23.483737
23.484111
23.484444
23.484729
23.484967
23.485162
23.485321
23.485451
23.485561
23.485656
23.774877
23.72803
23.687299
23.651906
23.62123
23.594747
23.572008
23.552618
23.536228
23.522535
23.511255
23.502134
23.494907
23.489306
23.485087
23.482013
23.479827
23.478294
23.477233
23.476539
23.4761
23.475835
23.4757
23.475652
23.475656
23.475678
23.475714
23.475742
23.475752
23.475745
23.475724
23.475689
23.475647
23.475603
23.475561
23.774876
23.728029
23.68731
23.651931
23.621251
23.594732
23.571919
23.552416
23.535875
23.521989
23.510473
23.501063
23.493493
23.487495
23.482819
23.479233
23.47652
23.474479
23.472943
23.471771
23.470872
23.470176
23.469634
23.469205
23.468859
23.468569
23.468319
23.468094
23.467883
23.467682
23.467489
23.467305
23.467132
23.466973
23.46683
23.774876
23.728028
23.687315
23.651945
23.621266
23.594727
23.571863
23.552274
23.53561
23.521559
23.509833
23.500159
23.492271
23.485906
23.480816
23.476776
23.473585
23.471064
23.469067
23.467472
23.466186
23.465136
23.464262
23.463525
23.462895
23.462351
23.461873
23.461447
23.461064
23.460715
23.460397
23.460106
23.459841
23.459602
23.459389
23.774877
23.728028
23.687317
23.651953
23.621273
23.59472
23.571818
23.552162
23.535395
23.521201
23.509285
23.499371
23.491192
23.484491
23.479027
23.474584
23.470974
23.468033
23.465627
23.463645
23.462003
23.460628
23.459465
23.458472
23.457614
23.456867
23.456208
23.455622
23.455098
23.454626
23.454202
23.453819
23.453477
23.453172
23.452902
23.774878
23.728029
23.687319
23.651955
23.621274
23.594707
23.571774
23.552061
23.535205
23.520882
23.508795
23.498662
23.490218
23.483212
23.477413
23.472614
23.468638
23.465334
23.462576
23.460263
23.458311
23.456654
23.455237
23.454018
23.45296
23.452036
23.451224
23.450505
23.449866
23.449296
23.448788
23.448334
23.447931
23.447573
23.447259
23.774879
23.728031
23.68732
23.651956
23.621269
23.594689
23.571727
23.551961
23.535024
23.520584
23.508339
23.498007
23.489324
23.482044
23.475947
23.470837
23.466545
23.462929
23.459871
23.457275
23.455061
23.453165
23.451533
23.450121
23.448893
23.44782
23.446878
23.446047
23.445313
23.444662
23.444085
23.443573
23.443121
23.442722
23.442372
23.774881
23.728034
23.687323
23.651955
23.621261
23.594665
23.571674
23.551859
23.534846
23.520297
23.507907
23.497394
23.488495
23.480973
23.474614
23.469233
23.464669
23.460787
23.457475
23.454641
23.452208
23.450112
23.448299
23.446727
23.445357
23.444161
23.443111
23.442189
23.441376
23.440659
23.440025
23.439466
23.438974
23.438541
23.438162
23.774882
23.728037
23.687325
23.651954
23.621251
23.594639
23.571618
23.551754
23.534668
23.520018
23.507495
23.496816
23.487725
23.479989
23.473403
23.467788
23.462992
23.458885
23.45536
23.452327
23.44971
23.447448
23.445486
23.443781
23.442295
23.440996
23.439859
23.438861
23.437984
23.437212
23.436533
23.435936
23.43541
23.43495
23.434547
23.774883
23.728041
23.687328
23.651953
23.621241
23.59461
23.571559
23.551648
23.534492
23.519747
23.507101
23.496274
23.487012
23.479089
23.472306
23.466492
23.461498
23.457202
23.453499
23.4503
23.447532
23.445132
23.443048
23.441233
23.439651
23.438269
23.437059
23.436
23.43507
23.434254
23.433537
23.432908
23.432356
23.431873
23.431451
23.774885
23.728045
23.687331
23.651952
23.62123
23.594581
23.571499
23.551541
23.534319
23.519485
23.506727
23.495767
23.486354
23.478269
23.471317
23.465332
23.460173
23.455719
23.451866
23.44853
23.445637
23.443124
23.440938
23.439034
23.437373
23.435923
23.434654
23.433544
23.432571
23.431718
23.430971
23.430316
23.429743
23.429241
23.428803
23.774887
23.728048
23.687334
23.651951
23.621218
23.594551
23.571438
23.551435
23.53415
23.519233
23.506374
23.495296
23.485751
23.477524
23.470428
23.4643
23.459002
23.454415
23.450439
23.446989
23.443992
23.441386
23.439117
23.43714
23.435414
23.433907
23.43259
23.431439
23.430431
23.429548
23.428776
23.4281
23.427508
23.426992
23.42654
23.774888
23.728052
23.687338
23.65195
23.621207
23.59452
23.571378
23.551332
23.533987
23.518995
23.506044
23.49486
23.4852
23.476852
23.469633
23.463384
23.457968
23.453271
23.449193
23.445649
23.442567
23.439884
23.437547
23.435509
23.433731
23.432178
23.430821
23.429635
23.428598
23.427691
23.426898
23.426205
23.425599
23.42507
23.424608
23.77489
23.728056
23.687341
23.651949
23.621195
23.59449
23.571319
23.551231
23.533831
23.518769
23.505736
23.494459
23.484699
23.476248
23.468924
23.462573
23.45706
23.452271
23.448108
23.444486
23.441334
23.438588
23.436194
23.434107
23.432285
23.430694
23.429305
23.428091
23.42703
23.426103
23.425294
23.424586
23.423968
23.423429
23.422958
23.774891
23.72806
23.687344
23.651947
23.621184
23.594461
23.571261
23.551135
23.533683
23.518559
23.505452
23.494094
23.484247
23.475707
23.468294
23.461857
23.456263
23.451397
23.447164
23.443478
23.440268
23.43747
23.43503
23.432902
23.431044
23.429423
23.428006
23.42677
23.42569
23.424746
23.423922
23.423203
23.422576
23.422028
23.42155
23.774893
23.728064
23.687347
23.651946
23.621172
23.594431
23.571206
23.551043
23.533545
23.518363
23.505192
23.493762
23.483841
23.475225
23.467738
23.461228
23.455566
23.450637
23.446346
23.442607
23.439349
23.436508
23.43403
23.431868
23.429981
23.428334
23.426896
23.42564
23.424544
23.423588
23.422752
23.422024
23.421388
23.420834
23.420351
23.774894
23.728068
23.68735
23.651944
23.621161
23.594403
23.571153
23.550956
23.533415
23.518183
23.504955
23.493464
23.483478
23.474798
23.467248
23.460678
23.454959
23.449978
23.445638
23.441856
23.438558
23.435682
23.433173
23.430984
23.429073
23.427405
23.425948
23.424677
23.423568
23.4226
23.421756
23.42102
23.420378
23.419818
23.419331
23.774896
23.728071
23.687353
23.651942
23.621149
23.594376
23.571102
23.550874
23.533296
23.518019
23.504741
23.493197
23.483157
23.474422
23.466819
23.4602
23.454433
23.449409
23.445029
23.441211
23.437881
23.434976
23.432441
23.430229
23.428298
23.426613
23.425142
23.423858
23.422738
23.421761
23.42091
23.420167
23.419521
23.418957
23.418466
23.774897
23.728074
23.687355
23.651939
23.621137
23.594349
23.571055
23.550799
23.533186
23.51787
23.504549
23.492959
23.482873
23.474093
23.466446
23.459785
23.45398
23.448919
23.444507
23.440658
23.437302
23.434373
23.431817
23.429587
23.42764
23.42594
23.424457
23.423163
23.422035
23.421051
23.420193
23.419446
23.418795
23.418228
23.417735
23.774898
23.728076
23.687356
23.651936
23.621126
23.594324
23.57101
23.550729
23.533087
23.517736
23.504378
23.49275
23.482625
23.473806
23.466123
23.459427
23.453589
23.448499
23.44406
23.440188
23.436809
23.433861
23.431288
23.429042
23.427082
23.425371
23.423878
23.422576
23.42144
23.42045
23.419588
23.418837
23.418183
23.417614
23.417118
23.774898
23.728078
23.687356
23.651932
23.621114
23.594299
23.570968
23.550665
23.532996
23.517616
23.504226
23.492566
23.482408
23.473557
23.465844
23.459119
23.453255
23.448141
23.443679
23.439787
23.436391
23.433427
23.43084
23.428582
23.426611
23.42489
23.423389
23.42208
23.420938
23.419944
23.419078
23.418324
23.417667
23.417096
23.416599
23.774899
23.728079
23.687356
23.651928
23.621101
23.594275
23.570928
23.550606
23.532914
23.517509
23.504092
23.492404
23.482219
23.473342
23.465603
23.458855
23.452969
23.447835
23.443355
23.439447
23.436036
23.433059
23.430461
23.428193
23.426213
23.424485
23.422977
23.421662
23.420516
23.419518
23.418648
23.417892
23.417234
23.416662
23.416164
23.774899
23.728079
23.687354
23.651922
23.621088
23.594252
23.570891
23.550551
23.53284
23.517413
23.503973
23.492262
23.482054
23.473155
23.465396
23.458628
23.452724
23.447574
23.44308
23.439158
23.435735
23.432748
23.43014
23.427864
23.425877
23.424143
23.42263
23.42131
23.42016
23.419159
23.418287
23.417529
23.41687
23.416296
23.415797
23.774899
23.728078
23.687351
23.651915
23.621074
23.594228
23.570855
23.550501
23.532772
23.517327
23.503868
23.492137
23.481911
23.472993
23.465217
23.458433
23.452515
23.447351
23.442845
23.438912
23.43548
23.432484
23.429869
23.427586
23.425593
23.423854
23.422336
23.421013
23.41986
23.418856
23.417982
23.417223
23.416562
23.415988
23.415489
23.774898
23.728077
23.687347
23.651907
23.62106
23.594205
23.57082
23.550453
23.53271
23.517249
23.503774
23.492027
23.481784
23.472852
23.465061
23.458265
23.452334
23.44716
23.442644
23.438702
23.435262
23.432259
23.429638
23.427349
23.425352
23.423608
23.422087
23.420761
23.419605
23.418599
23.417724
23.416963
23.416302
23.415727
23.415227
23.774898
23.728074
23.687342
23.651897
23.621044
23.594181
23.570787
23.550408
23.532652
23.517177
23.503689
23.491928
23.481673
23.472728
23.464925
23.458118
23.452178
23.446994
23.44247
23.438522
23.435075
23.432066
23.42944
23.427147
23.425145
23.423398
23.421874
23.420545
23.419388
23.41838
23.417503
23.416742
23.41608
23.415504
23.415004
23.774897
23.728071
23.687335
23.651886
23.621028
23.594157
23.570754
23.550365
23.532598
23.517112
23.503611
23.49184
23.481573
23.472618
23.464806
23.457989
23.452041
23.44685
23.442319
23.438365
23.434913
23.431899
23.429269
23.426972
23.424967
23.423218
23.421691
23.42036
23.4192
23.418191
23.417313
23.416551
23.415888
23.415312
23.414811
23.774895
23.728066
23.687328
23.651874
23.62101
23.594133
23.570721
23.550323
23.532546
23.517051
23.50354
23.491759
23.481483
23.472519
23.464699
23.457875
23.45192
23.446723
23.442187
23.438227
23.434771
23.431753
23.429119
23.42682
23.424812
23.42306
23.421531
23.420198
23.419037
23.418027
23.417148
23.416384
23.415721
23.415145
23.414643
23.774893
23.728061
23.687319
23.651861
23.620991
23.594108
23.570689
23.550283
23.532498
23.516993
23.503474
23.491684
23.481401
23.47243
23.464602
23.457772
23.451811
23.446609
23.442068
23.438105
23.434645
23.431624
23.428987
23.426685
23.424675
23.422921
23.42139
23.420056
23.418893
23.417882
23.417002
23.416238
23.415574
23.414997
23.414495
23.774891
23.728055
23.687309
23.651846
23.620971
23.594082
23.570656
23.550243
23.53245
23.516938
23.503412
23.491615
23.481324
23.472347
23.464514
23.457678
23.451713
23.446506
23.441961
23.437994
23.434531
23.431508
23.428868
23.426564