/*--------------------------------*- C++ -*----------------------------------*\
  =========                 |
  \\      /  F ield         | OpenFOAM: The Open Source CFD Toolbox
   \\    /   O peration     | Website:  https://openfoam.org
    \\  /    A nd           | Version:  12
     \\/     M anipulation  |
\*---------------------------------------------------------------------------*/
FoamFile
{
    format      ascii;
    class       volScalarField;
    location    "1000";
    object      yPlus;
}
// * * * * * * * * * * * * * * * * * * * * * * * * * * * * * * * * * * * * * //

dimensions      [];

internalField   uniform 0;

boundaryField
{
    lowerWall
    {
        type            calculated;
        value           nonuniform List<scalar> 
600
(
1.3495331
1.0685818
0.88459551
0.77158208
0.71071906
0.6694488
0.6374048
0.61157634
0.59008881
0.57174768
0.55579843
0.54174188
0.52919823
0.51788838
0.50760877
0.4981986
0.4895287
0.48149704
0.47402132
0.46703443
0.46047959
0.45430846
0.44848079
0.44296232
0.4377236
0.43273913
0.42798634
0.42344543
0.41909922
0.41493245
0.41093161
0.40708468
0.40338076
0.39980993
0.39636335
0.39303304
0.38981176
0.38669293
0.38367057
0.38073915
0.37789355
0.37512907
0.37244142
0.36982663
0.36728103
0.36480122
0.36238402
0.36002652
0.35772594
0.35547988
0.35328607
0.3511424
0.34904694
0.34699774
0.34499298
0.34303097
0.34111012
0.33922884
0.33738546
0.33557846
0.33380641
0.33206812
0.33036246
0.3286882
0.32704416
0.32542925
0.32384248
0.32228295
0.32074991
0.31924255
0.31775998
0.31630144
0.31486624
0.3134537
0.31206321
0.3106942
0.3093461
0.30801828
0.30671011
0.30542099
0.30415038
0.30289778
0.30166279
0.30044504
0.29924416
0.29805971
0.29689127
0.2957384
0.29460071
0.29347781
0.29236938
0.29127514
0.29019486
0.28912825
0.28807501
0.28703479
0.28600729
0.28499222
0.28398928
0.28299822
0.28201886
0.28105101
0.28009451
0.27914909
0.27821454
0.27729061
0.27637706
0.27547367
0.27458025
0.27369661
0.27282263
0.27195821
0.27110325
0.27025755
0.26942098
0.26859329
0.2677744
0.26696405
0.26616222
0.26536865
0.26458336
0.26380624
0.26303714
0.2622763
0.26152382
0.26077928
0.26004241
0.25931291
0.25859067
0.25787553
0.25716745
0.2564664
0.25577242
0.25508552
0.25440563
0.2537327
0.25306667
0.25240746
0.25175503
0.2511093
0.25047025
0.24983783
0.24921206
0.24859298
0.24798059
0.24737484
0.24677568
0.24618303
0.24559686
0.24501709
0.24444368
0.24387658
0.24331578
0.24276128
0.24221316
0.24167138
0.24113592
0.2406067
0.24008371
0.23956686
0.23905616
0.2385515
0.23805292
0.2375603
0.23707376
0.23659324
0.23611891
0.23565052
0.23518832
0.23473189
0.2342816
0.23383699
0.23339816
0.23296569
0.23253941
0.23211854
0.23170298
0.23129262
0.2308876
0.23048797
0.23009373
0.22970494
0.22932158
0.22894367
0.22857118
0.22820415
0.22784251
0.2274863
0.2271355
0.22679015
0.22645034
0.2261161
0.22578738
0.22546415
0.22514634
0.2248339
0.2245268
0.22422508
0.22392866
0.2236375
0.22335151
0.22307069
0.22279508
0.22252469
0.22225941
0.22199918
0.2217439
0.22149363
0.22124829
0.22100771
0.22077176
0.22054033
0.22031326
0.2200905
0.21987192
0.21965754
0.21944693
0.21924015
0.21903652
0.2188363
0.21863851
0.21844376
0.21825069
0.21805991
0.21787161
0.21768508
0.21749917
0.21731388
0.21712888
0.21694425
0.21675971
0.21657524
0.21639057
0.21620565
0.21602025
0.21583434
0.21564773
0.21546062
0.21527288
0.21508453
0.21489539
0.21470551
0.21451476
0.21432323
0.21413082
0.21393766
0.21374365
0.21354902
0.21335386
0.21315827
0.21296222
0.21276574
0.21256883
0.21237157
0.21217392
0.21197599
0.21177782
0.21157953
0.2113813
0.21118321
0.21098528
0.21078749
0.21058982
0.21039236
0.21019516
0.20999823
0.20980153
0.2096054
0.20940983
0.20921503
0.20902055
0.20882698
0.20863344
0.20844107
0.20824943
0.20805774
0.20786578
0.20767423
0.20748305
0.20729266
0.20710289
0.20691397
0.20672576
0.20653851
0.20635207
0.20616676
0.20598266
0.20579964
0.20561772
0.20543686
0.20525705
0.20507829
0.20490046
0.20472382
0.20454835
0.20437415
0.20420106
0.20402922
0.20385836
0.20368864
0.20351988
0.20335212
0.20318547
0.20302001
0.20285569
0.20269233
0.20253001
0.20236857
0.2022079
0.20204802
0.20188915
0.20173123
0.20157429
0.20141809
0.20126254
0.20110773
0.20095344
0.20079987
0.20064719
0.20049524
0.200344
0.20019346
0.20004345
0.19989415
0.19974541
0.19959732
0.19945015
0.19930372
0.1991581
0.19901317
0.19886899
0.19872539
0.19858251
0.19844068
0.19829964
0.19815914
0.19801925
0.19787994
0.19774138
0.19760357
0.19746675
0.19733105
0.19719639
0.19706285
0.19693022
0.19679862
0.19666794
0.19653835
0.19640999
0.19628279
0.1961568
0.19603186
0.19590794
0.19578506
0.19566318
0.19554248
0.19542302
0.19530468
0.19518738
0.19507108
0.1949557
0.19484126
0.19472784
0.19461552
0.19450419
0.19439379
0.19428418
0.19417537
0.19406718
0.19395992
0.19385346
0.19374778
0.19364275
0.19353834
0.19343448
0.19333111
0.19322829
0.19312609
0.19302439
0.19292324
0.19282234
0.19272195
0.19262154
0.19252172
0.19242205
0.1923229
0.19222387
0.19212534
0.19202669
0.19192835
0.1918299
0.19173199
0.19163398
0.19153665
0.19143888
0.19134173
0.19124382
0.19114664
0.19104891
0.19095208
0.19085473
0.19075814
0.1906609
0.19056402
0.19046659
0.19036973
0.19027258
0.1901759
0.19007891
0.18998212
0.18988489
0.18978779
0.18969056
0.18959354
0.18949641
0.18939941
0.18930204
0.18920489
0.18910734
0.18901005
0.18891229
0.18881488
0.18871698
0.18861922
0.18852126
0.18842315
0.18832514
0.18822656
0.18812827
0.18802927
0.18793059
0.18783112
0.18773202
0.18763249
0.18753274
0.18743292
0.18733232
0.18723206
0.18713074
0.18703004
0.18692806
0.18682673
0.18672394
0.18662189
0.18651831
0.18641564
0.18631139
0.18620815
0.18610315
0.18599924
0.18589349
0.1857888
0.18568238
0.1855771
0.18547007
0.18536407
0.18525635
0.18514964
0.18504131
0.18493396
0.18482511
0.18471713
0.18460781
0.18449918
0.18438948
0.18428019
0.18417013
0.18406038
0.18394989
0.18383995
0.18372889
0.18361882
0.18350731
0.18339702
0.18328533
0.18317482
0.18306317
0.18295234
0.18284094
0.18272981
0.18261868
0.18250737
0.18239645
0.18228511
0.18217438
0.18206313
0.18195277
0.18184163
0.18173168
0.1816209
0.1815112
0.18140109
0.18129167
0.18118214
0.18107321
0.18096406
0.18085563
0.18074684
0.180639
0.18053056
0.18042327
0.18031517
0.18020856
0.18010073
0.17999469
0.17988735
0.17978155
0.1796746
0.17956917
0.17946262
0.17935747
0.17925131
0.17914641
0.17904063
0.17893606
0.17883104
0.17872712
0.17862284
0.17851988
0.17841648
0.17831453
0.1782119
0.17811067
0.17800936
0.17790896
0.17780856
0.17770878
0.1776091
0.17750995
0.17741096
0.17731209
0.17721324
0.1771148
0.17701634
0.17691857
0.17682107
0.17672443
0.17662813
0.17653248
0.17643698
0.17634203
0.17624711
0.17615263
0.17605794
0.17596373
0.17586935
0.17577567
0.17568204
0.17558911
0.17549604
0.17540383
0.17531149
0.1752202
0.17512884
0.17503835
0.17494799
0.17485853
0.17476955
0.17468108
0.17459306
0.17450569
0.17441874
0.17433222
0.17424623
0.17416047
0.17407597
0.17399106
0.17390767
0.17382344
0.1737412
0.17365788
0.17357684
0.17349454
0.17341426
0.17333253
0.17325339
0.17317272
0.17309432
0.17301449
0.17293682
0.17285844
0.17278096
0.17270347
0.17262758
0.17255068
0.17247622
0.17240047
0.17232803
0.17225427
0.17218346
0.17211124
0.17203939
0.1719689
0.17189377
0.17182831
0.17174419
0.17169462
0.17158577
0.17157679
0.17141751
)
;
    }
    lowerSymmetry
    {
        type            calculated;
        value           uniform 0;
    }
    upperSymmetry
    {
        type            calculated;
        value           uniform 0;
    }
    inlet
    {
        type            calculated;
        value           uniform 0;
    }
    outlet
    {
        type            calculated;
        value           uniform 0;
    }
    defaultFaces
    {
        type            empty;
    }
}


// ************************************************************************* //
