#      distance             U_x             U_y             U_z wallShearStr... wallShearStr... wallShearStr...               p             nut         nuTilda
  3.0219182e-06     0.018855752   2.7096671e-09  -3.5563267e-23               0               0               0   0.00024091078   3.1859358e-12   4.3835713e-08
  5.0865428e-06     0.031741056   6.8740536e-09   -1.513603e-23               0               0               0   0.00024091099   1.5791446e-11   7.3786235e-08
  7.2269684e-06     0.045097645   1.3536285e-08  -3.8981974e-23               0               0               0   0.00024091122   5.3954341e-11   1.0483247e-07
  9.4750924e-06     0.059121563   2.3069615e-08  -5.8466707e-23               0               0               0   0.00024091144   1.4693833e-10   1.3743516e-07
  1.1864417e-05     0.074015236   3.6000866e-08  -2.4741199e-23               0               0               0   0.00024091169   3.4558981e-10    1.720776e-07
  1.4430548e-05     0.089987169   5.3088703e-08   8.0869635e-23               0               0               0   0.00024091195   7.3593952e-10   2.0927257e-07
  1.7211727e-05      0.10724893   7.5331635e-08   1.3180272e-22               0               0               0   0.00024091223    1.461304e-09    2.495698e-07
  2.0249401e-05      0.12600729   1.0400206e-07   2.7890011e-23               0               0               0   0.00024091255   2.7575346e-09    2.935645e-07
  2.3588836e-05      0.14644807   1.4068739e-07  -3.5573225e-23               0               0               0   0.00024091291   5.0082677e-09   3.4190745e-07
  2.7279799e-05      0.16870707   1.8731622e-07  -1.7786612e-23               0               0               0   0.00024091334    8.829776e-09   3.9531826e-07
  3.1377293e-05      0.19282303   2.4614335e-07               0               0               0               0   0.00024091385   1.5197817e-08   4.5460364e-07
  3.5942381e-05      0.21867177   3.1965839e-07     8.77337e-23               0               0               0   0.00024091449   2.5629913e-08   5.2068191e-07
  4.1043091e-05       0.2458932   4.1038431e-07   1.3158648e-22               0               0               0   0.00024091534   4.2430304e-08   5.9461145e-07
  4.6755437e-05      0.27384597   5.2057496e-07   1.5308176e-22               0               0               0    0.0002409165   6.8978177e-08   6.7761017e-07
  5.3164546e-05      0.30164429   6.5192076e-07   1.6382596e-22               0               0               0   0.00024091812   1.0997274e-07   7.7104402e-07
  6.0365928e-05      0.32831379   8.0547432e-07  -2.3004447e-22               0               0               0   0.00024092044   1.7144551e-07   8.7637511e-07
    6.84669e-05      0.35302716   9.8196474e-07  -4.9908148e-22               0               0               0   0.00024092373   2.6029703e-07   9.9510848e-07
  7.7588184e-05      0.37530114   1.1824182e-06  -2.6257959e-22               0               0               0   0.00024092828   3.8325078e-07   1.1288073e-06
   8.786571e-05      0.39504954   1.4087631e-06    4.563755e-23               0               0               0   0.00024093438   5.4545374e-07   1.2791936e-06
  9.9452634e-05      0.41249295   1.6641468e-06   2.4762556e-22               0               0               0   0.00024094222   7.4928804e-07    1.448273e-06
  0.00011252163      0.42801073   1.9529524e-06   6.8012507e-23               0               0               0   0.00024095188   9.9402162e-07   1.6384181e-06
  0.00012726745      0.44201628   2.2806819e-06  -1.0877412e-22               0               0               0   0.00024096334   1.2765783e-06   1.8524005e-06
  0.00014390985      0.45488488   2.6538555e-06  -2.2938172e-23               0               0               0   0.00024097655    1.593115e-06   2.0934002e-06
  0.00016269684      0.46692551   3.0799887e-06    6.009428e-23               0               0               0   0.00024099147   1.9406903e-06   2.3650138e-06
  0.00018390838      0.47837835   3.5676516e-06    4.444221e-22               0               0               0   0.00024100813   2.3183915e-06   2.6712737e-06
  0.00020786057      0.48942338   4.1265954e-06   5.4639257e-22               0               0               0   0.00024102668   2.7277171e-06   3.0166822e-06
  0.00023491035      0.50019226   4.7679299e-06   1.6206475e-22               0               0               0   0.00024104734   3.1723946e-06   3.4062562e-06
  0.00026546084      0.51077966   5.5043401e-06               0               0               0               0   0.00024107045   3.6579474e-06   3.8455811e-06
   0.0002999673      0.52125282   6.3503421e-06               0               0               0               0   0.00024109642   4.1912579e-06   4.3408692e-06
  0.00033894396      0.53165908   7.3225787e-06  -1.7303172e-22               0               0               0   0.00024112574   4.7802404e-06   4.8990191e-06
  0.00038297165       0.5420316    8.440166e-06  -3.4606345e-22               0               0               0   0.00024115897   5.4336449e-06   5.5276721e-06
  0.00043270649      0.55239363   9.7250999e-06   6.9969501e-22               0               0               0   0.00024119675   6.1609638e-06   6.2352617e-06
  0.00048888965      0.56276168   1.1202736e-05   1.3826584e-21               0               0               0   0.00024123979   6.9724002e-06   7.0310494e-06
  0.00055235838      0.57314775   1.2902365e-05   5.0993166e-22               0               0               0   0.00024128892    7.878863e-06   7.9251425e-06
   0.0006240585      0.58356107   1.4857891e-05               0               0               0               0   0.00024134505   8.8919577e-06   8.9284819e-06
  0.00070505852      0.59400932   1.7108668e-05    2.432189e-22               0               0               0   0.00024140923   1.0023949e-05   1.0052791e-05
  0.00079656552       0.6044996   1.9700494e-05    4.864378e-22               0               0               0   0.00024148263   1.1287672e-05   1.1310472e-05
  0.00089994316      0.61503912   2.2686841e-05    2.432189e-22               0               0               0   0.00024156661   1.2696384e-05   1.2714432e-05
    0.001016732      0.62563585   2.6130352e-05               0               0               0               0   0.00024166265   1.4263516e-05    1.427783e-05
   0.0011486725      0.63629898   3.0104692e-05    1.000806e-21               0               0               0   0.00024177247   1.6002342e-05   1.6013719e-05
   0.0012977308      0.64703935   3.4696819e-05  -7.8121185e-22               0               0               0   0.00024189798   1.7925526e-05   1.7934593e-05
   0.0014661282      0.65786984   4.0009796e-05  -3.4516507e-21               0               0               0    0.0002420413   2.0044561e-05   2.0051811e-05
   0.0016563743      0.66880573   4.6166247e-05  -2.8032761e-21               0               0               0   0.00024220478    2.236911e-05    2.237493e-05
   0.0018713042      0.67986493   5.3312598e-05  -1.7384177e-21               0               0               0   0.00024239099   2.4906253e-05   2.4910946e-05
   0.0021141207      0.69106824   6.1624264e-05  -6.0477443e-22               0               0               0   0.00024260268   2.7659672e-05   2.7663475e-05
   0.0023884425      0.70243951   7.1311957e-05  -4.5754667e-22               0               0               0   0.00024284272   3.0628788e-05   3.0631887e-05
   0.0026983575      0.71400569   8.2629319e-05   1.1645184e-21               0               0               0   0.00024311403   3.3807855e-05   3.3810396e-05
   0.0030484842      0.72579687    9.588212e-05  -2.4173033e-21               0               0               0    0.0002434194   3.7184975e-05   3.7187074e-05
   0.0034440402      0.73784621   0.00011143929  -5.8359234e-21               0               0               0   0.00024376129   4.0740987e-05   4.0742734e-05
   0.0038909203      0.75018973   0.00012974605   -1.796555e-21               0               0               0    0.0002441415   4.4448122e-05   4.4449587e-05
    0.004395784      0.76286616   0.00015133916   3.8239092e-21               0               0               0   0.00024456064   4.8268339e-05    4.826958e-05
   0.0049661549      0.77591652   0.00017686507  -4.6081072e-21               0               0               0   0.00024501762   5.2151238e-05     5.21523e-05
   0.0056105328      0.78938366   0.00020710361  -1.5115913e-20               0               0               0   0.00024550929   5.6031471e-05    5.603239e-05
   0.0063385204      0.80331139   0.00024300234     5.66449e-21               0               0               0   0.00024602979     5.98256e-05   5.9826405e-05
   0.0071609664       0.8177432   0.00028570457    2.057066e-20               0               0               0   0.00024656347   6.3428374e-05   6.3429089e-05
   0.0080901272      0.83272006   0.00033636703   4.7958807e-20               0               0               0   0.00024708499   6.6708354e-05      6.6709e-05
   0.0091398493      0.84827697   0.00039661093   6.0614635e-20               0               0               0   0.00024756316   6.9502871e-05   6.9503465e-05
    0.010325776      0.86443724   0.00046840627   2.5777817e-20               0               0               0   0.00024795051   7.1612234e-05   7.1612793e-05
     0.01166558      0.88120322   0.00055357289     4.89972e-21               0               0               0   0.00024817961    7.279318e-05   7.2793721e-05
    0.013179228      0.89854137    0.0006541162   1.6397268e-20               0               0               0   0.00024815773   7.2751664e-05   7.2752205e-05
    0.014889277      0.91635773   0.00077200523   1.4082701e-20               0               0               0   0.00024775395   7.1135361e-05   7.1135928e-05
    0.016821209      0.93445707   0.00090853225   4.1579402e-20               0               0               0   0.00024679437   6.7526686e-05   6.7527318e-05
    0.019003816      0.95247329    0.0010631777   6.5192295e-20               0               0               0   0.00024505592   6.1437272e-05   6.1438047e-05
    0.021469624      0.96974859    0.0012315651   3.3532411e-20               0               0               0   0.00024229125   5.2297405e-05   5.2298524e-05
    0.024255377      0.98516106    0.0014048116   1.3879663e-20               0               0               0   0.00023836877    3.926172e-05   3.9264173e-05
    0.027402591      0.99661736     0.001542369   1.6455389e-21               0               0               0   0.00023278726   2.2518194e-05   2.2547601e-05
    0.030958166       1.0023364    0.0016046743               0               0               0               0   0.00022549849   8.2099172e-06   8.4026829e-06
    0.034975088        1.003762    0.0016139761               0               0               0               0   0.00021783925   2.2379515e-06   2.6685789e-06
    0.039513219       1.0038584    0.0016052589   1.9843206e-20               0               0               0   0.00021056972   1.4463116e-06   1.9799078e-06
    0.044640187       1.0038605    0.0015948037   2.8292153e-20               0               0               0    0.0002033562   1.4402543e-06   1.9753114e-06
    0.050432395       1.0038662    0.0015845229   6.9793606e-21               0               0               0   0.00019602135   1.4487398e-06   1.9817335e-06
    0.056976161        1.003871    0.0015722907   -1.469551e-21               0               0               0   0.00018864114   1.4555303e-06   1.9868751e-06
    0.064369002       1.0038733    0.0015595644               0               0               0               0   0.00018134836    1.461055e-06   1.9910605e-06
    0.072721087       1.0038715    0.0015451521               0               0               0               0   0.00017427817   1.4657487e-06   1.9946175e-06
    0.082156882       1.0038667    0.0015300228               0               0               0               0   0.00016753018   1.4697767e-06   1.9976711e-06
    0.092817002       1.0038593    0.0015136141               0               0               0               0   0.00016119285    1.474008e-06   2.0008799e-06
