/*--------------------------------*- C++ -*----------------------------------*\
  =========                 |
  \\      /  F ield         | OpenFOAM: The Open Source CFD Toolbox
   \\    /   O peration     | Website:  https://openfoam.org
    \\  /    A nd           | Version:  12
     \\/     M anipulation  |
\*---------------------------------------------------------------------------*/
FoamFile
{
    format      ascii;
    class       volScalarField;
    location    "1500";
    object      nut;
}
// * * * * * * * * * * * * * * * * * * * * * * * * * * * * * * * * * * * * * //

dimensions      [0 2 -1 0 0 0 0];

internalField   nonuniform List<scalar> 
7480
(
1.0928073e-06
7.3020049e-07
5.7182185e-07
5.3628459e-07
5.6205454e-07
6.3662398e-07
7.6835555e-07
9.7367376e-07
1.2746914e-06
1.6951056e-06
2.2545186e-06
2.9689253e-06
3.8437255e-06
4.8383875e-06
5.8325411e-06
6.6697427e-06
7.2511238e-06
7.5701462e-06
7.7063761e-06
7.6765458e-06
7.5848228e-06
7.4555432e-06
7.3088666e-06
7.1662122e-06
7.0579162e-06
6.9897549e-06
6.9533082e-06
6.937667e-06
6.9351107e-06
6.9413335e-06
6.9525451e-06
6.9651436e-06
6.9772064e-06
6.9556388e-06
6.9189411e-06
6.8825175e-06
6.8508269e-06
6.8247055e-06
6.803092e-06
6.7841617e-06
6.7663495e-06
6.7488439e-06
6.7314471e-06
6.7146227e-06
6.7011475e-06
6.6984745e-06
6.734822e-06
6.8770709e-06
7.228288e-06
7.8068158e-06
8.339645e-06
8.6826313e-06
8.9492136e-06
9.146429e-06
9.2773703e-06
9.3600034e-06
9.4139503e-06
9.4530178e-06
9.4834769e-06
9.508952e-06
9.531001e-06
9.5503863e-06
9.5677375e-06
9.5836774e-06
9.5985817e-06
9.6127822e-06
9.6266705e-06
9.6404686e-06
9.6542676e-06
9.6681605e-06
9.6822712e-06
9.6967346e-06
9.7116788e-06
9.727223e-06
9.7434817e-06
9.760566e-06
9.7785831e-06
9.7976376e-06
9.8178265e-06
9.839236e-06
9.8619399e-06
9.885983e-06
9.911287e-06
9.936878e-06
9.9510585e-06
9.703979e-06
4.2981283e-06
4.0041087e-06
4.029938e-06
4.0472775e-06
4.0577547e-06
4.0657737e-06
4.0712345e-06
4.0746619e-06
4.0765887e-06
4.0774115e-06
4.0773631e-06
4.0766802e-06
4.0754215e-06
4.0712808e-06
1.4024162e-06
1.3353152e-06
1.2618801e-06
1.1888122e-06
1.1183829e-06
1.0524155e-06
9.9033569e-07
9.4197276e-07
8.9442243e-07
9.0955971e-07
9.5823038e-07
1.0503692e-06
1.2007138e-06
1.4311346e-06
1.7617157e-06
2.1977781e-06
2.74873e-06
3.3832586e-06
4.0848326e-06
4.8511733e-06
5.6779546e-06
6.4676531e-06
7.1929917e-06
7.8586706e-06
8.4623434e-06
9.0045003e-06
9.4891717e-06
9.9230166e-06
1.0317939e-05
1.0685915e-05
1.1030265e-05
1.1350952e-05
1.164432e-05
1.1904664e-05
1.2135004e-05
1.2344638e-05
1.2543479e-05
1.2745747e-05
1.2956498e-05
1.3174617e-05
1.3396953e-05
1.3620982e-05
1.384468e-05
1.4065683e-05
1.4285068e-05
1.4485951e-05
1.467865e-05
1.4891861e-05
1.5170724e-05
1.5542909e-05
1.5949711e-05
1.6319441e-05
1.663787e-05
1.6904193e-05
1.712824e-05
1.7320779e-05
1.7490756e-05
1.7646105e-05
1.7792544e-05
1.7934074e-05
1.8070953e-05
1.8202824e-05
1.8329939e-05
1.8453129e-05
1.857262e-05
1.8688972e-05
1.8803197e-05
1.8915721e-05
1.9026572e-05
1.9135835e-05
1.9243723e-05
1.9350502e-05
1.9456433e-05
1.9561759e-05
1.9666711e-05
1.9771513e-05
1.9876376e-05
1.9981504e-05
2.0087084e-05
2.0193282e-05
2.0300241e-05
2.0408046e-05
2.0516537e-05
2.0623835e-05
2.0707869e-05
2.0527865e-05
1.7373029e-05
1.5971912e-05
1.4918068e-05
1.4262042e-05
1.3827337e-05
1.353309e-05
1.3325695e-05
1.3175667e-05
1.3064628e-05
1.2980826e-05
1.2916206e-05
1.2865661e-05
1.2825094e-05
1.2791659e-05
1.4349902e-06
1.41154e-06
1.3854882e-06
1.3581447e-06
1.3298851e-06
1.3001632e-06
1.2687161e-06
1.2354944e-06
1.2004428e-06
1.1659464e-06
1.1331878e-06
1.1035498e-06
1.0788616e-06
1.0609418e-06
1.0440845e-06
1.0462587e-06
1.0624721e-06
1.1213534e-06
1.2340806e-06
1.4132243e-06
1.6756866e-06
2.0376262e-06
2.501669e-06
3.0877191e-06
3.7649729e-06
4.5267349e-06
5.3863996e-06
6.2941281e-06
7.211992e-06
8.1120183e-06
8.9712237e-06
9.7709385e-06
1.0485854e-05
1.1131855e-05
1.1738689e-05
1.2325341e-05
1.2894528e-05
1.3445334e-05
1.3972629e-05
1.4479662e-05
1.4970415e-05
1.5448628e-05
1.5914889e-05
1.636755e-05
1.6807044e-05
1.7230639e-05
1.7636853e-05
1.8029041e-05
1.8426451e-05
1.8840585e-05
1.9265271e-05
1.968846e-05
2.0093299e-05
2.0475831e-05
2.0838449e-05
2.118228e-05
2.1507967e-05
2.1820054e-05
2.2124153e-05
2.242373e-05
2.2715765e-05
2.2999112e-05
2.3273999e-05
2.3541455e-05
2.380102e-05
2.4053721e-05
2.4301144e-05
2.454346e-05
2.4780416e-05
2.5012021e-05
2.5238486e-05
2.5460075e-05
2.5677046e-05
2.5889635e-05
2.6098066e-05
2.6302557e-05
2.6503319e-05
2.670056e-05
2.6894484e-05
2.7085278e-05
2.7273128e-05
2.7458183e-05
2.7640411e-05
2.7818705e-05
2.797938e-05
2.799877e-05
2.686826e-05
2.6273662e-05
2.58211e-05
2.5545159e-05
2.5377918e-05
2.5283197e-05
2.5232107e-05
2.5207449e-05
2.5198556e-05
2.5199415e-05
2.5204324e-05
2.521534e-05
2.521561e-05
2.5249661e-05
1.4446623e-06
1.4328905e-06
1.4200386e-06
1.4065833e-06
1.3926302e-06
1.378182e-06
1.3632377e-06
1.347655e-06
1.3313927e-06
1.314247e-06
1.2961345e-06
1.2769583e-06
1.2567134e-06
1.2357149e-06
1.2147807e-06
1.194386e-06
1.1747663e-06
1.1567517e-06
1.142171e-06
1.1318388e-06
1.1262118e-06
1.1306913e-06
1.1468091e-06
1.1885013e-06
1.2787839e-06
1.4317094e-06
1.6675826e-06
2.0065733e-06
2.463206e-06
3.0637445e-06
3.8029901e-06
4.6601594e-06
5.6346122e-06
6.6728237e-06
7.7277483e-06
8.7654201e-06
9.7636962e-06
1.0711904e-05
1.1610247e-05
1.246513e-05
1.3285358e-05
1.4079968e-05
1.4844743e-05
1.5579521e-05
1.6301319e-05
1.7012171e-05
1.7700712e-05
1.8364511e-05
1.9009486e-05
1.9640396e-05
2.0259368e-05
2.0865684e-05
2.1458476e-05
2.2035944e-05
2.2595878e-05
2.3136781e-05
2.3658232e-05
2.4169611e-05
2.4674964e-05
2.5175191e-05
2.5660587e-05
2.6132727e-05
2.6592728e-05
2.7041902e-05
2.747827e-05
2.7904876e-05
2.8323457e-05
2.8733188e-05
2.9133676e-05
2.9525054e-05
2.990758e-05
3.0281507e-05
3.0647057e-05
3.1004429e-05
3.13538e-05
3.1695338e-05
3.2029195e-05
3.2355519e-05
3.267445e-05
3.2986117e-05
3.3290652e-05
3.3588169e-05
3.3878687e-05
3.4161906e-05
3.4432314e-05
3.4648852e-05
3.4505166e-05
3.4473107e-05
3.4462152e-05
3.4502599e-05
3.4582915e-05
3.4693706e-05
3.4823021e-05
3.4961974e-05
3.5104332e-05
3.5247259e-05
3.5385216e-05
3.5527943e-05
3.5633995e-05
3.5847008e-05
1.4494701e-06
1.4424709e-06
1.4349128e-06
1.4270195e-06
1.4188369e-06
1.4103677e-06
1.401607e-06
1.3925444e-06
1.3831702e-06
1.3734615e-06
1.3633882e-06
1.3529114e-06
1.3419883e-06
1.3305671e-06
1.3186649e-06
1.306249e-06
1.2933383e-06
1.2798012e-06
1.2655953e-06
1.2510208e-06
1.2365452e-06
1.2224405e-06
1.2089655e-06
1.196773e-06
1.1878634e-06
1.1795155e-06
1.1807038e-06
1.1879675e-06
1.2103118e-06
1.2535277e-06
1.3497379e-06
1.520503e-06
1.7930867e-06
2.1945273e-06
2.7436677e-06
3.4813884e-06
4.3668457e-06
5.3890711e-06
6.5244472e-06
7.7156195e-06
8.91716e-06
1.009548e-05
1.1231181e-05
1.2318702e-05
1.3364134e-05
1.4378899e-05
1.5369155e-05
1.6333876e-05
1.7271581e-05
1.8182882e-05
1.9070547e-05
1.993214e-05
2.0779191e-05
2.1605653e-05
2.2411706e-05
2.3197469e-05
2.3962522e-05
2.4710137e-05
2.5443452e-05
2.6165021e-05
2.6871959e-05
2.7563569e-05
2.8239926e-05
2.8902177e-05
2.9544786e-05
3.0178169e-05
3.0801061e-05
3.1410458e-05
3.200689e-05
3.2590885e-05
3.3162794e-05
3.3722894e-05
3.4271422e-05
3.4808593e-05
3.5334596e-05
3.5849604e-05
3.6353772e-05
3.6847243e-05
3.733015e-05
3.7802613e-05
3.8264753e-05
3.8716682e-05
3.9158447e-05
3.9590122e-05
4.0009874e-05
4.0407474e-05
4.0701166e-05
4.1005225e-05
4.1293339e-05
4.1580762e-05
4.1872934e-05
4.2172141e-05
4.2475617e-05
4.2779511e-05
4.3080093e-05
4.3376298e-05
4.366179e-05
4.3953491e-05
4.4181913e-05
4.4608893e-05
1.4525268e-06
1.447952e-06
1.4430431e-06
1.4379234e-06
1.4326173e-06
1.427125e-06
1.4214412e-06
1.4155594e-06
1.4094735e-06
1.4031769e-06
1.3966635e-06
1.389927e-06
1.3829613e-06
1.3757589e-06
1.3683106e-06
1.3606032e-06
1.3526236e-06
1.3443514e-06
1.3357561e-06
1.3268068e-06
1.3174931e-06
1.3077804e-06
1.2977244e-06
1.2869829e-06
1.2758621e-06
1.2645809e-06
1.2535083e-06
1.2428709e-06
1.2328911e-06
1.2250784e-06
1.2167996e-06
1.2170313e-06
1.2218008e-06
1.2381577e-06
1.2749082e-06
1.3497463e-06
1.5001011e-06
1.7569841e-06
2.1567813e-06
2.7256741e-06
3.5218206e-06
4.4996709e-06
5.6449343e-06
6.9238018e-06
8.2700636e-06
9.6297593e-06
1.0965466e-05
1.2259984e-05
1.3512485e-05
1.4729527e-05
1.5917257e-05
1.7076907e-05
1.8208868e-05
1.9314537e-05
2.0395238e-05
2.1452268e-05
2.2485605e-05
2.3495779e-05
2.4484824e-05
2.5455506e-05
2.6408279e-05
2.7342883e-05
2.8259161e-05
2.9157941e-05
3.0036702e-05
3.0899358e-05
3.1747004e-05
3.2578951e-05
3.3395108e-05
3.4195773e-05
3.4981296e-05
3.5751993e-05
3.6508144e-05
3.7250006e-05
3.7977809e-05
3.8691762e-05
3.9392052e-05
4.0078851e-05
4.0752316e-05
4.1412588e-05
4.2059806e-05
4.2694099e-05
4.3315546e-05
4.3924353e-05
4.4520089e-05
4.5101783e-05
4.5653307e-05
4.6195529e-05
4.6714854e-05
4.7215346e-05
4.7704074e-05
4.8186905e-05
4.8665484e-05
4.9138962e-05
4.9605135e-05
5.0064064e-05
5.0508205e-05
5.0961499e-05
5.1324124e-05
5.1990181e-05
1.4547704e-06
1.451579e-06
1.4481733e-06
1.4446265e-06
1.4409526e-06
1.4371512e-06
1.4332185e-06
1.4291498e-06
1.4249402e-06
1.4205848e-06
1.4160789e-06
1.4114181e-06
1.4065987e-06
1.4016176e-06
1.3964718e-06
1.3911578e-06
1.3856712e-06
1.3800062e-06
1.374156e-06
1.3681111e-06
1.3618598e-06
1.3553877e-06
1.3486838e-06
1.3417231e-06
1.3344764e-06
1.3269384e-06
1.3190824e-06
1.3109083e-06
1.3023839e-06
1.2935055e-06
1.2842545e-06
1.2751208e-06
1.2663235e-06
1.2580338e-06
1.2516276e-06
1.2451282e-06
1.24575e-06
1.2511419e-06
1.2687808e-06
1.3090534e-06
1.3896601e-06
1.5588427e-06
1.8576093e-06
2.3300815e-06
3.0215354e-06
3.9722155e-06
5.1362174e-06
6.493774e-06
7.9702988e-06
9.4943959e-06
1.101032e-05
1.2488174e-05
1.3923023e-05
1.5322494e-05
1.6693711e-05
1.8038589e-05
1.9356106e-05
2.0646032e-05
2.1909988e-05
2.3150263e-05
2.4368085e-05
2.5563982e-05
2.6738325e-05
2.7891867e-05
2.9023824e-05
3.0135106e-05
3.12271e-05
3.2300306e-05
3.3354845e-05
3.4390954e-05
3.5408967e-05
3.640922e-05
3.739204e-05
3.8357731e-05
3.9306572e-05
4.0238816e-05
4.1154695e-05
4.2054421e-05
4.2938186e-05
4.3806168e-05
4.4658535e-05
4.549544e-05
4.6316998e-05
4.712344e-05
4.7914827e-05
4.8692125e-05
4.9456077e-05
5.0207714e-05
5.0937398e-05
5.1643196e-05
5.2329489e-05
5.3002086e-05
5.3664442e-05
5.4317558e-05
5.4960339e-05
5.5593774e-05
5.6209017e-05
5.6837128e-05
5.7346049e-05
5.8274433e-05
1.4565701e-06
1.4542381e-06
1.4517608e-06
1.449184e-06
1.4465164e-06
1.4437574e-06
1.4409042e-06
1.4379536e-06
1.4349021e-06
1.4317463e-06
1.4284826e-06
1.4251077e-06
1.4216185e-06
1.4180122e-06
1.4142864e-06
1.4104381e-06
1.4064643e-06
1.4023612e-06
1.3981245e-06
1.393749e-06
1.3892294e-06
1.38456e-06
1.3797347e-06
1.3747476e-06
1.3695915e-06
1.3642583e-06
1.3587376e-06
1.3530179e-06
1.3470874e-06
1.3409244e-06
1.3345202e-06
1.3278456e-06
1.3208976e-06
1.3136571e-06
1.3061009e-06
1.298237e-06
1.2905066e-06
1.2830877e-06
1.2763968e-06
1.2714359e-06
1.267768e-06
1.2698835e-06
1.2790689e-06
1.3055141e-06
1.362079e-06
1.4861329e-06
1.7315841e-06
2.1580006e-06
2.8154645e-06
3.7877085e-06
5.0186723e-06
6.4813973e-06
8.10016e-06
9.7849527e-06
1.1467217e-05
1.3113223e-05
1.4719223e-05
1.6293331e-05
1.7840965e-05
1.9362479e-05
2.0857356e-05
2.2326668e-05
2.377179e-05
2.5193417e-05
2.6591255e-05
2.7965514e-05
2.931711e-05
3.0646748e-05
3.195482e-05
3.3241679e-05
3.4507667e-05
3.5753114e-05
3.6978367e-05
3.8183761e-05
3.9369604e-05
4.0536187e-05
4.1683779e-05
4.2812626e-05
4.3922958e-05
4.5014986e-05
4.6088908e-05
4.7144903e-05
4.8183116e-05
4.9203769e-05
5.0207088e-05
5.1193921e-05
5.2167983e-05
5.3128451e-05
5.4068686e-05
5.4984384e-05
5.5876881e-05
5.675049e-05
5.760902e-05
5.8454562e-05
5.9286901e-05
6.0107914e-05
6.0907503e-05
6.1724055e-05
6.2391667e-05
6.3604562e-05
1.4581155e-06
1.4563512e-06
1.454484e-06
1.4525437e-06
1.450536e-06
1.4484602e-06
1.4463144e-06
1.4440961e-06
1.4418028e-06
1.4394321e-06
1.4369812e-06
1.4344479e-06
1.4318297e-06
1.4291244e-06
1.4263299e-06
1.423444e-06
1.4204643e-06
1.4173876e-06
1.4142107e-06
1.4109298e-06
1.4075408e-06
1.4040397e-06
1.4004222e-06
1.3966841e-06
1.392821e-06
1.3888285e-06
1.3847021e-06
1.3804369e-06
1.3760278e-06
1.3714687e-06
1.366754e-06
1.3618746e-06
1.35682e-06
1.3515798e-06
1.3461337e-06
1.3404738e-06
1.33457e-06
1.3284477e-06
1.3219563e-06
1.315231e-06
1.3084194e-06
1.3018273e-06
1.2955849e-06
1.2907047e-06
1.2863513e-06
1.2874952e-06
1.2940659e-06
1.3150323e-06
1.3648772e-06
1.4733677e-06
1.710857e-06
2.1483807e-06
2.8503859e-06
3.9160223e-06
5.2828671e-06
6.9146793e-06
8.7108997e-06
1.0567873e-05
1.2413238e-05
1.4219764e-05
1.5990774e-05
1.7735611e-05
1.9456914e-05
2.1153168e-05
2.282375e-05
2.4469332e-05
2.6090424e-05
2.768722e-05
2.9260119e-05
3.080958e-05
3.2335876e-05
3.3839255e-05
3.5320033e-05
3.6778514e-05
3.8214979e-05
3.9629716e-05
4.1022998e-05
4.2395078e-05
4.37462e-05
4.5076595e-05
4.6386474e-05
4.7676028e-05
4.8945424e-05
5.0194861e-05
5.1424607e-05
5.263502e-05
5.3829361e-05
5.5008094e-05
5.6167281e-05
5.7302352e-05
5.8412421e-05
5.9499941e-05
6.0568242e-05
6.1619908e-05
6.2655393e-05
6.3677435e-05
6.4674771e-05
6.569333e-05
6.653201e-05
6.8050643e-05
1.4595159e-06
1.4581445e-06
1.4566975e-06
1.4551951e-06
1.4536411e-06
1.4520349e-06
1.4503749e-06
1.4486595e-06
1.4468866e-06
1.4450544e-06
1.443161e-06
1.4412044e-06
1.4391829e-06
1.4370948e-06
1.4349384e-06
1.4327118e-06
1.4304132e-06
1.4280401e-06
1.4255902e-06
1.4230605e-06
1.420448e-06
1.4177495e-06
1.4149619e-06
1.4120817e-06
1.4091057e-06
1.4060304e-06
1.4028523e-06
1.3995679e-06
1.3961736e-06
1.3926654e-06
1.3890396e-06
1.3852917e-06
1.3814174e-06
1.3774117e-06
1.3732689e-06
1.3689839e-06
1.3645478e-06
1.3599534e-06
1.3551851e-06
1.3502249e-06
1.3450653e-06
1.3396929e-06
1.3341024e-06
1.3282472e-06
1.3221746e-06
1.3162648e-06
1.310637e-06
1.3061495e-06
1.3022396e-06
1.3033384e-06
1.3099321e-06
1.3314588e-06
1.3848961e-06
1.507036e-06
1.782893e-06
2.2979311e-06
3.1456653e-06
4.4009245e-06
5.9974154e-06
7.8640577e-06
9.8691933e-06
1.19026e-05
1.3906841e-05
1.5873671e-05
1.7813169e-05
1.9730265e-05
2.1623317e-05
2.3491102e-05
2.5334308e-05
2.7153329e-05
2.8947948e-05
3.0718196e-05
3.2464281e-05
3.4186312e-05
3.5884426e-05
3.7558826e-05
3.92097e-05
4.0837242e-05
4.2441658e-05
4.4023149e-05
4.5581899e-05
4.7118077e-05
4.8631844e-05
5.0123359e-05
5.1592873e-05
5.3040297e-05
5.4467942e-05
5.587738e-05
5.7266795e-05
5.8632385e-05
5.9972032e-05
6.1286504e-05
6.2578214e-05
6.3849759e-05
6.5102015e-05
6.6338506e-05
6.7546875e-05
6.8780779e-05
6.9802757e-05
7.1647577e-05
1.4608321e-06
1.4597426e-06
1.458596e-06
1.4574064e-06
1.4561762e-06
1.454905e-06
1.4535916e-06
1.4522346e-06
1.4508326e-06
1.449384e-06
1.4478875e-06
1.4463415e-06
1.4447446e-06
1.4430954e-06
1.4413926e-06
1.4396348e-06
1.4378204e-06
1.4359475e-06
1.4340143e-06
1.4320185e-06
1.4299578e-06
1.4278297e-06
1.4256319e-06
1.4233617e-06
1.4210164e-06
1.4185935e-06
1.4160902e-06
1.4135037e-06
1.4108311e-06
1.4080694e-06
1.4052155e-06
1.402266e-06
1.3992176e-06
1.3960666e-06
1.3928096e-06
1.3894426e-06
1.3859619e-06
1.3823634e-06
1.378643e-06
1.3747956e-06
1.370815e-06
1.3666928e-06
1.362421e-06
1.3579827e-06
1.3533676e-06
1.3485575e-06
1.3435528e-06
1.3382942e-06
1.3328325e-06
1.3275228e-06
1.3225233e-06
1.3185668e-06
1.3158677e-06
1.3177784e-06
1.3268689e-06
1.3554768e-06
1.4258551e-06
1.5996498e-06
1.9822857e-06
2.6683169e-06
3.8238011e-06
5.3880594e-06
7.3068588e-06
9.4431357e-06
1.1652982e-05
1.3848106e-05
1.6006651e-05
1.8137984e-05
2.0248687e-05
2.2337056e-05
2.4401228e-05
2.6441428e-05
2.8457623e-05
3.0449307e-05
3.2416318e-05
3.4358635e-05
3.6276178e-05
3.8168954e-05
4.0037027e-05
4.1880464e-05
4.3699339e-05
4.5493728e-05
4.7263731e-05
4.9009428e-05
5.0730993e-05
5.2427959e-05
5.41019e-05
5.5754912e-05
5.7386594e-05
5.8994257e-05
6.0575365e-05
6.2129412e-05
6.365775e-05
6.5162621e-05
6.6645057e-05
6.8109234e-05
6.9541735e-05
7.1004077e-05
7.2221426e-05
7.4412296e-05
1.4620875e-06
1.4612065e-06
1.4602814e-06
1.4593221e-06
1.4583303e-06
1.4573057e-06
1.4562472e-06
1.4551539e-06
1.4540244e-06
1.4528578e-06
1.4516528e-06
1.4504082e-06
1.4491229e-06
1.4477959e-06
1.446426e-06
1.445012e-06
1.4435527e-06
1.4420466e-06
1.4404921e-06
1.4388877e-06
1.4372313e-06
1.4355212e-06
1.4337553e-06
1.4319317e-06
1.4300483e-06
1.4281029e-06
1.4260935e-06
1.4240178e-06
1.4218735e-06
1.4196582e-06
1.4173694e-06
1.4150046e-06
1.4125609e-06
1.4100356e-06
1.4074258e-06
1.4047284e-06
1.4019404e-06
1.3990588e-06
1.3960803e-06
1.3930016e-06
1.3898194e-06
1.3865298e-06
1.3831288e-06
1.3796117e-06
1.3759737e-06
1.3722069e-06
1.368304e-06
1.3642489e-06
1.3600311e-06
1.3556327e-06
1.3510577e-06
1.3462367e-06
1.3413115e-06
1.3364896e-06
1.3324233e-06
1.3281523e-06
1.3284372e-06
1.3326709e-06
1.3487772e-06
1.3957645e-06
1.5113283e-06
1.8092365e-06
2.4082468e-06
3.4642134e-06
5.0305494e-06
7.0258533e-06
9.3088938e-06
1.1701763e-05
1.4089354e-05
1.6440408e-05
1.8764882e-05
2.107016e-05
2.3354157e-05
2.5614855e-05
2.7852211e-05
3.0065727e-05
3.2254677e-05
3.4418734e-05
3.6557631e-05
3.8671107e-05
4.075898e-05
4.2821109e-05
4.4857432e-05
4.686787e-05
4.8852429e-05
5.0810269e-05
5.2742495e-05
5.4651345e-05
5.653716e-05
5.8398295e-05
6.023233e-05
6.2037955e-05
6.3815522e-05
6.5566679e-05
6.7292353e-05
6.8997197e-05
7.0666713e-05
7.2370357e-05
7.3795026e-05
7.635135e-05
1.4632826e-06
1.4625598e-06
1.4618021e-06
1.4610169e-06
1.4602053e-06
1.4593669e-06
1.458501e-06
1.4576066e-06
1.4566829e-06
1.4557289e-06
1.4547438e-06
1.4537265e-06
1.4526761e-06
1.4515918e-06
1.4504726e-06
1.4493175e-06
1.4481255e-06
1.4468955e-06
1.4456262e-06
1.4443162e-06
1.4429641e-06
1.4415683e-06
1.4401272e-06
1.4386394e-06
1.437103e-06
1.4355164e-06
1.4338779e-06
1.4321857e-06
1.430438e-06
1.4286328e-06
1.4267681e-06
1.4248418e-06
1.4228519e-06
1.4207959e-06
1.4186716e-06
1.4164765e-06
1.4142082e-06
1.4118643e-06
1.4094419e-06
1.4069386e-06
1.4043515e-06
1.4016776e-06
1.3989138e-06
1.3960571e-06
1.393104e-06
1.3900509e-06
1.3868942e-06
1.3836294e-06
1.380252e-06
1.3767545e-06
1.3731304e-06
1.3693637e-06
1.3654448e-06
1.3613591e-06
1.3570892e-06
1.3525309e-06
1.3480758e-06
1.3438673e-06
1.3404436e-06
1.3384331e-06
1.3406032e-06
1.3512571e-06
1.3858891e-06
1.4775217e-06
1.7290986e-06
2.2851831e-06
3.3166956e-06
4.9397212e-06
7.0586427e-06
9.5147463e-06
1.2099179e-05
1.4679362e-05
1.7223165e-05
1.9742735e-05
2.2244464e-05
2.4725473e-05
2.7184031e-05
2.9619813e-05
3.2031841e-05
3.441921e-05
3.6781306e-05
3.9117563e-05
4.1427592e-05
4.3711025e-05
4.5967547e-05
4.8195861e-05
5.0396772e-05
5.2572463e-05
5.4723471e-05
5.6848901e-05
5.8946688e-05
6.1015128e-05
6.3053752e-05
6.5063505e-05
6.7044991e-05
6.9003125e-05
7.0922273e-05
7.2879854e-05
7.4523633e-05
7.7464413e-05
1.4644132e-06
1.4638128e-06
1.4631846e-06
1.4625338e-06
1.4618613e-06
1.4611666e-06
1.4604492e-06
1.4597083e-06
1.4589433e-06
1.4581533e-06
1.4573376e-06
1.4564954e-06
1.455626e-06
1.4547285e-06
1.4538024e-06
1.4528466e-06
1.4518605e-06
1.4508429e-06
1.449793e-06
1.4487095e-06
1.4475913e-06
1.4464372e-06
1.4452459e-06
1.444016e-06
1.4427463e-06
1.4414353e-06
1.4400817e-06
1.4386839e-06
1.4372406e-06
1.43575e-06
1.4342106e-06
1.4326207e-06
1.4309785e-06
1.4292823e-06
1.42753e-06
1.4257197e-06
1.4238495e-06
1.4219172e-06
1.4199209e-06
1.4178582e-06
1.4157269e-06
1.4135245e-06
1.4112486e-06
1.4088966e-06
1.4064656e-06
1.4039528e-06
1.4013553e-06
1.39867e-06
1.3958937e-06
1.3930233e-06
1.3900551e-06
1.3869854e-06
1.3838096e-06
1.3805216e-06
1.3771099e-06
1.3735637e-06
1.3698608e-06
1.3660109e-06
1.3619327e-06
1.3577785e-06
1.3537632e-06
1.3504029e-06
1.3477816e-06
1.3492113e-06
1.3575731e-06
1.3867643e-06
1.4692445e-06
1.7088457e-06
2.2732454e-06
3.3649459e-06
5.1204124e-06
7.430172e-06
1.0097421e-05
1.2885034e-05
1.5658886e-05
1.8397453e-05
2.111556e-05
2.3816671e-05
2.6497348e-05
2.9156226e-05
3.1792335e-05
3.4404349e-05
3.6991378e-05
3.9552547e-05
4.2086994e-05
4.459278e-05
4.7070446e-05
4.9522012e-05
5.1947788e-05
5.4347222e-05
5.671859e-05
5.9060069e-05
6.1370586e-05
6.3650373e-05
6.5899549e-05
6.8123075e-05
7.030408e-05
7.2527898e-05
7.4402331e-05
7.7747269e-05
1.4654795e-06
1.4649756e-06
1.4644492e-06
1.463904e-06
1.4633407e-06
1.4627589e-06
1.4621581e-06
1.4615378e-06
1.4608973e-06
1.460236e-06
1.4595532e-06
1.4588484e-06
1.4581208e-06
1.45737e-06
1.4565951e-06
1.4557956e-06
1.4549707e-06
1.4541196e-06
1.4532416e-06
1.4523355e-06
1.4514006e-06
1.4504358e-06
1.4494399e-06
1.448412e-06
1.447351e-06
1.4462556e-06
1.4451248e-06
1.4439573e-06
1.4427519e-06
1.4415072e-06
1.4402221e-06
1.438895e-06
1.4375245e-06
1.436109e-06
1.4346472e-06
1.4331372e-06
1.4315776e-06
1.4299665e-06
1.4283023e-06
1.4265832e-06
1.4248072e-06
1.4229724e-06
1.4210767e-06
1.4191179e-06
1.4170939e-06
1.4150022e-06
1.4128404e-06
1.410606e-06
1.4082963e-06
1.4059086e-06
1.4034403e-06
1.4008886e-06
1.3982507e-06
1.3955236e-06
1.3927033e-06
1.3897868e-06
1.3867672e-06
1.3836385e-06
1.3803864e-06
1.3769977e-06
1.3734725e-06
1.369737e-06
1.365862e-06
1.3620931e-06
1.3589059e-06
1.3562496e-06
1.357482e-06
1.365347e-06
1.3940442e-06
1.4790932e-06
1.7414481e-06
2.3722806e-06
3.629887e-06
5.6119256e-06
8.1892801e-06
1.1101993e-05
1.4098841e-05
1.7067626e-05
2.0005434e-05
2.2926093e-05
2.5829121e-05
2.8711849e-05
3.1573308e-05
3.4411831e-05
3.7225687e-05
4.0012073e-05
4.2771154e-05
4.550469e-05
4.8212421e-05
5.0893687e-05
5.354689e-05
5.6170177e-05
5.8762059e-05
6.1322104e-05
6.3849837e-05
6.6350056e-05
6.8804526e-05
7.1306398e-05
7.3422663e-05
7.7190865e-05
1.4664855e-06
1.4660587e-06
1.4656134e-06
1.4651525e-06
1.4646763e-06
1.4641845e-06
1.4636767e-06
1.4631524e-06
1.4626111e-06
1.4620523e-06
1.4614754e-06
1.46088e-06
1.4602654e-06
1.4596312e-06
1.4589768e-06
1.4583016e-06
1.4576051e-06
1.4568865e-06
1.4561451e-06
1.4553803e-06
1.4545911e-06
1.4537767e-06
1.4529363e-06
1.452069e-06
1.4511738e-06
1.4502497e-06
1.4492959e-06
1.4483113e-06
1.4472948e-06
1.4462455e-06
1.4451621e-06
1.4440435e-06
1.4428886e-06
1.441696e-06
1.4404644e-06
1.4391926e-06
1.4378791e-06
1.4365226e-06
1.4351216e-06
1.4336745e-06
1.4321799e-06
1.4306361e-06
1.4290414e-06
1.4273939e-06
1.4256919e-06
1.4239333e-06
1.4221162e-06
1.4202384e-06
1.4182977e-06
1.416292e-06
1.4142189e-06
1.4120762e-06
1.4098615e-06
1.4075722e-06
1.4052055e-06
1.4027586e-06
1.4002286e-06
1.3976121e-06
1.394906e-06
1.3921053e-06
1.3892052e-06
1.3861925e-06
1.3830548e-06
1.3797884e-06
1.3763262e-06
1.3727103e-06
1.3691968e-06
1.3662117e-06
1.3638785e-06
1.3653247e-06
1.3743063e-06
1.4080476e-06
1.5093607e-06
1.8403345e-06
2.6122509e-06
4.1900569e-06
6.5087482e-06
9.4111002e-06
1.2579464e-05
1.5778028e-05
1.8941116e-05
2.2082613e-05
2.5209628e-05
2.8318591e-05
3.1407204e-05
3.4471874e-05
3.7512176e-05
4.0529531e-05
4.3522813e-05
4.6490784e-05
4.9431609e-05
5.2343317e-05
5.5224087e-05
5.8072877e-05
6.0888549e-05
6.3675546e-05
6.6414116e-05
6.9205078e-05
7.1573803e-05
7.5782503e-05
1.467439e-06
1.4670747e-06
1.466695e-06
1.4663021e-06
1.4658962e-06
1.4654771e-06
1.4650444e-06
1.4645976e-06
1.4641364e-06
1.4636603e-06
1.4631688e-06
1.4626616e-06
1.4621382e-06
1.4615981e-06
1.4610408e-06
1.4604658e-06
1.4598727e-06
1.4592609e-06
1.4586298e-06
1.4579787e-06
1.4573069e-06
1.4566138e-06
1.4558986e-06
1.4551606e-06
1.4543989e-06
1.4536128e-06
1.4528015e-06
1.4519641e-06
1.4510997e-06
1.4502074e-06
1.4492864e-06
1.4483356e-06
1.4473539e-06
1.4463404e-06
1.445294e-06
1.4442135e-06
1.4430979e-06
1.4419458e-06
1.4407561e-06
1.4395276e-06
1.4382589e-06
1.4369486e-06
1.4355953e-06
1.4341976e-06
1.4327538e-06
1.4312623e-06
1.4297214e-06
1.4281294e-06
1.4264845e-06
1.4247848e-06
1.4230284e-06
1.4212133e-06
1.4193376e-06
1.4173991e-06
1.4153955e-06
1.4133243e-06
1.411183e-06
1.4089692e-06
1.4066801e-06
1.4043132e-06
1.4018655e-06
1.3993341e-06
1.3967148e-06
1.3940031e-06
1.3911869e-06
1.3882534e-06
1.3851993e-06
1.3819566e-06
1.3785778e-06
1.3753228e-06
1.3725466e-06
1.3709327e-06
1.3730991e-06
1.3853963e-06
1.4299109e-06
1.5730287e-06
2.0394694e-06
3.1009199e-06
5.0835059e-06
7.8517699e-06
1.1122272e-05
1.4544164e-05
1.7945098e-05
2.1313822e-05
2.4666731e-05
2.8001231e-05
3.1316317e-05
3.4613665e-05
3.7891052e-05
4.1146256e-05
4.4376791e-05
4.7580338e-05
5.0754706e-05
5.3898243e-05
5.7009081e-05
6.0091127e-05
6.3122937e-05
6.6212806e-05
6.8843671e-05
7.3509408e-05
1.4683515e-06
1.4680383e-06
1.4677122e-06
1.4673749e-06
1.4670264e-06
1.4666666e-06
1.4662951e-06
1.4659116e-06
1.4655157e-06
1.4651071e-06
1.4646853e-06
1.46425e-06
1.4638009e-06
1.4633375e-06
1.4628593e-06
1.4623661e-06
1.4618573e-06
1.4613325e-06
1.4607912e-06
1.4602328e-06
1.4596567e-06
1.4590623e-06
1.4584491e-06
1.4578164e-06
1.4571635e-06
1.4564897e-06
1.4557944e-06
1.4550768e-06
1.4543362e-06
1.4535718e-06
1.4527828e-06
1.4519684e-06
1.4511278e-06
1.4502599e-06
1.449364e-06
1.4484391e-06
1.4474842e-06
1.4464983e-06
1.4454803e-06
1.4444293e-06
1.443344e-06
1.4422234e-06
1.4410661e-06
1.439871e-06
1.4386368e-06
1.437362e-06
1.4360452e-06
1.434685e-06
1.4332799e-06
1.4318281e-06
1.4303283e-06
1.4287787e-06
1.4271776e-06
1.4255232e-06
1.4238137e-06
1.4220468e-06
1.4202206e-06
1.4183328e-06
1.4163812e-06
1.4143636e-06
1.4122775e-06
1.4101206e-06
1.4078904e-06
1.405584e-06
1.4031988e-06
1.400731e-06
1.3981762e-06
1.3955228e-06
1.3927574e-06
1.3898793e-06
1.386815e-06
1.3836267e-06
1.3808144e-06
1.377495e-06
1.377675e-06
1.3815375e-06
1.401111e-06
1.4671958e-06
1.7146507e-06
2.4133119e-06
3.9785939e-06
6.5078995e-06
9.7854378e-06
1.3396355e-05
1.7038684e-05
2.0638376e-05
2.4217215e-05
2.7785384e-05
3.1339385e-05
3.4876567e-05
3.8393726e-05
4.1888004e-05
4.535671e-05
4.8797486e-05
5.2207647e-05
5.5590374e-05
5.8922341e-05
6.2319091e-05
6.5220294e-05
7.0357905e-05
1.4692343e-06
1.4689633e-06
1.4686814e-06
1.4683899e-06
1.4680887e-06
1.4677777e-06
1.4674567e-06
1.4671253e-06
1.4667833e-06
1.4664302e-06
1.4660658e-06
1.4656898e-06
1.4653018e-06
1.4649015e-06
1.4644886e-06
1.4640626e-06
1.4636232e-06
1.4631701e-06
1.4627026e-06
1.4622205e-06
1.4617231e-06
1.46121e-06
1.4606807e-06
1.4601346e-06
1.4595712e-06
1.4589898e-06
1.4583898e-06
1.4577707e-06
1.4571318e-06
1.4564725e-06
1.4557921e-06
1.4550898e-06
1.454365e-06
1.4536168e-06
1.4528445e-06
1.4520473e-06
1.4512244e-06
1.4503749e-06
1.4494979e-06
1.4485925e-06
1.4476577e-06
1.4466926e-06
1.4456962e-06
1.4446673e-06
1.4436048e-06
1.4425076e-06
1.4413745e-06
1.4402042e-06
1.4389955e-06
1.4377469e-06
1.4364571e-06
1.4351248e-06
1.4337485e-06
1.4323266e-06
1.4308576e-06
1.4293397e-06
1.4277711e-06
1.4261499e-06
1.4244743e-06
1.4227424e-06
1.4209521e-06
1.4191014e-06
1.417188e-06
1.4152097e-06
1.4131641e-06
1.411049e-06
1.4088617e-06
1.4065996e-06
1.4042591e-06
1.4018354e-06
1.3993198e-06
1.396685e-06
1.3939795e-06
1.3909805e-06
1.3880303e-06
1.3854161e-06
1.3830519e-06
1.384093e-06
1.3922965e-06
1.4270626e-06
1.5481546e-06
2.0023828e-06
3.1433194e-06
5.399514e-06
8.6028383e-06
1.2354421e-05
1.6233327e-05
2.0079772e-05
2.390028e-05
2.7709025e-05
3.1503792e-05
3.5281994e-05
3.9040567e-05
4.2776346e-05
4.6485764e-05
5.0171107e-05
5.3806964e-05
5.7515884e-05
6.0693399e-05
6.6315103e-05
1.4700963e-06
1.4698605e-06
1.4696154e-06
1.4693619e-06
1.4691001e-06
1.4688298e-06
1.4685507e-06
1.4682627e-06
1.4679654e-06
1.4676585e-06
1.4673418e-06
1.4670151e-06
1.4666779e-06
1.4663301e-06
1.4659712e-06
1.4656011e-06
1.4652194e-06
1.4648257e-06
1.4644197e-06
1.4640009e-06
1.4635689e-06
1.4631233e-06
1.4626636e-06
1.4621894e-06
1.4617002e-06
1.4611954e-06
1.4606746e-06
1.4601373e-06
1.4595828e-06
1.4590106e-06
1.4584202e-06
1.4578109e-06
1.4571821e-06
1.4565331e-06
1.4558633e-06
1.455172e-06
1.4544585e-06
1.4537219e-06
1.4529617e-06
1.4521769e-06
1.4513668e-06
1.4505305e-06
1.4496671e-06
1.4487758e-06
1.4478555e-06
1.4469053e-06
1.4459241e-06
1.4449109e-06
1.4438645e-06
1.4427838e-06
1.4416677e-06
1.440515e-06
1.4393244e-06
1.4380945e-06
1.4368242e-06
1.4355117e-06
1.4341557e-06
1.4327546e-06
1.4313067e-06
1.4298105e-06
1.4282642e-06
1.4266659e-06
1.425014e-06
1.4233063e-06
1.4215409e-06
1.4197158e-06
1.4178287e-06
1.4158774e-06
1.4138597e-06
1.4117731e-06
1.4096153e-06
1.4073819e-06
1.4050691e-06
1.4026669e-06
1.4001493e-06
1.3975338e-06
1.3947131e-06
1.3919978e-06
1.3896285e-06
1.3888147e-06
1.3918833e-06
1.4100714e-06
1.4781141e-06
1.7564921e-06
2.5816719e-06
4.5635486e-06
7.6273893e-06
1.146932e-05
1.5575035e-05
1.967152e-05
2.3735843e-05
2.7787676e-05
3.1826596e-05
3.5849622e-05
3.9852933e-05
4.3837953e-05
4.7777083e-05
5.1799683e-05
5.5256345e-05
6.1370506e-05
1.4709449e-06
1.4707386e-06
1.4705243e-06
1.4703028e-06
1.470074e-06
1.4698377e-06
1.4695939e-06
1.4693421e-06
1.4690823e-06
1.4688142e-06
1.4685375e-06
1.468252e-06
1.4679574e-06
1.4676535e-06
1.46734e-06
1.4670167e-06
1.4666833e-06
1.4663394e-06
1.4659847e-06
1.465619e-06
1.4652417e-06
1.4648526e-06
1.4644513e-06
1.4640373e-06
1.4636102e-06
1.4631696e-06
1.462715e-06
1.462246e-06
1.4617621e-06
1.4612629e-06
1.4607477e-06
1.4602162e-06
1.4596677e-06
1.4591016e-06
1.4585175e-06
1.4579146e-06
1.4572925e-06
1.4566503e-06
1.4559876e-06
1.4553036e-06
1.4545976e-06
1.4538688e-06
1.4531166e-06
1.4523401e-06
1.4515384e-06
1.4507108e-06
1.4498564e-06
1.4489742e-06
1.4480633e-06
1.4471226e-06
1.4461513e-06
1.4451482e-06
1.4441123e-06
1.4430425e-06
1.4419376e-06
1.4407963e-06
1.4396173e-06
1.4383993e-06
1.4371409e-06
1.4358407e-06
1.4344973e-06
1.433109e-06
1.4316744e-06
1.4301917e-06
1.4286593e-06
1.4270752e-06
1.4254378e-06
1.4237449e-06
1.4219948e-06
1.4201851e-06
1.4183139e-06
1.4163791e-06
1.4143777e-06
1.4123087e-06
1.4101666e-06
1.4079469e-06
1.4056331e-06
1.403229e-06
1.4006328e-06
1.3980046e-06
1.3956328e-06
1.3935399e-06
1.3947553e-06
1.4042626e-06
1.4461341e-06
1.60905e-06
2.2384942e-06
3.860613e-06
6.791087e-06
1.0723017e-05
1.5063732e-05
1.9423351e-05
2.374023e-05
2.804076e-05
3.2328194e-05
3.6604602e-05
4.0841085e-05
4.5173946e-05
4.8908385e-05
5.551793e-05
1.4717862e-06
1.4716049e-06
1.4714167e-06
1.4712221e-06
1.4710212e-06
1.4708137e-06
1.4705995e-06
1.4703785e-06
1.4701503e-06
1.4699149e-06
1.4696719e-06