/*--------------------------------*- C++ -*----------------------------------*\
  =========                 |
  \\      /  F ield         | OpenFOAM: The Open Source CFD Toolbox
   \\    /   O peration     | Website:  https://openfoam.org
    \\  /    A nd           | Version:  12
     \\/     M anipulation  |
\*---------------------------------------------------------------------------*/
FoamFile
{
    format      ascii;
    class       volScalarField;
    location    "1500";
    object      p;
}
// * * * * * * * * * * * * * * * * * * * * * * * * * * * * * * * * * * * * * //

dimensions      [0 2 -2 0 0 0 0];

internalField   nonuniform List<scalar> 
7480
(
0.0087170952
0.0081282846
0.0070201735
0.0064119847
0.0061121868
0.0058667304
0.0056062594
0.0053526867
0.0051125993
0.0048747032
0.0046318847
0.0043832138
0.0041396765
0.0039210521
0.0037507789
0.0036396809
0.003586391
0.003551507
0.0035271178
0.003514099
0.0035034203
0.0034928599
0.0034812191
0.0034549484
0.0034161199
0.0033732381
0.0033304608
0.0032901983
0.0032498061
0.0032099416
0.0031715271
0.0031345523
0.0030995835
0.0030646397
0.003026358
0.0029852543
0.0029430913
0.0029014297
0.0028616211
0.0028235273
0.0027864705
0.0027504455
0.0027155066
0.0026815965
0.0026483144
0.0026150697
0.0025814081
0.0025476631
0.0025139325
0.0024788916
0.002441147
0.0024032414
0.0023676205
0.0023346209
0.0023020421
0.0022684822
0.0022331543
0.0021953612
0.0021561863
0.0021170037
0.0020777897
0.0020380832
0.0019979603
0.0019574738
0.0019163968
0.0018747548
0.0018326844
0.0017901089
0.0017469942
0.0017033996
0.0016592032
0.0016143627
0.0015689364
0.0015228049
0.0014759758
0.0014284597
0.0013801187
0.0013309904
0.0012810449
0.0012301027
0.0011783747
0.0011255258
0.0010712372
0.0010158433
0.00095826798
0.00089060815
0.00081686426
0.00076201261
0.00070787027
0.00065015953
0.00059209486
0.00053549607
0.00048021599
0.00042550757
0.00037321232
0.00032032142
0.00028390883
0.00022600674
0.00038489789
-0.00027975341
0.008280721
0.0076994626
0.0068348805
0.0063081388
0.0060393376
0.0058145087
0.0055723204
0.0053354441
0.0051150075
0.0049027172
0.0046925118
0.0044829191
0.0042821492
0.0041016326
0.0039516578
0.003837981
0.003754632
0.0037000632
0.0036592549
0.0036251878
0.0035934561
0.0035602483
0.0035207877
0.0034756802
0.0034287003
0.0033816172
0.0033375688
0.0032968656
0.0032569336
0.003217808
0.0031799828
0.0031433489
0.0031081014
0.0030724316
0.0030337519
0.002992692
0.002950824
0.0029095108
0.0028699109
0.0028317843
0.0027944869
0.0027581103
0.0027227739
0.0026884607
0.0026546956
0.0026208873
0.0025866787
0.0025522218
0.0025176317
0.0024817938
0.0024443541
0.0024072517
0.0023724371
0.0023394118
0.002306313
0.0022722222
0.0022365466
0.0021985845
0.0021593165
0.0021200436
0.0020807377
0.0020409431
0.0020007378
0.0019601715
0.0019190138
0.0018772908
0.0018351382
0.0017924774
0.0017492757
0.0017055943
0.0016613122
0.0016163878
0.0015708798
0.0015246685
0.0014777619
0.0014301707
0.0013817584
0.0013325646
0.0012825574
0.0012315565
0.0011797723
0.0011268689
0.0010725255
0.0010170677
0.00095924995
0.00089012437
0.00081948544
0.00076662919
0.00071216237
0.00065347821
0.00059474305
0.00053765684
0.00048199125
0.00042699067
0.00037449225
0.0003214522
0.00028492679
0.00022701723
0.00038595422
-0.00027898632
0.0079896972
0.0075790542
0.0069020131
0.0063869599
0.0060969371
0.0058590942
0.0056106613
0.0053669401
0.0051393337
0.0049197083
0.00470175
0.0044826542
0.0042705479
0.0040763229
0.0039118843
0.0037861117
0.0036993661
0.0036491198
0.003619945
0.003597305
0.0035744617
0.0035485851
0.003517767
0.0034843128
0.003447832
0.0034081272
0.0033670474
0.0033253588
0.0032834821
0.0032417812
0.0032007869
0.0031605426
0.0031216874
0.003083363
0.0030433072
0.003001633
0.0029594996
0.0029180884
0.0028784548
0.0028402697
0.0028028376
0.0027662679
0.0027306908
0.0026961108
0.0026619564
0.0026276405
0.002592933
0.0025580407
0.002522989
0.0024868369
0.0024494187
0.0024121644
0.0023769745
0.0023434895
0.0023100544
0.0022757822
0.0022400158
0.0022020264
0.0021627373
0.0021234116
0.0020840235
0.0020441296
0.0020038204
0.0019631493
0.0019218876
0.0018800669
0.0018378211
0.0017950674
0.0017517732
0.0017080013
0.001663631
0.0016186212
0.0015730307
0.0015267394
0.0014797556
0.0014320899
0.0013836049
0.0013343397
0.0012842631
0.0012331954
0.0011813477
0.0011283834
0.0010739832
0.001018483
0.00096052651
0.000890945
0.0008237226
0.00077107946
0.00071614496
0.00065693318
0.0005977519
0.00054024374
0.0004842002
0.00042889465
0.00037615846
0.00032291321
0.00028623101
0.00022831939
0.00038717116
-0.0002780258
0.0077640142
0.0074468282
0.0068507643
0.0063462839
0.0060458358
0.0058103978
0.0055700541
0.0053330281
0.0051112228
0.0048983728
0.0046883019
0.0044785991
0.0042771487
0.0040940236
0.0039401316
0.0038228954
0.0037418747
0.0036918177
0.0036582193
0.0036281148
0.0035971249
0.0035641334
0.0035283503
0.0034909865
0.0034510588
0.003409332
0.0033668499
0.003324305
0.0032834496
0.0032441069
0.0032060461
0.0031689409
0.0031321055
0.0030944088
0.0030546527
0.0030128322
0.0029699854
0.0029274572
0.0028866858
0.0028476545
0.0028096851
0.002772746
0.0027368818
0.0027021264
0.0026678451
0.002633354
0.0025984094
0.0025633333
0.0025280054
0.0024915539
0.0024538516
0.0024162482
0.0023806974
0.0023469258
0.0023133135
0.0022789213
0.0022430727
0.0022050664
0.0021657802
0.002126422
0.0020869667
0.0020469924
0.0020066059
0.0019658565
0.0019245144
0.0018826194
0.0018403013
0.001797471
0.0017540982
0.0017102478
0.0016657991
0.0016207119
0.001575045
0.0015286781
0.0014816202
0.0014338818
0.0013853236
0.0013359852
0.0012858365
0.0012346982
0.0011827828
0.0011297524
0.0010752916
0.0010197378
0.00096177074
0.00089337321
0.00082724601
0.00077408281
0.00071881963
0.00065937343
0.00059995009
0.00054219962
0.0004859451
0.00043045161
0.00037754285
0.00032414679
0.00028735088
0.00022932936
0.00038821767
-0.00027721741
0.0075576248
0.0072962583
0.0067813146
0.0063227399
0.0060321176
0.0058053641
0.0055737176
0.005341699
0.0051224787
0.0049120624
0.0047049546
0.0044991257
0.0043014422
0.0041209856
0.003967189
0.0038468353
0.0037599081
0.0037017904
0.0036608567
0.00362603
0.0035929639
0.0035597606
0.0035248087
0.0034882072
0.0034491493
0.003408261
0.0033663062
0.0033241438
0.0032834435
0.0032440116
0.0032058025
0.0031688846
0.0031320899
0.0030943582
0.0030554384
0.0030152094
0.0029743809
0.0029338184
0.0028941181
0.0028553658
0.0028173659
0.0027799912
0.0027433762
0.0027078961
0.0026731203
0.0026383171
0.0026031371
0.0025679004
0.0025324325
0.002495829
0.0024579771
0.0024202357
0.0023845013
0.0023505047
0.0023166834
0.0022821125
0.002246133
0.0022080783
0.0021687749
0.0021293696
0.0020898459
0.0020498003
0.0020093485
0.0019685294
0.001927115
0.0018851582
0.0018427771
0.0017998758
0.0017564298
0.0017125063
0.0016679836
0.0016228225
0.0015770823
0.0015306418
0.0014835112
0.0014357008
0.0013870709
0.0013376619
0.0012874437
0.0012362367
0.0011842551
0.0011311593
0.0010766357
0.001021019
0.00096305223
0.00089569369
0.00083021941
0.00077689969
0.000721446
0.00066179725
0.00060214067
0.00054415923
0.00048770032
0.00043201609
0.00037893266
0.00032539486
0.00028848444
0.00023031724
0.00038923654
-0.00027632355
0.0073686576
0.0071507401
0.0067135059
0.0063004159
0.0060145598
0.0057877478
0.00555937
0.005330142
0.0051127171
0.0049052715
0.004701152
0.0045005291
0.004308122
0.0041321715
0.0039813521
0.0038619373
0.0037742863
0.0037142303
0.003671678
0.0036361863
0.0036027323
0.0035689623
0.0035332826
0.0034957276
0.0034559079
0.0034143927
0.0033719184
0.0033293702
0.0032881203
0.0032480912
0.0032092384
0.0031715003
0.0031337509
0.0030951896
0.0030557147
0.0030151865
0.0029743433
0.0029339733
0.0028943123
0.0028558139
0.0028187126
0.0027826756
0.0027474243
0.0027127205
0.0026781855
0.0026433825
0.0026079249
0.0025722458
0.0025364034
0.0024995664
0.0024615935
0.0024238008
0.0023879725
0.0023538112
0.0023198209
0.0022851153
0.0022490443
0.0022109546
0.0021716344
0.0021321924
0.0020926206
0.0020525215
0.0020120192
0.0019711435
0.0019296697
0.0018876633
0.0018452299
0.0018022681
0.0017587593
0.0017147727
0.0016701852
0.0016249587
0.001579153
0.0015326459
0.001485449
0.0014375724
0.0013888761
0.0013394018
0.0012891187
0.0012378471
0.0011858032
0.0011326455
0.0010780611
0.0010223807
0.00096439374
0.0008977335
0.00083297779
0.00077978819
0.0007242753
0.00066446667
0.00060457987
0.00054634713
0.00048964731
0.00043374517
0.00038047216
0.00032677529
0.00028972448
0.00023139933
0.0003902738
-0.00027523414
0.0071961174
0.0070121831
0.0066408009
0.0062686275
0.0059899341
0.0057654416
0.0055438177
0.0053212535
0.0051085648
0.0049060611
0.0047059211
0.0045108467
0.0043236937
0.0041520258
0.0040038587
0.0038848681
0.0037955952
0.0037322207
0.0036858859
0.0036470428
0.0036106447
0.0035744249
0.0035369992
0.0034982458
0.0034578053
0.0034160032
0.0033734632
0.003330964
0.0032896562
0.003249588
0.0032106744
0.0031727927
0.0031349908
0.0030965298
0.0030572044
0.0030168362
0.0029760463
0.0029355124
0.0028955257
0.0028566925
0.0028193084
0.002783113
0.0027478089
0.0027129775
0.0026785654
0.0026444223
0.0026100594
0.0025752432
0.00253976
0.002503135
0.0024651782
0.0024272097
0.0023911046
0.0023566717
0.0023224773
0.0022876523
0.0022515387
0.00221346
0.0021741589
0.0021347173
0.0020951335
0.00205501
0.0020144836
0.0019735775
0.0019320671
0.0018900268
0.0018475575
0.0018045531
0.0017609984
0.0017169643
0.0016723261
0.0016270472
0.0015811882
0.0015346255
0.0014873724
0.0014394391
0.0013906847
0.0013411526
0.0012908113
0.0012394811
0.0011873807
0.0011341659
0.0010795249
0.0010237835
0.00096576705
0.00089967515
0.00083563915
0.00078262501
0.00072711784
0.00066720519
0.00060711898
0.00054864488
0.00049170192
0.00043557704
0.00038210783
0.00032824353
0.00029103542
0.00023254422
0.00039128373
-0.00027393446
0.0070379735
0.0068802152
0.0065637606
0.0062303354
0.0059630322
0.0057428202
0.0055280678
0.0053118412
0.0051033042
0.0049039602
0.0047080853
0.0045174479
0.0043348282
0.0041670102
0.0040212537
0.0039026667
0.0038119379
0.0037456622
0.0036961198
0.0036547162
0.0036164697
0.003579029
0.0035409602
0.0035018556
0.0034613025
0.0034194839
0.0033769688
0.0033344836
0.003293044
0.0032527956
0.0032136363
0.0031754258
0.0031373476
0.0030986791
0.003059182
0.0030187338
0.0029778911
0.0029373144
0.0028973494
0.002858534
0.0028210854
0.0027847207
0.0027491065
0.0027138852
0.0026791231
0.002644731
0.0026103129
0.0025753914
0.0025398396
0.0025036339
0.0024665483
0.0024294101
0.0023936767
0.0023593249
0.0023250184
0.0022899685
0.0022536872
0.002215557
0.0021762522
0.0021368191
0.0020972544
0.002057142
0.0020166273
0.0019757267
0.0019342098
0.0018921609
0.0018496792
0.0018066547
0.0017630748
0.0017190124
0.0016743411
0.0016290262
0.0015831292
0.001536525
0.0014892287
0.0014412504
0.0013924487
0.0013428687
0.0012924781
0.0012410971
0.0011889477
0.0011356823
0.0010809905
0.0010251925
0.00096714746
0.00090159335
0.00083822058
0.00078535118
0.00072987512
0.00066990041
0.00060964832
0.00055095539
0.00049378383
0.0004374448
0.00038378231
0.00032975222
0.00029237848
0.00023371381
0.00039221788
-0.0002724104
0.0068922933
0.006754915
0.006484304
0.0061870588
0.0059334702
0.0057183057
0.0055099652
0.0053001857
0.0050963218
0.0049008557
0.004709831
0.004523953
0.0043461867
0.0041825279
0.0040394728
0.0039216431
0.0038298462
0.0037610922
0.0037086436
0.0036647736
0.0036245882
0.0035856327
0.0035464452
0.0035064627
0.0034652882
0.0034230429
0.0033802434
0.0033375572
0.0032958679
0.0032553664
0.0032159387
0.0031774221
0.0031390965
0.0031002665
0.0030606843
0.0030202634
0.002979486
0.0029389728
0.0028990716
0.0028602481
0.0028227121
0.0027862321
0.0027505056
0.0027152232
0.0026804072
0.0026459143
0.0026113111
0.0025761173
0.0025403048
0.002503941
0.0024668742
0.0024297506
0.0023939389
0.0023597458
0.0023259687
0.0022914253
0.0022554039
0.0022174537
0.0021781755
0.002138661
0.0020990321
0.0020588949
0.0020183862
0.0019775121
0.0019360178
0.0018939904
0.0018515263
0.0018085088
0.0017649286
0.0017208613
0.0016761779
0.0016308465
0.0015849296
0.0015383002
0.0014909762
0.0014429674
0.0013941314
0.0013445157
0.0012940868
0.001242665
0.0011904761
0.0011371685
0.0010824333
0.0010265851
0.00096851674
0.0009034847
0.00084072167
0.0007879678
0.00073253365
0.00067252487
0.00061213453
0.00055324528
0.0004958619
0.00043932038
0.00038547117
0.00033128052
0.00029373538
0.00023489014
0.00039304003
-0.00027063101
0.0067572918
0.006636115
0.0064036601
0.0061393872
0.0059008164
0.005691761
0.0054899816
0.0052870968
0.0050885687
0.0048974404
0.0047111818
0.0045299936
0.0043568657
0.0041971272
0.0040565932
0.0039394709
0.0038466542
0.0037755513
0.0037202838
0.003673933
0.0036317667
0.003591275
0.0035509908
0.0035102393
0.0034686034
0.0034261213
0.0033832216
0.0033404947
0.0032986995
0.0032580506
0.0032184363
0.0031796776
0.0031411394
0.0031021682
0.0030625106
0.0030221009
0.0029813577
0.0029408615
0.0029009643
0.0028620894
0.0028244512
0.0027878572
0.0027520192
0.0027166426
0.0026817083
0.0026470739
0.0026123436
0.0025770845
0.0025412596
0.002504891
0.002467806
0.0024305729
0.0023945251
0.0023600719
0.0023261532
0.0022914712
0.0022553863
0.0022177539
0.0021790456
0.0021399677
0.0021005406
0.0020604785
0.0020199316
0.0019790135
0.0019375032
0.0018954843
0.001853048
0.0018100589
0.0017665041
0.0017224582
0.0016777873
0.001632462
0.0015865462
0.0015399109
0.0014925769
0.001444554
0.0013956989
0.0013460616
0.0012956076
0.0012441569
0.0011919399
0.0011386004
0.001083831
0.0010279411
0.00096985658
0.00090533012
0.00084313586
0.000790476
0.00073508938
0.00067506782
0.00061456308
0.0005554989
0.00049792062
0.0004411893
0.00038716136
0.00033281669
0.00029509497
0.00023606201
0.00039371845
-0.00026855609
0.0066315315
0.0065235132
0.0063227631
0.0060880702
0.005865222
0.0056634091
0.005468401
0.0052725877
0.005079759
0.0048932081
0.0047116576
0.0045351996
0.0043666616
0.004210815
0.0040728658
0.0039566378
0.0038630731
0.0037899495
0.0037321451
0.003683487
0.0036394569
0.0035975157
0.0035561802
0.0035146794
0.0034725566
0.0034297767
0.0033866899
0.0033438226
0.0033018343
0.003260955
0.0032210841
0.0031820318
0.0031432357
0.0031040866
0.0030643248
0.0030238977
0.0029831715
0.0029426866
0.0029027964
0.0028638878
0.0028261687
0.0027894729
0.0027535243
0.0027180445
0.0026829913
0.0026482316
0.0026133989
0.0025780839
0.0025422185
0.0025058138
0.002468742
0.0024315491
0.0023954788
0.0023609105
0.0023268061
0.0022918882
0.0022555979
0.0022178823
0.0021791786
0.0021400689
0.0021007082
0.0020610241
0.0020208832
0.001980196
0.001938804
0.0018967904
0.0018543305
0.0018113302
0.0017677867
0.0017237684
0.0016791273
0.0016338299
0.001587938
0.0015413179
0.0014939941
0.0014459757
0.0013971182
0.0013474754
0.0012970109
0.0012455449
0.001193313
0.0011399533
0.0010851607
0.0010292394
0.00097114733
0.00090710968
0.00084544848
0.00079286401
0.00073752898
0.00067751366
0.00061691717
0.00055769957
0.00049994434
0.00044303732
0.00038884003
0.00033434909
0.00029644619
0.00023721776
0.00039422008
-0.00026613944
0.0065138499
0.0064167146
0.0062423226
0.006033872
0.0058269045
0.0056332871
0.0054452512
0.0052565798
0.0050697631
0.0048880971
0.0047113425
0.0045396883
0.0043757152
0.0042237187
0.0040883679
0.0039731364
0.003878995
0.0038040673
0.0037439054
0.0036930225
0.0036471518
0.0036037535
0.0035613291
0.003519036
0.0034763799
0.0034332658
0.0033899719
0.0033469602
0.0033047993
0.0032637176
0.0032236235
0.0031843179
0.0031452979
0.0031059978
0.0030661544
0.003025724
0.0029850281
0.0029445666
0.0029046901
0.0028657525
0.0028279524
0.0027911499
0.0027550854
0.0027194986
0.0026843293
0.0026494475
0.0026145084
0.002579122
0.0025432014
0.0025067601
0.0024697105
0.0024325599
0.0023964474
0.0023617394
0.0023274795
0.0022924621
0.0022561386
0.0022184227
0.0021796696
0.0021404275
0.0021009347
0.0020612101
0.0020210235
0.0019803218
0.0019391683
0.0018975138
0.0018553091
0.0018124272
0.0017689021
0.0017248712
0.0016802249
0.0016349428
0.0015890799
0.0015424894
0.0014951945
0.0014472002
0.0013983585
0.0013487276
0.0012982689
0.0012468023
0.0011945698
0.0011412031
0.0010863993
0.0010304589
0.00097236879
0.00090880256
0.0008476388
0.0007951124
0.00073983323
0.0006798429
0.00061917732
0.00055982862
0.00050191583
0.00044484892
0.0003904932
0.00033586515
0.00029777716
0.00023834521
0.00039448604
-0.00026333124
0.0064032784
0.0063152845
0.0061628579
0.0059774946
0.0057861205
0.0056014305
0.0054206007
0.0052391218
0.005058578
0.0048820875
0.0047102202
0.0045433866
0.0043839302
0.0042357301
0.004102986
0.0039888561
0.0038943255
0.0038178344
0.0037555341
0.0037025634
0.0036549301
0.003610122
0.0035666294
0.0035235567
0.0034803722
0.0034369258
0.0033934239
0.003350263
0.0033079293
0.0032666406
0.0032263155
0.0031867514
0.0031474969
0.0031080308
0.0030680906
0.003027638
0.0029869563
0.0029465052
0.0029066291
0.0028676535
0.0028297675
0.002792855
0.0027566736
0.0027209785
0.002685693
0.0026506876
0.0026156387
0.0025801779
0.0025442053
0.002507734
0.0024707055
0.0024335873
0.0023974246
0.0023625791
0.0023281758
0.0022930642
0.0022566906
0.0022189605
0.0021802086
0.0021409692
0.0021014775
0.0020617094
0.0020214145
0.001980585
0.0019393656
0.0018976779
0.0018554532
0.0018127297
0.0017695045
0.0017257048
0.0016811649
0.0016359031
0.0015900361
0.0015434475
0.0014961718
0.001448208
0.001399395
0.0013497921
0.0012993559
0.0012479042
0.0011956867
0.0011423269
0.001087525
0.0010315787
0.00097350114
0.00091038744
0.00084968374
0.00079719877
0.00074198047
0.00068203433
0.00062132285
0.00056186644
0.00050381702
0.0004466077
0.00039210607
0.00033735157
0.00029907528
0.00023943053
0.00039448109
-0.00026008162
0.0062990017
0.0062187911
0.0060847346
0.0059195631
0.005743171
0.0055679105
0.0053945263
0.005220268
0.0050461806
0.0048751096
0.0047082248
0.0045462231
0.0043912552
0.0042468238
0.0041167132
0.0040037992
0.0039090694
0.0038312488
0.0037670222
0.0037120978
0.003662773
0.0036165902
0.003572036
0.0035281768
0.0034844464
0.0034406443
0.0033969099
0.0033535767
0.0033110575
0.0032695542
0.003228995
0.0031891776
0.0031496938
0.0031100648
0.0030700313
0.0030295567
0.0029888904
0.002948453
0.0029085796
0.0028695707
0.002831605
0.0027945874
0.0027582925
0.0027224894
0.0026870881
0.0026519596
0.0026168012
0.0025812655
0.0025452417
0.0025087396
0.0024717259
0.0024346337
0.0023984223
0.0023634453
0.0023289003
0.0022936875
0.0022572552
0.0022195102
0.0021807673
0.0021415302
0.0021020242
0.0020622245
0.002021912
0.0019810814
0.0019398383
0.0018980732
0.0018557338
0.0018129372
0.0017696798
0.0017258596
0.0016814539
0.0016364472
0.0015907721
0.0015442707
0.0014970077
0.0014490453
0.001400243
0.0013506622
0.0013002554
0.0012488306
0.0011966423
0.0011433038
0.0010885175
0.0010325797
0.00097452581
0.00091184405
0.00085156078
0.00079910048
0.00074394834
0.00068406604
0.00062333249
0.00056379277
0.00050562908
0.00044829649
0.00039366307
0.00033879429
0.00030032726
0.00024045894
0.00039415815
-0.00025632972
0.0062003299
0.0061268243
0.006008197
0.0058606176
0.0056983812
0.0055328252
0.0053670966
0.0052000704
0.0050325585
0.0048671108
0.0047053122
0.0045481584
0.0043976591
0.0042569756
0.0041295255
0.0040179337
0.0039231837
0.0038442556
0.00377831
0.0037215727
0.0036706373
0.003623125
0.0035775278
0.0035328863
0.0034886044
0.0034444358
0.0034004581
0.0033569434
0.0033142382
0.0032725234
0.0032317347
0.0031916724
0.003151965
0.0031121739
0.0030720456
0.003031543
0.0029908859
0.0029504576
0.0029105814
0.0028715359
0.0028334892
0.0027963646
0.0027599538
0.002724039
0.0026885196
0.002653267
0.002617998
0.0025823848
0.0025463077
0.0025097732
0.0024727699
0.0024356999
0.0023994407
0.0023643341
0.0023296458
0.0022943292
0.0022578386
0.0022200804
0.0021813452
0.0021421045
0.0021025799
0.002062754
0.0020224287
0.0019815872
0.0019403195
0.0018985347
0.0018561916
0.001813379
0.0017700574
0.0017261334
0.0016816604
0.0016366213
0.0015909338
0.0015445799
0.001497534
0.00144971
0.0014009744
0.0013514011
0.0013009986
0.0012495883
0.001197429
0.001144119
0.0010893598
0.0010334448
0.00097542605
0.00091315432
0.00085324994
0.00080079672
0.00074571548
0.00068591657
0.00062518502
0.0005655871
0.00050733265
0.0004498974
0.00039514782
0.00034017841
0.00030151904
0.00024141555
0.00039346138
-0.00025200674
0.0061066752
0.006039004
0.0059333973
0.0058011141
0.0056520806
0.0054962974
0.0053383803
0.0051785856
0.0050177168
0.0048580537
0.0047014417
0.0045491519
0.0044031019
0.0042661509
0.0041413912
0.0040312269
0.0039366325
0.0038568149
0.0037893583
0.0037309576
0.0036785023
0.0036297131
0.0035830975
0.0035376811
0.0034928433
0.0034482972
0.003404063
0.0033603542
0.0033174569
0.0032755283
0.0032345093
0.0031942053
0.0031542766
0.0031143221
0.0030740966
0.0030335608
0.0029929079
0.0029524863
0.0029126047
0.0028735226
0.0028353971
0.0027981673
0.0027616418
0.0027256149
0.0026899783
0.0026546029
0.0026192236
0.0025835317
0.0025474007
0.0025108337
0.0024738379
0.0024367861
0.0024004791
0.0023652446
0.0023304131
0.0022949922
0.002258443
0.0022206694
0.002181939
0.0021426934
0.0021031518
0.0020633019
0.0020229606
0.0019821027
0.0019408122
0.0018990131
0.0018566615
0.0018138301
0.0017704873
0.0017265552
0.0016820654
0.0016369664
0.0015911862
0.001544782
0.001497703
0.0014498839
0.0014013119
0.0013519228
0.0013016155
0.0012502407
0.0011980926
0.0011447915
0.0010900519
0.001034165
0.00097618918
0.00091430334
0.00085473466
0.00080226997
0.00074726315
0.00068756637
0.00062686044
0.00056722953
0.00050890846
0.00045139221
0.00039654336
0.00034148832
0.0003026357
0.00024228409
0.00039235534
-0.00024704757
0.0060175334
0.0059549832
0.0058604197
0.0057414292
0.0056045892
0.0054584709
0.0053084514
0.0051558729
0.0050016727
0.0048479106
0.0046965743
0.0045491648
0.0044075473
0.0042743194
0.0041522847
0.0040436518
0.0039493841
0.0038688882
0.0038001253
0.0037402147
0.0036863366
0.0036363283
0.0035887242
0.0035425444
0.0034971497
0.0034522178
0.0034077162
0.0033638033
0.0033207096
0.0032785675
0.0032373205
0.0031967808
0.0031566361
0.0031165201
0.0030761969
0.0030356245
0.002994972
0.0029545547
0.0029146654
0.0028755458
0.0028373425
0.0028000083
0.002763368
0.0027272278
0.002691473
0.0026559748
0.0026204844
0.0025847115
0.0025485252
0.0025119246
0.0024749322
0.0024378941
0.0024015384
0.0023661778
0.0023312038
0.0022956776
0.0022590683
0.0022212769
0.0021825492
0.0021432987
0.0021037403
0.0020638658
0.0020235064
0.0019826325
0.0019413215
0.0018995067
0.0018571418
0.0018142913
0.001770932
0.001726989
0.0016824813
0.0016373634
0.0015915754
0.00154515
0.0014980088
0.0014501089
0.0014014978
0.0013520836
0.0013018245
0.0012506125
0.0011986097
0.0011453714
0.0010906457
0.001034768
0.00097682339
0.00091528743
0.00085600513
0.00080350757
0.00074857651
0.00068899902
0.00062834122
0.00056870184
0.00051033827
0.00045276315
0.00039783271
0.00034270807
0.00030366183
0.00024304741
0.0003907744
-0.00024138483
0.0059324699
0.0058744485
0.0057892996
0.0056818679
0.0055562066
0.0054195042
0.0052773909
0.0051319935
0.0049844521
0.0048366652
0.0046906768
0.0045481633
0.0044109633
0.0042814534
0.0041621807
0.0040551809
0.0039614049
0.0038804352
0.0038105671
0.0037493041
0.0036941079
0.0036429452
0.003594389
0.0035474626
0.0035015143
0.0034561913
0.0034114138
0.0033672882
0.0033239946
0.0032816392
0.0032401667
0.0031993964
0.0031590404
0.0031187638
0.0030783416
0.0030377284
0.0029970716
0.0029566554
0.0029167555
0.0028775972
0.0028393172
0.0028018796
0.002765125
0.0027288707
0.0026929976
0.0026573769
0.0026217755
0.0025859204
0.0025496778
0.0025130431
0.0024760507
0.0024390217
0.0024026172
0.0023671329
0.0023320173
0.0022963848
0.0022597143
0.002221903
0.0021831765
0.0021439206
0.0021043449
0.0020644453
0.0020240674
0.0019831776
0.0019418458
0.0019000139
0.0018576352
0.0018147673
0.0017713909
0.0017274332
0.0016829071
0.001637774
0.0015919752
0.001545532
0.0014983754
0.0014504675
0.0014018273
0.0013523469
0.0013020239
0.0012507761
0.0011987753
0.0011456455
0.0010910656
0.0010352731
0.00097737469
0.00091614146
0.00085707725
0.00080451161
0.00074964908
0.00069020335
0.00062961349
0.0005699886
0.00051160585
0.00045399379
0.00039899968
0.00034382201
0.00030458201
0.0002436876
0.00038865992
-0.00023494933
0.005851108
0.0057971182
0.005720038
0.0056226732
0.0055072057
0.0053795645
0.0052452875
0.0051070111
0.0049660888
0.0048243116
0.004683723
0.0045461176
0.0044133216
0.004287527
0.004171055
0.0040657874
0.0039726624
0.0038914166
0.0038206412
0.0037581863
0.0037017829
0.0036495371
0.0036000711
0.0035524198
0.0035059249
0.0034602084
0.0034151484
0.0033708032
0.0033273065
0.0032847389
0.0032430439
0.0032020485
0.0031614862
0.003121051
0.0030805292
0.0030398718
0.0029992068
0.0029587889
0.0029188763
0.0028796787
0.0028413234
0.0028037838
0.0027669155
0.0027305466
0.0026945552
0.0026588127
0.0026231002
0.0025871614
0.0025508612
0.0025141912
0.0024771952
0.0024401711
0.0024037169
0.002368111
0.0023328547
0.002297115
0.0022603819
0.0022225487
0.0021838215
0.0021445594
0.0021049659
0.0020650413
0.0020246443
0.001983738
0.0019423851
0.0019005355
0.0018581429
0.0018152574
0.0017718629
0.0017278899
0.0016833465
0.0016381976
0.0015923847
0.0015459241
0.0014987547
0.0014508358
0.0014021782
0.001352686
0.0013023519
0.0012510599
0.0011989969
0.0011458309
0.0010912259
0.0010354803
0.00097772719
0.00091686138
0.00085799605
0.00080532365
0.00075050169
0.000691184
0.00063067205
0.00057107938
0.0005126981
0.00045506991
0.00040002968
0.00034481554
0.00030538139
0.00024418709
0.00038595851
-0.00022767448
0.0057731202
0.0057227401
0.0056526118
0.005564035
0.0054578291
0.0053388205
0.0052122375
0.0050809916
0.0049466227
0.0048108541
0.004675694
0.0045430032
0.0044145975
0.004292517
0.0041788849
0.004075446
0.0039831254
0.0039017943
0.0038303053
0.0037668205
0.0037093266
0.0036560749
0.0036057475
0.003557398
0.0035103678
0.0034642587
0.0034189123
0.0033743425
0.0033306409
0.0032878626
0.0032459489
0.0032047342
0.0031639713
0.0031233798
0.003082758
0.0030420536
0.0030013762
0.002960954
0.0029210264
0.0028817887
0.0028433592
0.0028057189
0.0027687377
0.0027322538
0.002696144
0.0026602802
0.0026244567
0.0025884331
0.0025520741
0.0025153678
0.0024783648
0.0024413411
0.0024048366
0.0023691114
0.0023337155
0.002297868
0.002261071
0.002223214
0.0021844842
0.0021452151
0.0021056035
0.0020656538
0.002025237
0.0019843138
0.0019429396
0.0019010718
0.0018586648
0.0018157614
0.0017723483
0.0017283598
0.001683799
0.0016386333
0.001592806
0.001546329
0.0014991456
0.001451213
0.0014025394
0.0013530366
0.0013026893
0.0012513896
0.0011993096
0.0011461185
0.001091475
0.0010356851
0.00097791429
0.00091728117
0.00085863467
0.00080592238
0.00075116658
0.00069197874
0.00063153795
0.00057197985
0.00051361056
0.00045598186
0.00040091075
0.0003456758
0.00030604612
0.00024452971
0.00038262321
-0.00021950197
0.0056982201
0.0056510884
0.0055869823
0.0055060991
0.0054082883
0.0052974377
0.0051783428
0.0050540046
0.0049260985
0.0047963061
0.004666579
0.0045388005
0.0044147705
0.0042964031
0.0041856496
0.0040841326
0.0039927636
0.0039115309
0.0038395174
0.0037751656
0.0037167026
0.0036625286
0.0036113936
0.0035623781
0.003514828
0.003468331
0.0034226966
0.0033778993
0.003333992
0.0032910057
0.0032488778
0.0032074499
0.0031664921
0.0031257473
0.0030850254
0.0030442714
0.0030035783
0.0029631489
0.0029232043
0.002883926
0.0028454234
0.0028076842
0.002770591
0.0027339921
0.0026977641
0.0026617799
0.0026258457
0.0025897361
0.0025533172
0.0025165734
0.00247956
0.0024425324
0.0024059769
0.0023701345
0.0023346004
0.0022986444
0.0022617824
0.0022238996
0.0021851653
0.0021458882
0.0021062582
0.0020662832
0.0020258459
0.0019849053
0.0019435098
0.0019016233
0.0018592013
0.0018162797
0.0017728477
0.0017288431
0.0016842647
0.0016390817
0.0015932397
0.001546746
0.0014995477
0.0014516015
0.0014029125
0.0013533973
0.001303036
0.0012517298
0.0011996289
0.0011464232
0.0010917871
0.0010359863
0.00097822577
0.00091769982
0.00085913347
0.00080622294
0.00075151815
0.00069254843
0.00063223111
0.00057272326
0.00051436392
0.00045673544
0.00040163921
0.0003463941
0.00030656458
0.00024469758
0.00037862278
-0.00021038992
0.0056261567
0.0055819616
0.0055231
0.0054489749
0.0053587645
0.0052555735
0.0051437089
0.0050261222
0.0049045656
0.0047806884
0.0046563752
0.0045334958
0.0044138244
0.0042991684
0.0041913308
0.0040918249
0.0040015482
0.0039205901
0.0038482363
0.0037831801
0.0037238739
0.0036688663
0.0036169835
0.0035673389
0.0035192891
0.0034724123
0.0034264915
0.0033814659
0.0033373535
0.0032941627
0.0032518259
0.0032101914
0.003169045
0.0031281504
0.003087329
0.0030465233
0.0030058111
0.0029653721
0.0029254088
0.0028860892
0.002847515
0.0028096785
0.0027724744
0.0027357609
0.0026994151
0.0026633112
0.0026272666
0.0025910702
0.0025545902
0.0025178077
0.0024807805
0.0024437449
0.0024071374
0.0023711801
0.0023355093
0.0022994445
0.0022625161
0.0022246055
0.0021858647
0.0021465789
0.0021069301
0.0020669296
0.0020264713
0.0019855127
0.0019440958
0.0019021901
0.0018597525
0.0018168125
0.0017733613
0.0017293402
0.0016847437
0.0016395431
0.0015936861
0.0015471753
0.0014999617
0.0014520017
0.0014032969
0.0013537685
0.0013033939
0.00125208
0.0011999574
0.0011467391
0.0010921106
0.0010362929
0.0009786035
0.00091818084
0.00085965481
0.00080655305
0.00075176536
0.00069286883
0.00063264474
0.00057326077
0.00051496974
0.00045735924
0.00040223502
0.00034697683
0.00030693645
0.00024466282
0.00037395457
-0.00020032122
0.0055567088
0.0055151794
0.0054609095
0.0053927425
0.0053094103
0.0052133745
0.0051084424
0.0049974197
0.0048820767
0.004764029
0.0046450875
0.0045270816
0.0044117474
0.0043007996
0.0041959126
0.0040985025
0.0040094519
0.0039289372
0.0038564216
0.003790823
0.003730802
0.0036750549
0.0036224892
0.003572258
0.0035237331
0.0034764885
0.0034302859
0.0033850336
0.0033407184
0.0032973276
0.003254788
0.0032129542
0.0031716259
0.0031305855
0.0030896656
0.0030488067
0.0030080726
0.0029676215
0.0029276379
0.0028882769
0.0028496323
0.0028117004
0.0027743869
0.0027375592
0.0027010961
0.0026648736