/*--------------------------------*- C++ -*----------------------------------*\
  =========                 |
  \\      /  F ield         | OpenFOAM: The Open Source CFD Toolbox
   \\    /   O peration     | Website:  https://openfoam.org
    \\  /    A nd           | Version:  12
     \\/     M anipulation  |
\*---------------------------------------------------------------------------*/
FoamFile
{
    format      ascii;
    class       volVectorField;
    location    "1500";
    object      U;
}
// * * * * * * * * * * * * * * * * * * * * * * * * * * * * * * * * * * * * * //

dimensions      [0 1 -1 0 0 0 0];

internalField   nonuniform List<vector> 
13056
(
(1 2.308597e-10 8.763931e-25)
(0.99998264 8.069333e-10 0)
(0.99994447 1.4035375e-09 0)
(0.99989615 1.9051072e-09 0)
(0.99984067 2.4477132e-09 0)
(0.99977846 3.0859511e-09 0)
(0.99970972 3.8410014e-09 0)
(0.99963454 4.7404336e-09 0)
(0.99955279 5.8251385e-09 0)
(0.99946403 7.1466753e-09 0)
(0.9993676 8.7690213e-09 0)
(0.99926257 1.0776428e-08 0)
(0.99914767 1.3282862e-08 0)
(0.99902116 1.64562e-08 0)
(0.99888049 2.0521605e-08 0)
(0.99872234 2.591023e-08 0)
(0.99854053 3.3017415e-08 0)
(0.99832945 4.3679372e-08 0)
(0.99806626 5.7210165e-08 0)
(0.99775602 8.708421e-08 0)
(0.9972571 1.1441733e-07 0)
(0.99674687 3.276304e-07 0)
(0.99453018 2.6878439e-07 -2.5966678e-21)
(0.99452678 0.00011936572 2.7965275e-16)
(0.028578724 0.00012495596 0)
(0.014424726 4.6850311e-07 -9.8632169e-20)
(0.012906301 1.8973711e-07 1.6234854e-17)
(0.012409207 1.9935991e-08 1.7832528e-21)
(0.012093783 1.4146974e-08 0)
(0.01182964 1.2028062e-08 0)
(0.011597355 1.0548427e-08 0)
(0.011390514 9.3453095e-09 0)
(0.011204499 8.365527e-09 0)
(0.011035365 7.5625523e-09 0)
(0.010880208 6.8882397e-09 0)
(0.010736932 6.3097258e-09 0)
(0.010603927 5.8066577e-09 0)
(0.010479888 5.365676e-09 0)
(0.010363731 4.9762328e-09 0)
(0.010254557 4.6297891e-09 0)
(0.01015161 4.3196603e-09 0)
(0.010054248 4.0407307e-09 0)
(0.0099619104 3.7890128e-09 0)
(0.0098741097 3.5606883e-09 0)
(0.0097904235 3.3530889e-09 0)
(0.0097104745 3.1633735e-09 0)
(0.0096339456 2.9892835e-09 0)
(0.0095605458 2.8295706e-09 0)
(0.0094900096 2.6822213e-09 0)
(0.0094221179 2.5457893e-09 0)
(0.0093566636 2.4196452e-09 0)
(0.0092934523 2.3025418e-09 0)
(0.0092323208 2.1933157e-09 0)
(0.009173123 2.09147e-09 0)
(0.0091157141 1.9965385e-09 0)
(0.0090599636 1.907525e-09 0)
(0.0090057655 1.8238163e-09 0)
(0.0089530166 1.7453154e-09 0)
(0.0089016114 1.6716087e-09 0)
(0.0088514594 1.6019865e-09 0)
(0.0088024865 1.5360874e-09 0)
(0.0087546184 1.473908e-09 0)
(0.0087077768 1.4152201e-09 0)
(0.0086618934 1.3594739e-09 0)
(0.0086169152 1.3063915e-09 0)
(0.0085727874 1.2560303e-09 0)
(0.008529451 1.2082417e-09 0)
(0.0084868527 1.1627139e-09 0)
(0.0084449489 1.1191761e-09 0)
(0.0084036999 1.0775843e-09 0)
(0.0083630629 1.0379222e-09 0)
(0.0083229936 1.0000823e-09 0)
(0.0082834528 9.63776e-10 0)
(0.0082444118 9.2887606e-10 0)
(0.0082058384 8.9544637e-10 0)
(0.0081676969 8.6342972e-10 0)
(0.0081299536 8.3269267e-10 0)
(0.0080925799 8.0306213e-10 0)
(0.0080555524 7.7449792e-10 0)
(0.0080188443 7.4703258e-10 0)
(0.0079824255 7.2064091e-10 0)
(0.0079462673 6.9517837e-10 0)
(0.0079103487 6.7053513e-10 0)
(0.0078746485 6.4673382e-10 0)
(0.0078391421 6.2378032e-10 0)
(0.0078038027 6.0165202e-10 0)
(0.0077686047 5.8021836e-10 0)
(0.007733531 5.594141e-10 0)
(0.007698561 5.3928841e-10 0)
(0.0076636698 5.1983747e-10 0)
(0.007628832 5.0101305e-10 0)
(0.0075940251 4.8272809e-10 0)
(0.0075592309 4.6495569e-10 0)
(0.0075244282 4.4773269e-10 0)
(0.0074895898 4.3106799e-10 0)
(0.0074546887 4.1487486e-10 0)
(0.0074197055 3.9909852e-10 0)
(0.0073846187 3.8377719e-10 0)
(0.0073493997 3.6892352e-10 0)
(0.0073140187 3.5449701e-10 0)
(0.007278449 3.404402e-10 0)
(0.0072426665 3.2675008e-10 0)
(0.0072066413 3.1345338e-10 0)
(0.0071703379 3.0052964e-10 0)
(0.0071337236 2.8792528e-10 0)
(0.0070967689 2.7563552e-10 0)
(0.0070594366 2.6368946e-10 0)
(0.0070216827 2.5206143e-10 0)
(0.0069834673 2.4070948e-10 0)
(0.0069447502 2.2964208e-10 0)
(0.006905481 2.1888153e-10 0)
(0.0068656009 2.0836678e-10 0)
(0.0068250696 1.981626e-10 0)
(0.0067847138 1.8852136e-10 0)
(0.0067458092 1.7956608e-10 0)
(0.0067087264 1.7128492e-10 0)
(0.0066733261 1.6364809e-10 0)
(0.006639475 1.5661206e-10 0)
(0.0066070525 1.5010293e-10 0)
(0.0065759558 1.4405566e-10 0)
(0.0065460921 1.3844263e-10 0)
(0.0065173709 1.3323829e-10 0)
(0.00648971 1.2838869e-10 0)
(0.006463041 1.238485e-10 0)
(0.0064373012 1.1960331e-10 0)
(0.0064124289 1.1564201e-10 0)
(0.0063883656 1.1195747e-10 0)
(0.006365053 1.0851477e-10 0)
(0.006342447 1.0534154e-10 0)
(0.0063204772 1.0235673e-10 0)
(0.0062991366 9.9970179e-11 0)
(0.0062781748 9.737311e-11 0)
(0.006257949 9.7537621e-11 0)
(0.0062368771 3.5123231e-10 0)
(0.0062186109 1.1302876e-10 1.577232e-22)
(0.006188143 2.7563557e-10 0)
(1 6.9605569e-10 0)
(0.99998264 2.4331918e-09 0)
(0.99994446 4.2326e-09 0)
(0.99989611 5.7456106e-09 0)
(0.9998406 7.3823363e-09 0)
(0.99977835 9.3073814e-09 0)
(0.99970956 1.1584643e-08 0)
(0.99963434 1.4297269e-08 0)
(0.99955253 1.7568557e-08 0)
(0.99946372 2.1553966e-08 0)
(0.99936723 2.6446392e-08 0)
(0.99926214 3.2499861e-08 0)
(0.99914718 4.005798e-08 0)
(0.99902061 4.9626899e-08 0)
(0.99887988 6.1885477e-08 0)
(0.99872167 7.8133625e-08 0)
(0.99853979 9.956324e-08 0)
(0.99832865 1.3171042e-07 0)
(0.99806539 1.7250687e-07 0)
(0.99775508 2.625771e-07 0)
(0.99725608 3.4498184e-07 0)
(0.99674578 9.8778173e-07 0)
(0.99452905 8.1054578e-07 9.5132917e-21)
(0.99452545 0.00035976713 -2.8484406e-21)
(0.083708893 0.00036774332 0)
(0.043489556 8.1870941e-06 0)
(0.038911126 1.0688339e-06 2.2053083e-20)
(0.037413485 4.1998242e-07 0)
(0.036461327 2.9712716e-07 -2.1099764e-21)
(0.035664671 2.5220381e-07 0)
(0.034964333 2.2100795e-07 0)
(0.034340754 1.9582283e-07 0)
(0.03377995 1.7529216e-07 0)
(0.03327004 1.5845102e-07 0)
(0.032802279 1.4431084e-07 0)
(0.03237034 1.3218448e-07 0)
(0.031969366 1.2164482e-07 0)
(0.031595424 1.1240633e-07 0)
(0.031245242 1.0424736e-07 0)
(0.030916111 9.6989126e-08 0)
(0.030605754 9.049188e-08 0)
(0.030312235 8.4649141e-08 0)
(0.03003386 7.9375091e-08 0)
(0.029769163 7.4592937e-08 0)
(0.02951687 7.0243216e-08 0)
(0.029275843 6.6268862e-08 0)
(0.029045127 6.2623067e-08 0)
(0.028823843 5.9275987e-08 0)
(0.028611193 5.6189396e-08 0)
(0.028406515 5.3332347e-08 0)
(0.028209185 5.0688927e-08 0)
(0.028018617 4.823556e-08 0)
(0.027834318 4.5948039e-08 0)
(0.027655849 4.3814654e-08 0)
(0.027482773 4.182511e-08 0)
(0.027314697 3.9960621e-08 0)
(0.0271513 3.820771e-08 0)
(0.026992272 3.6562878e-08 0)
(0.026837296 3.5018256e-08 0)
(0.026686098 3.3560022e-08 0)
(0.026538454 3.2180012e-08 0)
(0.02639414 3.0877206e-08 0)
(0.026252921 2.9647235e-08 0)
(0.026114592 2.8479591e-08 0)
(0.02597899 2.7368075e-08 0)
(0.025845953 2.6312844e-08 0)
(0.025715301 2.5311463e-08 0)
(0.025586875 2.4357618e-08 0)
(0.025460542 2.3445862e-08 0)
(0.025336183 2.2574602e-08 0)
(0.02521367 2.1743617e-08 0)
(0.025092868 2.0950619e-08 0)
(0.024973659 2.0190168e-08 0)
(0.024855957 1.9459325e-08 0)
(0.024739664 1.8758867e-08 0)
(0.024624674 1.8088037e-08 0)
(0.024510884 1.7444009e-08 0)
(0.024398208 1.6823437e-08 0)
(0.024286576 1.6225136e-08 0)
(0.024175907 1.5649701e-08 0)
(0.02406611 1.5096667e-08 0)
(0.023957099 1.4563245e-08 0)
(0.02384881 1.4047163e-08 0)
(0.023741179 1.3548524e-08 0)
(0.023634133 1.3067645e-08 0)
(0.02352759 1.2603943e-08 0)
(0.023421473 1.2154978e-08 0)
(0.023315731 1.1719278e-08 0)
(0.023210302 1.1297605e-08 0)
(0.02310511 1.0890084e-08 0)
(0.023000079 1.0495669e-08 0)
(0.022895142 1.0112679e-08 0)
(0.022790242 9.7404101e-09 0)
(0.022685317 9.3795811e-09 0)
(0.022580284 9.0303851e-09 0)
(0.022475062 8.6911718e-09 0)
(0.022369593 8.3607503e-09 0)
(0.022263811 8.0397571e-09 0)
(0.022157631 7.7285512e-09 0)
(0.022050962 7.4263108e-09 0)
(0.021943724 7.1318736e-09 0)
(0.021835845 6.8450933e-09 0)
(0.021727234 6.5665083e-09 0)
(0.021617784 6.2957485e-09 0)
(0.021507397 6.0317234e-09 0)
(0.021395983 5.7742815e-09 0)
(0.021283431 5.5239913e-09 0)
(0.021169608 5.2803892e-09 0)
(0.021054394 5.0425996e-09 0)
(0.020937667 4.8107462e-09 0)
(0.020819275 4.585301e-09 0)
(0.020699042 4.3650217e-09 0)
(0.020576846 4.1513011e-09 0)
(0.020455178 3.9493288e-09 0)
(0.020337885 3.7616989e-09 0)
(0.020226085 3.5882216e-09 0)
(0.020119358 3.4282358e-09 0)
(0.020017301 3.2808262e-09 0)
(0.019919551 3.1444695e-09 0)
(0.019825799 3.0177945e-09 0)
(0.019735764 2.9002018e-09 0)
(0.019649173 2.7911602e-09 0)
(0.019565779 2.6895644e-09 0)
(0.019485375 2.5944597e-09 0)
(0.019407773 2.5055166e-09 0)
(0.019332786 2.4225205e-09 0)
(0.019260239 2.3453114e-09 0)
(0.019189955 2.2731701e-09 0)
(0.019121801 2.2066886e-09 0)
(0.019055565 2.1440559e-09 0)
(0.018991227 2.0941034e-09 0)
(0.018928033 2.0390569e-09 0)
(0.018867056 2.0440897e-09 0)
(0.018803543 1.9774602e-09 0)
(0.018748473 2.4048521e-09 -2.422542e-22)
(0.018656615 1.5422401e-09 3.7105249e-23)
(1 1.171667e-09 0)
(0.99998264 4.0961368e-09 0)
(0.99994444 7.1259901e-09 0)
(0.99989607 9.6739649e-09 0)
(0.99984052 1.2430174e-08 0)
(0.99977822 1.5671686e-08 0)
(0.99970938 1.9506112e-08 0)
(0.99963411 2.4073451e-08 0)
(0.99955225 2.9581263e-08 0)
(0.99946337 3.6291237e-08 0)
(0.99936682 4.4528081e-08 0)
(0.99926167 5.4719392e-08 0)
(0.99914664 6.7443558e-08 0)
(0.99902001 8.3552563e-08 0)
(0.99887921 1.0418909e-07 0)
(0.99872093 1.3154123e-07 0)
(0.99853898 1.6761517e-07 0)
(0.99832777 2.2172954e-07 0)
(0.99806443 2.9040256e-07 0)
(0.99775404 4.4201478e-07 0)
(0.99725494 5.8072603e-07 0)
(0.99674458 1.6626417e-06 0)
(0.99452786 1.3645908e-06 -4.9768846e-21)
(0.99452405 0.00058802723 9.7775368e-55)
(0.13764039 0.00060781953 -8.231942e-54)
(0.073202904 2.2841219e-05 0)
(0.065494407 3.0537095e-06 -1.1655822e-20)
(0.062974035 1.2198496e-06 0)
(0.061369819 8.6324242e-07 0)
(0.060028607 7.3230636e-07 0)
(0.058849874 6.4162138e-07 0)
(0.057800396 5.6850156e-07 0)
(0.056856547 5.089017e-07 0)
(0.055998355 4.6000444e-07 0)
(0.05521111 4.1894867e-07 0)
(0.054484158 3.8374209e-07 0)
(0.053809323 3.5314446e-07 0)
(0.053179978 3.2632476e-07 0)
(0.052590621 3.0263889e-07 0)
(0.052036691 2.8156779e-07 0)
(0.051514357 2.62706e-07 0)
(0.05102036 2.4574447e-07 0)
(0.050551849 2.3043357e-07 0)
(0.050106357 2.1655104e-07 0)
(0.04968174 2.0392343e-07 0)
(0.049276085 1.9238574e-07 0)
(0.04888778 1.8180215e-07 0)
(0.04851535 1.7208503e-07 0)
(0.048157451 1.6312453e-07 0)
(0.047812967 1.5483068e-07 0)
(0.047480849 1.471564e-07 0)
(0.047160113 1.4003401e-07 0)
(0.046849927 1.3339341e-07 0)
(0.046549552 1.2720007e-07 0)
(0.046258254 1.2142397e-07 0)
(0.045975371 1.1601128e-07 0)
(0.045700363 1.1092268e-07 0)
(0.045432707 1.0614746e-07 0)
(0.04517187 1.0166305e-07 0)
(0.044917392 9.7429755e-08 0)
(0.044668894 9.3423643e-08 0)
(0.044426002 8.9641372e-08 0)
(0.04418832 8.6070427e-08 0)
(0.043955499 8.2680693e-08 0)
(0.04372727 7.9454025e-08 0)
(0.043503355 7.63905e-08 0)
(0.043283457 7.3483245e-08 0)
(0.043067304 7.0714089e-08 0)
(0.042854674 6.8067264e-08 0)
(0.042645365 6.5537922e-08 0)
(0.042439162 6.3125401e-08 0)
(0.042235841 6.0823116e-08 0)
(0.042035201 5.8615475e-08 0)
(0.041837096 5.6493845e-08 0)
(0.041641363 5.4460282e-08 0)
(0.041447822 5.2512703e-08 0)
(0.041256301 5.064296e-08 0)
(0.041066656 4.884141e-08 0)
(0.040878767 4.7104499e-08 0)
(0.040692498 4.54339e-08 0)
(0.040507697 4.3828295e-08 0)
(0.040324219 4.2279691e-08 0)
(0.040141956 4.0781488e-08 0)
(0.039960801 3.9333866e-08 0)
(0.039780629 3.7937775e-08 0)
(0.039601305 3.6591526e-08 0)
(0.039422699 3.5288128e-08 0)
(0.039244721 3.4023271e-08 0)
(0.039067271 3.2799073e-08 0)
(0.03889022 3.1615946e-08 0)
(0.03871344 3.0470875e-08 0)
(0.038536817 2.9359015e-08 0)
(0.038360258 2.8278279e-08 0)
(0.038183655 2.723072e-08 0)
(0.038006871 2.6216912e-08 0)
(0.03782977 2.5232125e-08 0)
(0.037652251 2.4272884e-08 0)
(0.037474206 2.3340979e-08 0)
(0.03729549 2.2437477e-08 0)
(0.037115952 2.1560013e-08 0)
(0.036935457 2.0705225e-08 0)
(0.036753881 1.9872658e-08 0)
(0.036571074 1.9063863e-08 0)
(0.036386855 1.8277791e-08 0)
(0.036201058 1.7511289e-08 0)
(0.036013533 1.6763894e-08 0)
(0.035824093 1.6037244e-08 0)
(0.035632512 1.533002e-08 0)
(0.03543859 1.463968e-08 0)
(0.035242122 1.3966566e-08 0)
(0.035042852 1.3312047e-08 0)
(0.034840482 1.2672535e-08 0)
(0.034634807 1.2052077e-08 0)
(0.034430022 1.146571e-08 0)
(0.034232601 1.0920974e-08 0)
(0.034044425 1.0417337e-08 0)
(0.033864787 9.9528656e-09 0)
(0.03369301 9.5249036e-09 0)
(0.033528483 9.1290343e-09 0)
(0.033370683 8.7612757e-09 0)
(0.03321914 8.4198783e-09 0)
(0.033073395 8.1033026e-09 0)
(0.032933029 7.8083487e-09 0)
(0.032797698 7.5322428e-09 0)
(0.032667081 7.2740192e-09 0)
(0.032540868 7.0330582e-09 0)
(0.032418759 6.8088939e-09 0)
(0.032300461 6.5994435e-09 0)
(0.032185748 6.4064216e-09 0)
(0.032074265 6.2245556e-09 0)
(0.031965975 6.0794866e-09 0)
(0.031859614 5.9195376e-09 0)
(0.031756981 5.9340098e-09 0)
(0.031650101 5.6474338e-09 0)
(0.031557408 6.9892048e-09 0)
(0.031402797 4.3951227e-09 0)
(1 1.6647933e-09 1.8776966e-24)
(0.99998264 5.8206725e-09 0)
(0.99994442 1.0127176e-08 0)
(0.99989602 1.3749329e-08 0)
(0.99984043 1.7667338e-08 0)
(0.99977808 2.2274866e-08 0)
(0.99970919 2.7724898e-08 0)
(0.99963385 3.4216413e-08 0)
(0.99955193 4.2044354e-08 0)
(0.99946299 5.1580559e-08 0)
(0.99936637 6.3286403e-08 0)
(0.99926115 7.7769452e-08 0)
(0.99914605 9.5851515e-08 0)
(0.99901934 1.1874314e-07 0)
(0.99887847 1.4806789e-07 0)
(0.99872011 1.8693469e-07 0)
(0.99853808 2.3819395e-07 0)
(0.99832678 3.1508595e-07 0)
(0.99806335 4.1266306e-07 0)
(0.99775289 6.2808327e-07 0)
(0.99725368 8.2517323e-07 0)
(0.99674324 2.3622858e-06 0)
(0.99452659 1.9390637e-06 0)
(0.99452255 0.00080937417 -5.096539e-55)
(0.19105635 0.00085039032 4.2751874e-54)
(0.10399101 4.5567615e-05 0)
(0.093046024 6.2958286e-06 0)
(0.089464009 2.5136119e-06 0)
(0.087183024 1.7789313e-06 0)
(0.085277527 1.5084504e-06 0)
(0.083603334 1.3214811e-06 0)
(0.0821128 1.1708762e-06 0)
(0.080772245 1.0481344e-06 0)
(0.079553342 9.4742068e-07 0)
(0.078435211 8.6285658e-07 0)
(0.077402716 7.9034352e-07 0)
(0.076444239 7.2732662e-07 0)
(0.075550365 6.7209133e-07 0)
(0.074713279 6.233099e-07 0)
(0.073926507 5.7991339e-07 0)
(0.073184607 5.4106714e-07 0)
(0.072482951 5.0613468e-07 0)
(0.07181749 4.7460131e-07 0)
(0.071184721 4.4601012e-07 0)
(0.070581598 4.2000286e-07 0)
(0.070005406 3.9624056e-07 0)
(0.069453854 3.7444362e-07 0)
(0.06892485 3.5443021e-07 0)
(0.068416483 3.3597563e-07 0)
(0.067927168 3.1889441e-07 0)
(0.067455416 3.0308838e-07 0)
(0.06699983 2.8841915e-07 0)
(0.066559229 2.7474269e-07 0)
(0.06613256 2.6198706e-07 0)
(0.065718783 2.5009029e-07 0)
(0.065316959 2.3894248e-07 0)
(0.06492632 2.2846242e-07 0)
(0.064546121 2.1862724e-07 0)
(0.064175609 2.0939084e-07 0)
(0.063814128 2.0067207e-07 0)
(0.063461142 1.9242136e-07 0)
(0.063116116 1.8463123e-07 0)
(0.062778489 1.7727616e-07 0)
(0.062447769 1.7029471e-07 0)
(0.06212357 1.6364929e-07 0)
(0.061805497 1.573395e-07 0)
(0.06149313 1.5135145e-07 0)
(0.061186082 1.4564799e-07 0)
(0.060884039 1.4019668e-07 0)
(0.060586713 1.3498723e-07 0)
(0.060293797 1.3001821e-07 0)
(0.060004974 1.2527618e-07 0)
(0.05971996 1.2072932e-07 0)
(0.059438545 1.1635968e-07 0)
(0.0591605 1.1217121e-07 0)
(0.058885568 1.0815978e-07 0)
(0.058613506 1.0430872e-07 0)
(0.058344108 1.0059824e-07 0)
(0.058077203 9.7020878e-08 0)
(0.057812599 9.3579975e-08 0)
(0.057550081 9.0272882e-08 0)
(0.057289442 8.7083288e-08 0)
(0.057030527 8.399759e-08 0)
(0.056773186 8.1015988e-08 0)
(0.056517241 7.8140467e-08 0)
(0.0562625 7.5367572e-08 0)
(0.056008778 7.2683034e-08 0)
(0.05575595 7.0077919e-08 0)
(0.055503869 6.7556456e-08 0)
(0.055252356 6.5119558e-08 0)
(0.055001227 6.2761056e-08 0)
(0.054750321 6.047102e-08 0)
(0.054499505 5.8245086e-08 0)
(0.054248626 5.6087432e-08 0)
(0.053997491 5.3999262e-08 0)
(0.053745903 5.1970923e-08 0)
(0.053493723 4.9995234e-08 0)
(0.053240793 4.8075794e-08 0)
(0.052986911 4.6214833e-08 0)
(0.052731861 4.4407522e-08 0)
(0.05247545 4.2646946e-08 0)
(0.052217505 4.0932123e-08 0)
(0.051957808 3.9266235e-08 0)
(0.051696106 3.7647155e-08 0)
(0.051432163 3.6068406e-08 0)
(0.051165764 3.4529006e-08 0)
(0.050896643 3.303231e-08 0)
(0.050624482 3.1575634e-08 0)
(0.050348994 3.0153752e-08 0)
(0.050069888 2.8767334e-08 0)
(0.049786801 2.7419204e-08 0)
(0.04949931 2.6101997e-08 0)
(0.049207124 2.4824053e-08 0)
(0.048916202 2.3616306e-08 0)
(0.048635741 2.2494293e-08 0)
(0.048368413 2.1456943e-08 0)
(0.048113213 2.0500277e-08 0)
(0.047869181 1.9618777e-08 0)
(0.047635448 1.8803399e-08 0)
(0.047411273 1.8045925e-08 0)
(0.047195985 1.7342739e-08 0)
(0.046988933 1.6690671e-08 0)
(0.046789525 1.6083146e-08 0)
(0.046597268 1.5514447e-08 0)
(0.046411709 1.4982571e-08 0)
(0.046232405 1.4486247e-08 0)
(0.046058932 1.4024513e-08 0)
(0.045890873 1.3593088e-08 0)
(0.045727907 1.3195491e-08 0)
(0.045569531 1.2820855e-08 0)
(0.045415691 1.2521946e-08 0)
(0.045264597 1.2192353e-08 0)
(0.045118793 1.2221799e-08 0)
(0.044966984 1.16414e-08 0)
(0.0448353 1.4403645e-08 0)
(0.04461565 9.0502119e-09 0)
(1 2.1827908e-09 0)
(0.99998263 7.6325818e-09 0)
(0.99994441 1.3281135e-08 0)
(0.99989597 1.8032893e-08 0)
(0.99984033 2.3172539e-08 0)
(0.99977793 2.9216194e-08 0)
(0.99970897 3.6364566e-08 0)
(0.99963357 4.4878626e-08 0)
(0.99955157 5.5145126e-08 0)
(0.99946256 6.7651614e-08 0)
(0.99936586 8.3003035e-08 0)
(0.99926056 1.01996e-07 0)
(0.99914538 1.2570801e-07 0)
(0.99901859 1.5572624e-07 0)
(0.99887763 1.9417938e-07 0)
(0.99871918 2.4514359e-07 0)
(0.99853707 3.1235594e-07 0)
(0.99832568 4.1317604e-07 0)
(0.99806216 5.41116e-07 0)
(0.99775159 8.2356187e-07 0)
(0.99725228 1.0819688e-06 0)
(0.99674175 3.0971251e-06 0)
(0.99452524 2.5425193e-06 0)
(0.99452097 0.0010269311 0)
(0.24447684 0.0010950825 0)
(0.13628269 7.6361809e-05 0)
(0.12195812 1.0921028e-05 0)
(0.11725813 4.3612862e-06 3.5341709e-21)
(0.11426663 3.0861404e-06 0)
(0.11176984 2.6157993e-06 0)
(0.10957675 2.2912933e-06 0)
(0.10762432 2.0301542e-06 0)
(0.10586826 1.8173614e-06 0)
(0.10427152 1.6427347e-06 0)
(0.10280677 1.4961058e-06 0)
(0.10145419 1.3703771e-06 0)
(0.10019856 1.2611185e-06 0)
(0.099027534 1.1653526e-06 0)
(0.097930886 1.0807755e-06 0)
(0.096900136 1.0055341e-06 0)
(0.095928158 9.3818179e-07 0)
(0.095008891 8.7761526e-07 0)
(0.094137032 8.2294151e-07 0)
(0.093307993 7.7336922e-07 0)
(0.092517787 7.2827614e-07 0)
(0.091762856 6.8707572e-07 0)
(0.091040199 6.4928324e-07 0)
(0.090347078 6.145817e-07 0)
(0.089680991 5.8258358e-07 0)
(0.089039857 5.529672e-07 0)
(0.088421732 5.2556057e-07 0)
(0.087824783 5.0012515e-07 0)
(0.087247464 4.7641182e-07 0)
(0.086688394 4.5429457e-07 0)
(0.086146214 4.3366574e-07 0)
(0.085619692 4.1433628e-07 0)
(0.08510782 3.96165e-07 0)
(0.084609626 3.7911101e-07 0)
(0.084124122 3.6309496e-07 0)
(0.08365045 3.4797717e-07 0)
(0.083187904 3.3367115e-07 0)
(0.082735786 3.2016306e-07 0)
(0.082293363 3.0740904e-07 0)
(0.081859988 2.9530348e-07 0)
(0.081435153 2.8378081e-07 0)
(0.081018345 2.7283957e-07 0)
(0.080609011 2.6245596e-07 0)
(0.080206648 2.5256608e-07 0)
(0.07981084 2.4311374e-07 0)
(0.079421209 2.340806e-07 0)
(0.079037357 2.2546408e-07 0)
(0.078658867 2.1724106e-07 0)
(0.078285368 2.093568e-07 0)
(0.077916582 2.0177996e-07 0)
(0.07755221 1.9451697e-07 0)
(0.077191917 1.8756083e-07 0)
(0.076835384 1.8088285e-07 0)
(0.07648234 1.7444886e-07 0)
(0.076132561 1.6824567e-07 0)
(0.075785796 1.622789e-07 0)
(0.075441763 1.5654407e-07 0)
(0.075100192 1.5101314e-07 0)
(0.074760879 1.456625e-07 0)
(0.074423627 1.4049224e-07 0)
(0.074088203 1.3550582e-07 0)
(0.073754355 1.3069732e-07 0)
(0.073421843 1.2604218e-07 0)
(0.0730905 1.2152483e-07 0)
(0.072760135 1.1715239e-07 0)
(0.072430512 1.1292654e-07 0)
(0.072101394 1.0883665e-07 0)
(0.071772565 1.0486559e-07 0)
(0.071443852 1.0100567e-07 0)
(0.071115057 9.7264068e-08 0)
(0.070785923 9.3642906e-08 0)
(0.070456196 9.0125582e-08 0)
(0.070125691 8.6699603e-08 0)
(0.069794203 8.3371085e-08 0)
(0.069461466 8.0143933e-08 0)
(0.069127196 7.7009843e-08 0)
(0.068791142 7.395684e-08 0)
(0.068453074 7.0983156e-08 0)
(0.068112711 6.8094281e-08 0)
(0.067769719 6.528658e-08 0)
(0.067423787 6.2548857e-08 0)
(0.067074636 5.9879355e-08 0)
(0.066721916 5.7283867e-08 0)
(0.06636521 5.4757791e-08 0)
(0.066004142 5.2292073e-08 0)
(0.065638331 4.9887831e-08 0)
(0.065267302 4.7549963e-08 0)
(0.064890499 4.526574e-08 0)
(0.064507541 4.304963e-08 0)
(0.064126236 4.0955214e-08 0)
(0.063758643 3.9009451e-08 0)
(0.063408261 3.7210523e-08 0)
(0.063073775 3.555151e-08 0)
(0.062753926 3.4022842e-08 0)
(0.062447573 3.2608847e-08 0)
(0.062153747 3.1295271e-08 0)
(0.061871569 3.0075822e-08 0)
(0.061600187 2.8945011e-08 0)
(0.061338821 2.7891457e-08 0)
(0.061086829 2.6905239e-08 0)
(0.060843614 2.5982865e-08 0)
(0.060608597 2.5122133e-08 0)
(0.060381225 2.4321376e-08 0)
(0.060160947 2.3573184e-08 0)
(0.059947346 2.2883636e-08 0)
(0.05973976 2.223389e-08 0)
(0.05953812 2.1715319e-08 0)
(0.059340086 2.1143601e-08 0)
(0.059148979 2.1193805e-08 0)
(0.05895004 2.0195844e-08 0)
(0.058777436 2.4986745e-08 -3.1185579e-22)
(0.058489531 1.5691404e-08 4.7767053e-23)
(1 2.7333915e-09 0)
(0.99998263 9.5590003e-09 0)
(0.99994438 1.6635271e-08 0)
(0.99989591 2.2589215e-08 0)
(0.99984022 2.9028865e-08 0)
(0.99977776 3.6600485e-08 0)
(0.99970873 4.5555576e-08 0)
(0.99963325 5.6221054e-08 0)
(0.99955117 6.9081275e-08 0)
(0.99946208 8.4746793e-08 0)
(0.99936529 1.0397516e-07 0)
(0.9992599 1.2776393e-07 0)
(0.99914463 1.574624e-07 0)
(0.99901774 1.9505807e-07 0)
(0.99887669 2.4321647e-07 0)
(0.99871815 3.0704186e-07 0)
(0.99853593 3.9121366e-07 0)
(0.99832444 5.1746982e-07 0)
(0.99806082 6.7768486e-07 0)
(0.99775014 1.0313741e-06 0)
(0.9972507 1.3549448e-06 0)
(0.99674007 3.8780925e-06 0)
(0.99452377 3.1839676e-06 0)
(0.99451931 0.0012423307 0)
(0.29824927 0.0013454707 0)
(0.17049369 0.00011603351 0)
(0.15261799 1.7183263e-05 0)
(0.14672611 6.8701208e-06 0)
(0.14298234 4.8592188e-06 0)
(0.13986094 4.1167715e-06 0)
(0.13712001 3.6056209e-06 0)
(0.13467988 3.1947013e-06 0)
(0.13248499 2.8599165e-06 0)
(0.13048913 2.5851383e-06 0)
(0.1286582 2.3544054e-06 0)
(0.12696743 2.1565662e-06 0)
(0.12539777 1.9846492e-06 0)
(0.12393383 1.8339633e-06 0)
(0.12256282 1.7008803e-06 0)
(0.12127415 1.582485e-06 0)
(0.12005892 1.4765027e-06 0)
(0.11890955 1.3811974e-06 0)
(0.11781944 1.2951632e-06 0)
(0.11678283 1.2171565e-06 -6.212525e-33)
(0.11579475 1.1461964e-06 0)
(0.11485076 1.0813619e-06 0)
(0.1139471 1.0218903e-06 0)
(0.11308036 9.6728043e-07 0)
(0.11224741 9.1692547e-07 0)
(0.11144564 8.703191e-07 0)
(0.11067264 8.271881e-07 0)
(0.1099261 7.8715921e-07 0)
(0.1092041 7.4984137e-07 0)
(0.10850491 7.1503431e-07 0)
(0.10782683 6.8256842e-07 0)
(0.10716832 6.5214835e-07 0)
(0.10652813 6.2355148e-07 0)
(0.10590503 5.9671153e-07 0)
(0.1052978 5.7150453e-07 0)
(0.10470536 5.477122e-07 0)
(0.10412682 5.2519768e-07 0)
(0.10356132 5.0393781e-07 0)
(0.10300795 4.8386419e-07 0)
(0.10246588 4.6481201e-07 0)
(0.10193449 4.4667755e-07 0)
(0.10141313 4.2945726e-07 0)
(0.10090111 4.1311417e-07 0)
(0.10039781 3.9754852e-07 0)
(0.099902703 3.8267193e-07 0)
(0.099415318 3.6845482e-07 0)
(0.098935155 3.548929e-07 0)
(0.098461697 3.4195017e-07 0)
(0.097994477 3.2954111e-07 0)
(0.097533148 3.1761606e-07 0)
(0.097077336 3.0618446e-07 0)
(0.096626622 2.9523559e-07 0)
(0.096180608 2.8472465e-07 0)
(0.095738955 2.7459803e-07 0)
(0.095301382 2.6483461e-07 0)
(0.094867576 2.5544297e-07 0)
(0.094437185 2.4641624e-07 0)
(0.094009869 2.3771066e-07 0)
(0.093585376 2.2928902e-07 0)
(0.093163455 2.2115111e-07 0)
(0.092743818 2.1330236e-07 0)
(0.092326152 2.0573359e-07 0)
(0.091910153 1.9840642e-07 0)
(0.091495612 1.912962e-07 0)
(0.091082291 1.8441386e-07 0)
(0.090669896 1.7776212e-07 0)
(0.090258129 1.7132445e-07 0)
(0.089846722 1.6507392e-07 0)
(0.089435455 1.5899833e-07 0)
(0.089024082 1.5310882e-07 0)
(0.088612284 1.4740879e-07 0)
(0.08819974 1.4187234e-07 0)
(0.087786219 1.3647973e-07 0)
(0.087371465 1.312404e-07 0)
(0.086955144 1.2616054e-07 0)
(0.086536903 1.2122721e-07 0)
(0.086116427 1.1642158e-07 0)
(0.085693428 1.1174076e-07 0)
(0.085267553 1.0719335e-07 0)
(0.084838385 1.0277372e-07 0)
(0.084405537 9.8464285e-08 0)
(0.083968656 9.4262214e-08 0)
(0.083527306 9.0176578e-08 0)
(0.083080967 8.6200217e-08 0)
(0.082629165 8.2318893e-08 0)
(0.082171425 7.8534297e-08 0)
(0.081707151 7.485414e-08 0)
(0.08123565 7.1258455e-08 0)
(0.080756441 6.7770019e-08 0)
(0.080279298 6.4473087e-08 0)
(0.079819309 6.1410115e-08 0)
(0.079380855 5.8578306e-08 0)
(0.078962288 5.5966725e-08 0)
(0.078562036 5.3560338e-08 0)
(0.078178671 5.1334466e-08 0)
(0.077810979 4.9266673e-08 0)
(0.077457861 4.7347026e-08 0)
(0.077118251 4.5566893e-08 0)
(0.076791175 4.3908391e-08 0)
(0.076475827 4.2355897e-08 0)
(0.076171462 4.0903884e-08 0)
(0.075877355 3.9548888e-08 0)
(0.075592814 3.8288291e-08 0)
(0.07531715 3.7110443e-08 0)
(0.075049841 3.6024878e-08 0)
(0.074790061 3.5001955e-08 0)
(0.07453772 3.4185252e-08 0)
(0.074289899 3.3285099e-08 0)
(0.074050738 3.3362514e-08 0)
(0.073801827 3.1791194e-08 0)
(0.073585818 3.9343854e-08 0)
(0.073225507 2.4692426e-08 -2.7235995e-23)
(1 3.3248177e-09 0)
(0.99998263 1.162882e-08 0)
(0.99994436 2.0240115e-08 0)
(0.99989584 2.7487182e-08 0)
(0.99984009 3.5325018e-08 0)
(0.99977756 4.4539655e-08 0)
(0.99970845 5.5437231e-08 0)
(0.99963289 6.8415555e-08 0)
(0.99955072 8.4063849e-08 0)
(0.99946153 1.031248e-07 0)
(0.99936465 1.2651991e-07 0)
(0.99925916 1.5546256e-07 0)
(0.99914378 1.9159398e-07 0)
(0.99901679 2.3733167e-07 0)
(0.99887564 2.9591779e-07 0)
(0.99871698 3.7356083e-07 0)
(0.99853466 4.759523e-07 0)
(0.99832305 6.2953287e-07 0)
(0.99805931 8.2441756e-07 0)
(0.99774851 1.2546314e-06 0)
(0.99724892 1.6481932e-06 0)
(0.99673819 4.7167868e-06 0)
(0.99452219 3.8729753e-06 0)
(0.99451758 0.0014564207 0)
(0.35252535 0.0016034236 0)
(0.20700614 0.00016596648 0)
(0.18538753 2.5441684e-05 0)
(0.17821632 1.0190191e-05 -9.279167e-21)
(0.17367271 7.2011842e-06 7.110055e-21)
(0.16988912 6.0978345e-06 0)
(0.16656767 5.3400797e-06 0)
(0.16361063 4.7315846e-06 0)
(0.16095042 4.2359242e-06 0)
(0.1585312 3.8290379e-06 0)
(0.15631173 3.4873518e-06 0)
(0.15426199 3.19438e-06 0)
(0.15235896 2.9398006e-06 0)
(0.15058395 2.7166584e-06 0)
(0.14892151 2.519577e-06 0)
(0.14735881 2.3442409e-06 0)
(0.14588509 2.1872844e-06 0)
(0.14449116 2.0461372e-06 0)
(0.14316901 1.9187173e-06 0)
(0.1419117 1.8031845e-06 6.6691186e-33)
(0.14071319 1.6980847e-06 0)
(0.13956811 1.6020565e-06 0)
(0.1384719 1.5139707e-06 0)
(0.13742044 1.4330817e-06 0)
(0.13640992 1.3584954e-06 0)
(0.1354372 1.2894616e-06 0)
(0.13449934 1.2255722e-06 0)
(0.13359357 1.1662773e-06 0)
(0.13271753 1.1109993e-06 0)
(0.13186914 1.0594387e-06 0)
(0.13104635 1.0113439e-06 0)
(0.13024728 9.6628086e-07 0)
(0.12947041 9.2391907e-07 0)
(0.12871427 8.8415759e-07 0)
(0.12797736 8.468141e-07 0)
(0.12725838 8.1156764e-07 0)
(0.12655626 7.7821438e-07 0)
(0.12586994 7.4671793e-07 0)
(0.12519832 7.1697794e-07 0)
(0.12454041 6.8875237e-07 0)
(0.12389544 6.6188678e-07 0)
(0.12326263 6.3637408e-07 0)
(0.12264116 6.1216018e-07 0)
(0.12203024 5.8909859e-07 0)
(0.12142927 5.6705838e-07 0)
(0.12083765 5.4599475e-07 0)
(0.12025479 5.2590095e-07 0)
(0.11968005 5.0672425e-07 0)
(0.11911288 4.8833893e-07 0)
(0.11855285 4.7067088e-07 0)
(0.1179995 4.5373311e-07 0)
(0.11745234 4.3751013e-07 0)
(0.11691087 4.2193617e-07 0)
(0.11637469 4.0693203e-07 0)
(0.11584345 3.9246589e-07 0)
(0.11531677 3.7855006e-07 0)
(0.11479423 3.6517462e-07 0)
(0.11427542 3.5227532e-07 0)
(0.11376003 3.3979698e-07 0)
(0.11324775 3.2773872e-07 0)
(0.11273823 3.1610856e-07 0)
(0.1122311 3.0489313e-07 0)
(0.11172599 2.9403598e-07 0)
(0.11122264 2.835004e-07 0)
(0.11072076 2.7330211e-07 0)
(0.11022001 2.6344533e-07 0)
(0.10972 2.5390577e-07 0)
(0.10922043 2.4464368e-07 0)
(0.10872101 2.3564079e-07 0)
(0.10822146 2.2691335e-07 0)
(0.10772139 2.1846656e-07 0)
(0.10722041 2.1026231e-07 0)
(0.10671823 2.0227129e-07 0)
(0.10621454 1.9450719e-07 0)
(0.10570895 1.8697928e-07 0)
(0.10520101 1.7966854e-07 0)
(0.10469036 1.7254709e-07 0)
(0.10417663 1.6561052e-07 0)
(0.1036594 1.5887151e-07 0)
(0.10313817 1.5232184e-07 0)
(0.10261245 1.4593554e-07 0)
(0.10208184 1.3970827e-07 0)
(0.10154578 1.3365344e-07 0)
(0.10100366 1.2776055e-07 0)
(0.1004549 1.2200853e-07 0)
(0.099898909 1.1639977e-07 0)
(0.099334978 1.1094571e-07 0)
(0.09876226 1.0561687e-07 0)
(0.09818017 1.00447e-07 0)
(0.09760058 9.5560835e-08 0)
(0.097041819 9.1021332e-08 0)
(0.09650921 8.682444e-08 0)
(0.096000752 8.2953922e-08 0)
(0.095514536 7.9387466e-08 0)
(0.095048828 7.608856e-08 0)
(0.094602154 7.3023939e-08 0)
(0.09417318 7.0178833e-08 0)
(0.093760611 6.7540467e-08 0)
(0.093363266 6.5082389e-08 0)
(0.092980163 6.2781431e-08 0)
(0.0926104 6.0629359e-08 0)
(0.092253097 5.8621045e-08 0)
(0.091907412 5.6752615e-08 0)
(0.09157251 5.5006834e-08 0)
(0.091247756 5.3397766e-08 0)
(0.090932148 5.1881529e-08 0)
(0.090625577 5.0670478e-08 0)
(0.090324505 4.9336174e-08 0)
(0.090033943 4.9448229e-08 0)
(0.089731598 4.7117002e-08 -4.2051727e-23)
(0.089469157 5.8325951e-08 0)
(0.089031385 3.6589615e-08 0)
(1 3.9659056e-09 0)
(0.99998263 1.3873127e-08 0)
(0.99994433 2.4150107e-08 0)
(0.99989577 3.2801084e-08 0)
(0.99983995 4.2156707e-08 0)
(0.99977734 5.3154481e-08 0)
(0.99970815 6.6159864e-08 0)
(0.99963249 8.164758e-08 0)
(0.99955022 1.0032055e-07 0)
(0.99946092 1.2306473e-07 0)
(0.99936393 1.5097929e-07 0)
(0.99925832 1.8551162e-07 0)
(0.99914283 2.2861937e-07 0)
(0.99901572 2.8318612e-07 0)
(0.99887444 3.5307904e-07 0)
(0.99871567 4.4570349e-07 0)
(0.99853322 5.6784789e-07 0)
(0.99832148 7.5105015e-07 0)
(0.9980576 9.8351752e-07 0)
(0.99774667 1.4966799e-06 0)
(0.99724692 1.9661035e-06 0)
(0.99673607 5.6256646e-06 0)
(0.99452048 4.6198124e-06 0)
(0.99451577 0.0016695395 -1.344757e-54)
(0.40723498 0.0018704133 1.0640041e-53)
(0.24612814 0.000227238 -5.9494485e-19)
(0.22056718 3.6154372e-05 0)
(0.21202308 1.451485e-05 -1.083389e-20)
(0.20663057 1.024383e-05 0)
(0.20214674 8.6693444e-06 0)