/*--------------------------------*- C++ -*----------------------------------*\
  =========                 |
  \\      /  F ield         | OpenFOAM: The Open Source CFD Toolbox
   \\    /   O peration     | Website:  https://openfoam.org
    \\  /    A nd           | Version:  12
     \\/     M anipulation  |
\*---------------------------------------------------------------------------*/
FoamFile
{
    format      ascii;
    class       volVectorField;
    location    "1500";
    object      U;
}
// * * * * * * * * * * * * * * * * * * * * * * * * * * * * * * * * * * * * * //

dimensions      [0 1 -1 0 0 0 0];

internalField   nonuniform List<vector> 
7480
(
(0.98683281 0.00053288288 1.0345056e-16)
(0.97532581 0.0012561686 0)
(0.96256647 0.0017335696 0)
(0.94882889 0.0020076253 0)
(0.93434556 0.0021845646 0)
(0.9193201 0.0023135688 0)
(0.90382984 0.0024160934 0)
(0.88789996 0.0025126918 0)
(0.87157369 0.0026181082 0)
(0.8549773 0.0027398631 0)
(0.83830438 0.0028783687 0)
(0.82183544 0.0030272819 0)
(0.80595191 0.0031621554 0)
(0.79111398 0.0032338571 0)
(0.77775174 0.0031644184 0)
(0.76609579 0.0029787083 0)
(0.75620296 0.0025172139 0)
(0.74787299 0.001731519 0)
(0.74081798 0.0024596626 -8.8795121e-17)
(0.73477152 0.0015430242 -5.612252e-17)
(0.72956086 0.00074020037 8.0596851e-18)
(0.72491495 0.0008488581 0)
(0.72064239 0.00033484437 0)
(0.71661689 9.6888962e-05 0)
(0.71274198 -7.8973064e-06 0)
(0.70898138 -5.2639521e-05 0)
(0.70532136 -3.8283822e-05 0)
(0.70175867 -6.5276237e-06 0)
(0.69829832 2.944143e-05 0)
(0.69494958 6.1449453e-05 0)
(0.69171632 8.5991893e-05 0)
(0.68858975 0.00010340228 0)
(0.68555234 0.00011219916 0)
(0.68254097 0.00011398835 0)
(0.67951347 0.00011594103 0)
(0.67646477 0.00012029302 0)
(0.67341299 0.00012509104 0)
(0.67039385 0.00012759822 0)
(0.66744387 0.00012629668 0)
(0.66458871 0.00012144099 0)
(0.66183943 0.00011434663 0)
(0.65919646 0.00010632759 0)
(0.65665427 9.8323482e-05 0)
(0.65420154 9.0352831e-05 0)
(0.65182701 8.1893326e-05 0)
(0.64948162 7.0187792e-05 0)
(0.64708695 4.6898087e-05 0)
(0.64451069 -3.8648607e-06 0)
(0.64153984 -7.9759223e-05 0)
(0.63797666 -0.00014982895 0)
(0.63402923 -0.00016835308 0)
(0.63017785 -0.00015170211 0)
(0.62669633 -0.00011802359 0)
(0.62364035 -9.1993047e-05 0)
(0.62091469 -7.3343783e-05 0)
(0.61841082 -5.8103892e-05 0)
(0.61604296 -4.3652196e-05 0)
(0.61373827 -3.0341887e-05 0)
(0.61150849 -1.9137514e-05 0)
(0.60933956 -1.0082029e-05 0)
(0.60722251 -2.6313149e-06 0)
(0.60514604 3.7293683e-06 0)
(0.60309982 9.0001326e-06 0)
(0.6010768 1.3191323e-05 0)
(0.59907135 1.6400078e-05 0)
(0.597079 1.8725681e-05 0)
(0.59509788 2.027244e-05 0)
(0.59312704 2.1174768e-05 0)
(0.59116484 2.1569905e-05 0)
(0.58920926 2.1562085e-05 0)
(0.58725843 2.1232365e-05 0)
(0.58531062 2.0638381e-05 0)
(0.58336432 1.9819819e-05 0)
(0.58141817 1.8819408e-05 0)
(0.57947071 1.7670083e-05 0)
(0.57752062 1.6398209e-05 0)
(0.57556655 1.5125103e-05 0)
(0.57360709 1.3955154e-05 0)
(0.57164108 1.2830593e-05 0)
(0.56966726 1.1710501e-05 0)
(0.56768461 1.0565668e-05 0)
(0.56569285 9.3899338e-06 0)
(0.56369299 8.1732402e-06 0)
(0.56170034 7.2560838e-06 0)
(0.55986708 1.7926065e-05 0)
(0.55934252 0.00027241492 0)
(0.57008877 0.00038258682 0)
(0.57556384 0.00035067508 0)
(0.5788581 0.00029533898 0)
(0.58009778 0.00023251815 0)
(0.58027316 0.00018250186 0)
(0.5798556 0.00014385328 0)
(0.57910507 0.00011360843 0)
(0.57815085 9.0208774e-05 0)
(0.577072 7.2859945e-05 0)
(0.57589823 6.0354054e-05 0)
(0.57469749 5.1775359e-05 0)
(0.57335777 8.2353183e-05 6.8628882e-20)
(0.5722102 3.7947044e-05 -1.4905947e-19)
(0.56992399 5.9847449e-05 -1.0537854e-17)
(0.99589768 0.0022871195 0)
(0.99632283 0.0034464806 0)
(0.9968698 0.0040225093 0)
(0.99714273 0.0040896197 0)
(0.99714854 0.0041217831 0)
(0.9970031 0.0041179622 0)
(0.99673939 0.0040965589 0)
(0.99631732 0.004050642 0)
(0.99568385 0.003975216 0)
(0.99474483 0.0038569129 0)
(0.99337328 0.0036787469 0)
(0.99139369 0.0034264092 0)
(0.98857729 0.0030924319 0)
(0.98466586 0.0026897141 0)
(0.9794423 0.0022612515 0)
(0.9728334 0.0018607728 0)
(0.96490655 0.0016389477 0)
(0.9558684 0.0013976817 0)
(0.94596793 0.0012325801 0)
(0.93545413 0.0012742952 0)
(0.92458403 0.0012074734 0)
(0.91371964 0.0010857074 0)
(0.90310563 0.0010735547 0)
(0.89293633 0.0010530334 0)
(0.88333204 0.0010054901 0)
(0.87434446 0.00093710869 0)
(0.86599461 0.00085067919 0)
(0.85826432 0.00076762443 0)
(0.85109818 0.00069318937 0)
(0.84441644 0.00062893722 0)
(0.83813372 0.00057657528 0)
(0.83217416 0.00053673395 0)
(0.8264651 0.0005099226 0)
(0.8209862 0.0004935824 0)
(0.81572967 0.00048063173 0)
(0.81068328 0.00046574298 0)
(0.80582892 0.00044733968 0)
(0.80114379 0.0004259243 0)
(0.79660403 0.00040251888 0)
(0.79219352 0.00037851214 0)
(0.78790409 0.00035525701 0)
(0.78373311 0.0003334855 0)
(0.77967903 0.00031355942 0)
(0.77573915 0.00029558697 0)
(0.77191094 0.00028044239 0)
(0.76820325 0.00027063104 0)
(0.7646371 0.00027018829 0)
(0.76125921 0.00028400357 0)
(0.75815954 0.00031080072 0)
(0.7554069 0.0003335935 0)
(0.75283638 0.00033138174 0)
(0.75017901 0.00030550127 0)
(0.74733213 0.00026867345 0)
(0.74432525 0.00023575293 0)
(0.74125071 0.00021151095 0)
(0.73817995 0.00019507509 0)
(0.73514574 0.00018393149 0)
(0.73215467 0.00017478367 0)
(0.72921388 0.00016575791 0)
(0.72632744 0.00015736609 0)
(0.72349648 0.00014966887 0)
(0.72071928 0.00014270095 0)
(0.71799294 0.00013635662 0)
(0.71531499 0.00013055667 0)
(0.71268236 0.00012527036 0)
(0.71009214 0.00012039004 0)
(0.70754305 0.00011579754 0)
(0.70503408 0.00011147269 0)
(0.70256374 0.00010742193 0)
(0.70013044 0.00010362678 0)
(0.69773272 0.00010007362 0)
(0.69536914 9.6741331e-05 0)
(0.69303841 9.3601671e-05 0)
(0.6907394 9.0649744e-05 0)
(0.68847094 8.7871152e-05 0)
(0.686232 8.5250001e-05 0)
(0.68402157 8.2776433e-05 0)
(0.68183859 8.0411815e-05 0)
(0.6796822 7.8144399e-05 0)
(0.67755136 7.6000287e-05 0)
(0.67544512 7.39468e-05 0)
(0.67336289 7.196339e-05 0)
(0.67130379 6.9922508e-05 0)
(0.66926836 6.6450025e-05 0)
(0.66725502 4.3743333e-05 0)
(0.66499974 -0.00013181825 0)
(0.66050482 -0.00016574155 0)
(0.65866657 -8.6236007e-05 0)
(0.65725433 -4.4112497e-05 0)
(0.65594663 -9.8358534e-06 0)
(0.65452018 8.7710084e-06 0)
(0.65297369 1.8642189e-05 0)
(0.65135122 2.3676419e-05 0)
(0.6496864 2.648836e-05 0)
(0.64800454 2.8149994e-05 0)
(0.64630135 2.870618e-05 0)
(0.64462636 2.9137547e-05 0)
(0.64283843 3.135345e-05 0)
(0.64130832 3.1353432e-05 0)
(0.63850191 3.3653298e-05 0)
(0.99617321 0.0021847837 0)
(0.9965409 0.002842519 0)
(0.99711239 0.0030009685 0)
(0.99757807 0.0029793942 0)
(0.99788966 0.0029838799 0)
(0.99814092 0.0030079077 0)
(0.99837989 0.0030360294 0)
(0.99860548 0.0030649363 0)
(0.99881369 0.0030961422 0)
(0.99900739 0.0031280608 0)
(0.99918924 0.003156777 0)
(0.99935413 0.0031795322 0)
(0.99948631 0.0031939274 0)
(0.99956116 0.0032008838 0)
(0.99954369 0.0032064222 0)
(0.99939286 0.0032093822 0)
(0.99905236 0.0031956663 0)
(0.99845271 0.0031797955 0)
(0.99753039 0.0031067082 0)
(0.99619284 0.0030047554 0)
(0.99428167 0.0029142278 0)
(0.99162475 0.0028064756 0)
(0.98812594 0.0026825409 0)
(0.98372344 0.0025529972 0)
(0.97841117 0.0024122413 0)
(0.97223054 0.0022727065 0)
(0.96524731 0.0021265208 0)
(0.95766843 0.0019656578 0)
(0.94969774 0.001805944 0)
(0.94153612 0.0016519365 0)
(0.93337343 0.0015054865 0)
(0.92536627 0.0013680416 0)
(0.91763261 0.0012459499 0)
(0.91024083 0.0011445668 0)
(0.90320854 0.0010606322 0)
(0.89651432 0.00098974014 0)
(0.89011717 0.00092875124 0)
(0.88396904 0.00087513073 0)
(0.87802974 0.00082645668 0)
(0.87227271 0.0007806969 0)
(0.86668257 0.00073670596 0)
(0.86125093 0.00069439364 0)
(0.85596846 0.0006542543 0)
(0.8508264 0.00061635946 0)
(0.84582115 0.0005814773 0)
(0.84096472 0.00055122738 0)
(0.83627244 0.00052722198 0)
(0.83176761 0.00051253912 0)
(0.82748549 0.00050545848 0)
(0.82345094 0.00049976686 0)
(0.81961876 0.00048431226 0)
(0.81589301 0.00045903906 0)
(0.8122006 0.00042979682 0)
(0.80850574 0.00040161844 0)
(0.80481198 0.0003763368 0)
(0.80113968 0.00035419286 0)
(0.79750786 0.00033561022 0)
(0.79392931 0.0003189239 0)
(0.79041265 0.00030282471 0)
(0.78696115 0.00028782547 0)
(0.78357482 0.00027387082 0)
(0.78025342 0.00026099685 0)
(0.77699635 0.00024912145 0)
(0.77380282 0.00023811548 0)
(0.77067047 0.00022790691 0)
(0.7675971 0.00021831002 0)
(0.76458187 0.00020917581 0)
(0.76162306 0.0002004984 0)
(0.75871872 0.00019228139 0)
(0.75586711 0.00018449144 0)
(0.75306676 0.00017710925 0)
(0.75031614 0.00017010657 0)
(0.74761381 0.00016344344 0)
(0.74495848 0.0001571113 0)
(0.74234879 0.00015108717 0)
(0.73978358 0.00014534654 0)
(0.73726168 0.00013986073 0)
(0.73478191 0.00013459511 0)
(0.73234325 0.00012956239 0)
(0.72994455 0.00012477294 0)
(0.72758464 0.00012017386 0)
(0.72526271 0.00011575197 0)
(0.7229773 0.00011150482 0)
(0.72072469 0.00010623679 0)
(0.71847368 9.0607311e-05 0)
(0.71585884 7.6272686e-06 0)
(0.71115422 -5.1215992e-05 0)
(0.70800878 -2.1943646e-05 0)
(0.70546222 1.0360543e-05 0)
(0.7032991 3.5977042e-05 0)
(0.70124399 5.0141361e-05 0)
(0.69921089 5.7000704e-05 0)
(0.69718098 5.9750473e-05 0)
(0.69515653 6.0268835e-05 0)
(0.69314698 5.9578469e-05 0)
(0.69113883 5.8011416e-05 0)
(0.68917664 5.7281882e-05 0)
(0.68710874 5.5368885e-05 0)
(0.68533679 6.0300902e-05 0)
(0.68216216 5.4885343e-05 4.0183743e-20)
(0.99636938 0.0020428761 0)
(0.99666468 0.0026450502 0)
(0.99717665 0.0029790301 0)
(0.99763002 0.0031498559 0)
(0.99794941 0.0032870619 0)
(0.99820796 0.0034022959 0)
(0.99845405 0.0034847889 0)
(0.99869049 0.0035400492 0)
(0.99891398 0.0035747781 0)
(0.99912851 0.0035933517 0)
(0.99933892 0.0035833466 0)
(0.9995457 0.0035478868 0)
(0.9997425 0.0034786301 0)
(0.99991941 0.0033748408 0)
(1.0000654 0.0032370899 0)
(1.0001764 0.0030791734 0)
(1.0002495 0.0029083357 0)
(1.000286 0.0027509897 0)
(1.0003028 0.002632844 0)
(1.0003015 0.0025331636 0)
(1.0002726 0.0024700748 0)
(1.0002109 0.0024389036 0)
(1.0000914 0.0024158952 0)
(0.99987508 0.0024010673 0)
(0.99951309 0.0023917058 0)
(0.99893197 0.002380592 0)
(0.9980509 0.0023650239 0)
(0.99669491 0.0023433375 0)
(0.99472522 0.0023113713 0)
(0.99203108 0.0022671098 0)
(0.98853477 0.0022114581 0)
(0.98421011 0.0021494969 0)
(0.97908039 0.0020732368 0)
(0.97329382 0.0019765544 0)
(0.9670166 0.0018687851 0)
(0.96042618 0.0017547151 0)
(0.95369002 0.0016380207 0)
(0.94694789 0.0015231922 0)
(0.94030166 0.0014167448 0)
(0.93380611 0.0013217546 0)
(0.92747635 0.0012371133 0)
(0.92130322 0.0011617316 0)
(0.91527083 0.0010945951 0)
(0.90936893 0.0010339858 0)
(0.9035939 0.00097814192 0)
(0.89795106 0.00092619247 0)
(0.89245176 0.00087881134 0)
(0.88711064 0.00083713779 0)
(0.88194138 0.00080281968 0)
(0.87695148 0.00077323893 0)
(0.87213127 0.00074261647 0)
(0.86745258 0.00070807251 0)
(0.86288741 0.00067124626 0)
(0.85841136 0.00063467913 0)
(0.85400959 0.0005999888 0)
(0.84967775 0.00056788461 0)
(0.84541898 0.00053908685 0)
(0.84123746 0.0005123977 0)
(0.83713427 0.00048665589 0)
(0.83310893 0.00046233464 0)
(0.82916163 0.00043960456 0)
(0.8252924 0.00041853377 0)
(0.8215004 0.00039886838 0)
(0.81778466 0.00038044969 0)
(0.81414282 0.00036322293 0)
(0.81057298 0.00034695881 0)
(0.80707412 0.00033149524 0)
(0.80364366 0.00031683781 0)
(0.80027932 0.00030296728 0)
(0.79697924 0.00028982029 0)
(0.79374175 0.00027736157 0)
(0.7905651 0.00026554835 0)
(0.7874476 0.0002543221 0)
(0.78438768 0.00024366373 0)
(0.78138373 0.00023353575 0)
(0.77843429 0.000223899 0)
(0.77553797 0.0002147498 0)
(0.77269331 0.00020605193 0)
(0.76989906 0.00019776943 0)
(0.76715384 0.00018990379 0)
(0.76445629 0.00018237939 0)
(0.76180541 0.00017517548 0)
(0.75919963 0.00016829729 0)
(0.75663559 0.0001609761 0)
(0.75408999 0.000146346 0)
(0.7513433 7.6635076e-05 0)
(0.7475861 1.860959e-05 0)
(0.7444051 3.3622429e-05 0)
(0.7415875 5.5251999e-05 0)
(0.73907441 7.5179648e-05 0)
(0.73669857 8.7127847e-05 0)
(0.73438046 9.3080534e-05 0)
(0.73208931 9.5116456e-05 0)
(0.72981781 9.4622507e-05 0)
(0.72757073 9.2929763e-05 0)
(0.72533262 9.0446768e-05 0)
(0.7231471 8.9441339e-05 0)
(0.72085855 8.6146669e-05 0)
(0.71889342 9.6074576e-05 0)
(0.71540583 8.1700012e-05 -3.3225798e-20)
(0.99655567 0.0019822308 0)
(0.99680337 0.0025641779 0)
(0.99724921 0.0029217924 0)
(0.99766148 0.0030775157 0)
(0.99796297 0.0031644669 0)
(0.99820927 0.0032260369 0)
(0.99844589 0.0032635209 0)
(0.99867665 0.003282423 0)
(0.99889716 0.003290672 0)
(0.99910997 0.0032876925 0)
(0.99931945 0.0032731204 0)
(0.99952575 0.0032395978 0)
(0.99972314 0.0031829012 0)
(0.99990323 0.0031032728 0)
(1.000057 0.0030066461 0)
(1.0001791 0.0029062466 0)
(1.0002675 0.0028098102 0)
(1.0003257 0.0027335018 0)
(1.0003703 0.0026863175 0)
(1.0004074 0.0026481107 0)
(1.0004372 0.0026223198 0)
(1.0004687 0.0026032558 0)
(1.0005009 0.0025807196 0)
(1.0005314 0.0025594345 0)
(1.0005608 0.0025375701 0)
(1.0005856 0.002514929 0)
(1.0006002 0.0024918524 0)
(1.0005946 0.0024678189 0)
(1.0005522 0.0024430415 0)
(1.0004472 0.0024178559 0)
(1.000239 0.0023921329 0)
(0.99986555 0.0023643483 0)
(0.99925327 0.0023344263 0)
(0.99825022 0.0023024449 0)
(0.99672109 0.0022653085 0)
(0.99454849 0.0022204232 0)
(0.99165166 0.0021676212 0)
(0.9879955 0.0021051671 0)
(0.98362237 0.0020258674 0)
(0.97865718 0.0019314432 0)
(0.97324901 0.0018300866 0)
(0.9675512 0.0017254383 0)
(0.9617024 0.0016217176 0)
(0.95581019 0.0015243346 0)
(0.94993712 0.0014355615 0)
(0.94411061 0.0013551556 0)
(0.93834349 0.0012831291 0)
(0.93264855 0.0012195087 0)
(0.92704324 0.0011637967 0)
(0.92154498 0.0011133734 0)
(0.91616303 0.0010638995 0)
(0.91089606 0.0010127608 0)
(0.90573722 0.00096097344 0)
(0.90067851 0.00091071324 0)
(0.89571366 0.00086333572 0)
(0.89083859 0.00081920447 0)
(0.88605343 0.00077867136 0)
(0.88135794 0.00074051128 0)
(0.87674848 0.0007037026 0)
(0.8722228 0.00066877362 0)
(0.86778179 0.00063585862 0)
(0.86342601 0.00060502223 0)
(0.85915482 0.0005760464 0)
(0.85496716 0.00054878808 0)
(0.85086181 0.00052319769 0)
(0.84683709 0.00049902031 0)
(0.84289091 0.00047606017 0)
(0.83902132 0.00045431058 0)
(0.83522639 0.000433733 0)
(0.83150429 0.00041423151 0)
(0.82785332 0.00039575145 0)
(0.82427169 0.0003782328 0)
(0.82075767 0.0003615963 0)
(0.81730961 0.00034580967 0)
(0.81392579 0.00033081857 0)
(0.81060465 0.00031656688 0)
(0.80734465 0.00030303697 0)
(0.80414421 0.00029017591 0)
(0.80100195 0.00027794022 0)
(0.79791634 0.00026632693 0)
(0.79488591 0.00025523988 0)
(0.79190956 0.00024465399 0)
(0.78898568 0.00023462 0)
(0.78611187 0.00022461691 0)
(0.78327391 0.00020882432 0)
(0.78035392 0.00014574751 0)
(0.77700225 9.1656444e-05 0)
(0.7738546 9.5520005e-05 0)
(0.77091236 0.00010934334 0)
(0.76817849 0.00012377196 0)
(0.76556705 0.00013265651 0)
(0.76302021 0.00013656546 0)
(0.76050905 0.0001368494 0)
(0.75802316 0.00013489594 0)
(0.75556548 0.00013200684 0)
(0.75312024 0.00012801501 0)
(0.75073113 0.00012624061 0)
(0.74824025 0.00012084345 4.9924759e-20)
(0.74609724 0.00013670696 0)
(0.74231365 0.00011087845 0)
(0.99672898 0.0019374374 0)
(0.9969366 0.0024695977 0)
(0.99732023 0.0028117611 0)
(0.99769427 0.0029725137 0)
(0.99798447 0.0030716112 0)
(0.99822683 0.00315691 0)
(0.9984596 0.0032254116 0)
(0.99868706 0.0032756363 0)
(0.99890432 0.0033102573 0)
(0.99911342 0.0033371385 0)
(0.99931823 0.0033350037 0)
(0.99951848 0.0033178825 0)
(0.9997096 0.0032743883 0)
(0.99988397 0.0032058637 0)
(1.0000334 0.0031170773 0)
(1.0001536 0.0030181707 0)
(1.0002426 0.0029157047 0)
(1.0003037 0.002822882 0)
(1.000351 0.0027472244 0)
(1.0003904 0.0026761338 0)
(1.0004239 0.0026174616 0)
(1.0004593 0.0025702812 0)
(1.0004966 0.0025278054 0)
(1.0005346 0.0024933378 0)
(1.0005746 0.0024640372 0)
(1.0006158 0.0024378945 0)
(1.0006575 0.0024138145 0)
(1.0006986 0.0023904624 0)
(1.0007376 0.0023684522 0)
(1.0007741 0.0023480904 0)
(1.000807 0.0023295242 0)
(1.0008344 0.0023136579 0)
(1.000853 0.0023010151 0)
(1.000855 0.0022906548 0)
(1.0008256 0.0022808436 0)
(1.0007375 0.0022695093 0)
(1.0005453 0.0022548137 0)
(1.0001849 0.0022351165 0)
(0.99954958 0.0022105579 0)
(0.99849314 0.0021807244 0)
(0.99688489 0.0021438138 0)
(0.99462421 0.0021000129 0)
(0.99165292 0.0020475823 0)
(0.98799288 0.0019807838 0)
(0.98374555 0.0019013049 0)
(0.97904152 0.0018152898 0)
(0.97401955 0.0017258858 0)
(0.96880532 0.0016388792 0)
(0.96349478 0.0015596176 0)
(0.95814852 0.0014871915 0)
(0.95279734 0.0014183222 0)
(0.94745778 0.0013505907 0)
(0.94214285 0.0012841654 0)
(0.93686673 0.0012202244 0)
(0.93164248 0.0011596086 0)
(0.92647831 0.0011024825 0)
(0.92138048 0.0010490952 0)
(0.91635359 0.00099844023 0)
(0.9113993 0.00094967285 0)
(0.9065184 0.00090322724 0)
(0.90171288 0.00085916875 0)
(0.89698492 0.00081760247 0)
(0.89233615 0.00077834686 0)
(0.88776732 0.00074126404 0)
(0.88327959 0.00070630802 0)
(0.8788726 0.00067322402 0)
(0.87454451 0.00064180863 0)
(0.87029481 0.00061203096 0)
(0.86612259 0.00058382218 0)
(0.86202674 0.00055706441 0)
(0.85800611 0.00053168982 0)
(0.85405937 0.00050762236 0)
(0.85018517 0.00048476233 0)
(0.84638216 0.00046306454 0)
(0.84264889 0.0004424579 0)
(0.83898397 0.00042286904 0)
(0.83538601 0.00040426772 0)
(0.83185354 0.00038658429 0)
(0.82838524 0.00036976447 0)
(0.82497964 0.0003537992 0)
(0.8216353 0.00033857069 0)
(0.81835114 0.0003240476 0)
(0.81512565 0.00031031121 0)
(0.81195725 0.00029698333 0)
(0.80883764 0.00027880531 0)
(0.80570345 0.00021892681 0)
(0.80240511 0.00016525705 0)
(0.79919163 0.00016179273 0)
(0.79610286 0.00016937851 0)
(0.79315933 0.00017887259 0)
(0.79032153 0.0001843706 0)
(0.78755096 0.00018584369 0)
(0.78482344 0.00018418518 0)
(0.78212717 0.00018042472 0)
(0.7794634 0.00017584802 0)
(0.77681577 0.00017005819 0)
(0.77422782 0.00016734133 0)
(0.77153934 0.000159275 0)
(0.76922278 0.00018211737 3.5545666e-20)
(0.76514881 0.00014270774 0)
(0.9968891 0.0018995644 0)
(0.99706442 0.0023817391 0)
(0.99739505 0.0027143109 0)
(0.99773444 0.0028930192 0)
(0.99801254 0.0030081363 0)
(0.99824897 0.0031032903 0)
(0.99847508 0.0031759686 0)
(0.99869652 0.0032239651 0)
(0.99890871 0.0032530674 0)
(0.99911334 0.0032655614 0)
(0.99931371 0.0032613854 0)
(0.99950881 0.0032362749 0)
(0.99969494 0.0031879922 0)
(0.9998652 0.0031173222 0)
(1.0000122 0.0030285933 0)
(1.0001316 0.0029308799 0)
(1.0002219 0.0028314131 0)
(1.0002862 0.0027427083 0)
(1.0003364 0.0026722973 0)
(1.0003782 0.002611711 0)
(1.0004144 0.0025664003 0)
(1.0004516 0.0025338217 0)
(1.00049 0.0025065282 0)
(1.0005289 0.002484981 0)
(1.0005695 0.0024660961 0)
(1.0006115 0.0024480542 0)
(1.0006543 0.002429875 0)
(1.000697 0.0024107717 0)
(1.0007389 0.0023914439 0)
(1.0007796 0.002372185 0)
(1.0008188 0.0023532894 0)
(1.0008568 0.0023356345 0)
(1.0008944 0.0023192058 0)
(1.000932 0.0023032946 0)
(1.0009694 0.0022875119 0)
(1.0010063 0.002271259 0)
(1.0010408 0.0022544192 0)
(1.0010699 0.0022376448 0)
(1.001087 0.0022212841 0)
(1.0010797 0.0022050267 0)
(1.0010251 0.0021883883 0)
(1.0008826 0.0021703956 0)
(1.0005915 0.0021499779 0)
(1.0000455 0.0021269805 0)
(0.99910082 0.0021004713 0)
(0.99762528 0.0020685721 0)
(0.99551945 0.0020318666 0)
(0.9927284 0.0019852095 0)
(0.98930976 0.0019259529 0)
(0.98536664 0.0018588038 0)
(0.98102618 0.0017834498 0)
(0.97641219 0.0017023538 0)
(0.97162284 0.0016213371 0)
(0.96672285 0.0015436211 0)
(0.96175038 0.0014705713 0)
(0.95673056 0.0014022049 0)
(0.95168691 0.0013380147 0)
(0.94664226 0.0012764638 0)
(0.94161409 0.0012167234 0)
(0.93661397 0.0011593049 0)
(0.93165076 0.0011043525 0)
(0.92673254 0.0010520767 0)
(0.92186658 0.0010023731 0)
(0.91705851 0.00095512921 0)
(0.91231331 0.00091034369 0)
(0.90763444 0.00086782563 0)
(0.90302348 0.00082737671 0)
(0.89848211 0.00078893871 0)
(0.89401151 0.00075243846 0)
(0.88961251 0.000717749 0)
(0.88528555 0.00068479793 0)
(0.88103067 0.00065349979 0)
(0.87684765 0.00062373954 0)
(0.87273611 0.00059546349 0)
(0.86869541 0.00056858709 0)
(0.86472487 0.00054302226 0)
(0.86082368 0.00051872985 0)
(0.85699086 0.0004956255 0)
(0.85322549 0.00047364293 0)
(0.84952646 0.00045276709 0)
(0.84589263 0.00043285833 0)
(0.84232314 0.00041387823 0)
(0.83881677 0.0003959262 0)
(0.83537266 0.00037870238 0)
(0.8319859 0.00035714987 0)
(0.82862004 0.00029704057 0)
(0.82521056 0.00024190037 0)
(0.82185603 0.00023335969 0)
(0.81858934 0.00023583361 0)
(0.81543126 0.00024074983 0)
(0.81236637 0.00024262223 0)
(0.80937081 0.0002412438 0)
(0.8064257 0.00023722434 0)
(0.80351894 0.00023130857 0)
(0.80065015 0.00022476647 0)
(0.79780203 0.00021692501 0)
(0.79501763 0.00021307794 0)
(0.79213411 0.00020189249 0)
(0.78964636 0.00023269239 3.4331784e-20)
(0.78528607 0.00017763905 0)
(0.99703742 0.0018684041 0)
(0.99718725 0.0023054936 0)
(0.99747281 0.0026268461 0)
(0.99777918 0.0028163168 0)
(0.99804293 0.0029391855 0)
(0.99827194 0.0030370893 0)
(0.99849107 0.0031124731 0)
(0.99870657 0.0031642538 0)
(0.99891451 0.0031973716 0)
(0.99911537 0.0032164513 0)
(0.99931151 0.0032179369 0)
(0.99950211 0.0032000754 0)
(0.99968378 0.0031606829 0)
(0.99985027 0.0031000562 0)
(0.99999495 0.0030221147 0)
(1.0001138 0.0029348047 0)
(1.0002054 0.0028452165 0)
(1.0002726 0.0027642784 0)
(1.0003254 0.0026982332 0)
(1.0003694 0.0026407798 0)
(1.0004077 0.0025953897 0)
(1.000446 0.0025595404 0)
(1.0004849 0.0025274337 0)
(1.0005242 0.0024997052 0)
(1.0005649 0.0024744496 0)
(1.0006068 0.0024504885 0)
(1.0006494 0.0024271833 0)
(1.0006919 0.0024039769 0)
(1.0007335 0.0023813679 0)
(1.000774 0.0023596425 0)
(1.0008135 0.0023390797 0)
(1.0008522 0.0023203195 0)
(1.0008908 0.0023033021 0)
(1.00093 0.0022875345 0)
(1.0009703 0.0022726655 0)
(1.0010114 0.002257856 0)
(1.0010525 0.002242615 0)
(1.0010928 0.002226877 0)
(1.0011321 0.0022103226 0)
(1.0011695 0.0021930835 0)
(1.0012044 0.0021758255 0)
(1.001236 0.0021591879 0)
(1.0012621 0.0021438865 0)
(1.001277 0.0021300711 0)
(1.0012675 0.0021171936 0)
(1.0012079 0.0021044671 0)
(1.0010506 0.0020905787 0)
(1.0007275 0.002075765 0)
(1.0000996 0.0020600803 0)
(0.99902742 0.002040204 0)
(0.99739065 0.0020128105 0)
(0.99510776 0.0019721243 0)
(0.99219637 0.0019156098 0)
(0.98874128 0.0018484834 0)
(0.98485963 0.0017749444 0)
(0.9806703 0.0016995711 0)
(0.97626886 0.001626722 0)
(0.9717185 0.0015563981 0)
(0.96705767 0.0014883305 0)
(0.96231502 0.0014229062 0)
(0.95751784 0.0013597999 0)
(0.95269101 0.0012989381 0)
(0.94785425 0.0012403222 0)
(0.94302252 0.001183974 0)
(0.93820858 0.0011300408 0)
(0.93342339 0.0010784735 0)
(0.92867542 0.0010291454 0)
(0.92397134 0.00098204085 0)
(0.9193166 0.00093711736 0)
(0.91471577 0.00089426324 0)
(0.91017256 0.00085342505 0)
(0.90568974 0.00081452715 0)
(0.90126946 0.00077745393 0)
(0.89691337 0.00074215543 0)
(0.89262257 0.00070854325 0)
(0.88839784 0.00067652242 0)
(0.88423965 0.0006460517 0)
(0.88014812 0.00061703711 0)
(0.87612327 0.00058940417 0)
(0.8721648 0.00056313525 0)
(0.86827226 0.00053807102 0)
(0.86444539 0.00051416776 0)
(0.86068351 0.00049153759 0)
(0.85698652 0.00046992411 0)
(0.85335163 0.00044427522 0)
(0.84975523 0.00038184419 0)
(0.84616943 0.00032421383 0)
(0.84263645 0.00031136603 0)
(0.83917626 0.00030929602 0)
(0.8358042 0.00030982289 0)
(0.83251612 0.00030787191 0)
(0.82929854 0.00030325273 0)
(0.82613781 0.00029644175 0)
(0.82302254 0.00028799095 0)
(0.8199512 0.00027916762 0)
(0.81690554 0.00026898016 0)
(0.81392794 0.00026378131 0)
(0.81085265 0.00024903994 -2.0649322e-20)
(0.80819654 0.00028873182 0)
(0.80355487 0.00021596961 1.0817916e-20)
(0.99717524 0.0018416048 0)
(0.99730485 0.0022381515 0)
(0.997552 0.0025452779 0)
(0.99782744 0.0027403756 0)
(0.99807591 0.0028700454 0)
(0.99829705 0.0029723865 0)
(0.99850929 0.0030529664 0)
(0.99871865 0.0031102956 0)
(0.99892184 0.0031479519 0)
(0.99911832 0.0031698756 0)
(0.99930975 0.0031735208 0)
(0.99949555 0.0031578378 0)
(0.99967251 0.0031211376 0)
(0.99983504 0.0030638864 0)
(0.99997721 0.0029899312 0)
(1.0000953 0.0029064246 0)
(1.0001878 0.0028203168 0)
(1.0002576 0.0027413491 0)
(1.000313 0.0026750881 0)
(1.0003592 0.0026174724 0)
(1.0003997 0.0025712268 0)
(1.0004395 0.0025344017 0)
(1.0004795 0.0025025262 0)
(1.0005197 0.0024758109 0)
(1.0005611 0.0024524242 0)
(1.0006035 0.0024309411 0)
(1.0006463 0.00241044 0)
(1.0006889 0.0023901805 0)
(1.0007307 0.0023703602 0)
(1.0007713 0.0023511959 0)
(1.0008109 0.0023328979 0)
(1.0008497 0.0023159681 0)
(1.0008884 0.0023004105 0)
(1.0009275 0.0022857992 0)
(1.0009673 0.0022717052 0)
(1.0010079 0.0022573215 0)
(1.0010488 0.0022421741 0)
(1.0010895 0.0022262201 0)
(1.0011296 0.0022093753 0)
(1.0011688 0.0021920337 0)
(1.001207 0.0021748519 0)
(1.001244 0.0021582019 0)
(1.0012797 0.0021422952 0)
(1.0013143 0.0021269164 0)
(1.0013476 0.0021121018 0)
(1.0013788 0.0020982487 0)
(1.001407 0.0020860827 0)
(1.0014297 0.0020765229 0)
(1.0014387 0.0020696337 0)
(1.0014159 0.0020634826 0)
(1.001321 0.0020540609 0)
(1.001089 0.0020389574 0)
(1.0005913 0.0020186394 0)
(0.99968114 0.0019932348 0)
(0.99823206 0.0019632121 0)
(0.99615855 0.0019240788 0)
(0.99348298 0.0018730151 0)
(0.99028591 0.0018128399 0)
(0.98667831 0.0017457867 0)
(0.98276805 0.0016765845 0)
(0.97863698 0.0016084508 0)
(0.97433782 0.0015422523 0)
(0.96990666 0.0014782363 0)
(0.96537541 0.0014161258 0)
(0.96077428 0.0013557852 0)
(0.95612872 0.0012972563 0)
(0.95145843 0.0012405874 0)
(0.9467795 0.0011859314 0)
(0.94210561 0.0011333702 0)
(0.9374483 0.001082877 0)
(0.93281702 0.0010344728 0)
(0.9282195 0.00098813356 0)
(0.92366222 0.00094377665 0)
(0.91915052 0.00090138366 0)
(0.91468861 0.0008608833 0)
(0.91028 0.00082219098 0)
(0.9059275 0.00078527764 0)
(0.90163323 0.00075005075 0)
(0.89739895 0.00071643721 0)
(0.89322586 0.00068442502 0)
(0.88911479 0.00065384108 0)
(0.88506663 0.00062464166 0)
(0.88108167 0.00059695224 0)
(0.87716083 0.00057054212 0)
(0.87330295 0.000540282 0)
(0.86949076 0.0004744157 0)
(0.86571263 0.00041350692 0)
(0.86199114 0.00039636229 0)
(0.85833699 0.00038990707 0)
(0.85475936 0.00038610461 0)
(0.85125844 0.00038016605 0)
(0.8478276 0.00037198416 0)
(0.84445798 0.00036200518 0)
(0.8411398 0.00035065991 0)
(0.8378711 0.000339236 0)
(0.83463291 0.00032640606 0)
(0.83146703 0.00031963498 0)
(0.82820468 0.00030089714 0)
(0.82538423 0.0003504381 3.4096144e-20)
(0.82046762 0.00025787376 0)
(0.99730381 0.0018182061 0)
(0.99741719 0.002178543 0)
(0.99763179 0.0024698768 0)
(0.99787885 0.0026674033 0)
(0.99811166 0.0028030765 0)
(0.99832431 0.0029095134 0)
(0.99852933 0.0029939782 0)
(0.99873208 0.0030551782 0)
(0.99892993 0.003095825 0)
(0.99912171 0.0031196634 0)
(0.99930841 0.0031257519 0)
(0.99948948 0.0031131255 0)
(0.99966191 0.003080594 0)
(0.99982065 0.0030287914 0)
(0.99996043 0.0029613016 0)
(1.0000777 0.0028844559 0)
(1.0001712 0.0028048531 0)
(1.0002433 0.0027311208 0)
(1.0003011 0.0026682393 0)
(1.0003496 0.0026137614 0)
(1.0003922 0.0025696957 0)
(1.0004335 0.0025342657 0)
(1.0004746 0.0025037249 0)
(1.0005156 0.002477787 0)
(1.0005574 0.0024547126 0)
(1.0006 0.0024331368 0)
(1.000643 0.0024122252 0)
(1.0006857 0.0023913882 0)
(1.0007276 0.002370831 0)
(1.0007684 0.0023508593 0)
(1.0008082 0.0023317337 0)
(1.0008473 0.0023139249 0)
(1.0008861 0.0022974999 0)
(1.0009253 0.0022820802 0)
(1.0009652 0.0022672384 0)
(1.0010057 0.0022522765 0)
(1.0010465 0.0022367632 0)
(1.001087 0.0022206649 0)
(1.0011269 0.0022039471 0)
(1.0011659 0.0021869103 0)
(1.0012037 0.0021700429 0)
(1.0012405 0.0021536268 0)
(1.0012766 0.0021378346 0)
(1.0013122 0.0021225843 0)
(1.0013473 0.0021080623 0)
(1.001382 0.0020946204 0)
(1.0014162 0.0020826404 0)
(1.0014501 0.002072398 0)
(1.001485 0.0020639765 0)
(1.0015212 0.0020565249 0)
(1.001558 0.0020478974 0)
(1.0015911 0.002036994 0)
(1.0016107 0.0020245759 0)
(1.0015975 0.0020114946 0)
(1.0015119 0.0019973451 0)
(1.0012897 0.0019817087 0)
(1.0007955 0.0019640722 0)
(0.99988352 0.0019419334 0)
(0.99842777 0.0019130146 0)
(0.99636487 0.0018733899 0)
(0.99373547 0.0018222897 0)
(0.99062889 0.0017631843 0)
(0.98715211 0.0016998455 0)
(0.98339711 0.0016359984 0)
(0.97942716 0.0015729102 0)
(0.97528496 0.0015111549 0)
(0.9710064 0.0014506868 0)
(0.96662523 0.0013914817 0)
(0.96217037 0.0013336573 0)
(0.95766485 0.0012773526 0)
(0.95312777 0.0012227695 0)
(0.94857555 0.0011700238 0)
(0.94402206 0.0011191372 0)
(0.93947876 0.0010701811 0)
(0.93495523 0.0010231443 0)
(0.93045957 0.00097798785 0)
(0.92599852 0.00093472415 0)
(0.92157758 0.00089328357 0)
(0.91720146 0.00085361294 0)
(0.91287388 0.0008157216 0)
(0.90859785 0.0007794343 0)
(0.90437616 0.00074471812 0)
(0.90021076 0.00071171833 0)
(0.89610408 0.00068022348 0)
(0.89205668 0.00064500584 0)
(0.88805494 0.00057508925 0)
(0.88409491 0.00051030467 0)
(0.8801936 0.00048863112 0)
(0.87635705 0.00047774031 0)
(0.8725896 0.00046957296 0)
(0.86889233 0.00045949735 0)
(0.86526276 0.00044748719 0)
(0.86169611 0.00043401462 0)
(0.85818479 0.00041944361 0)
(0.85472723 0.00040511122 0)
(0.8513042 0.00038934926 0)
(0.84795717 0.00038079113 0)
(0.84451436 0.00035760903 0)
(0.84153514 0.00041781048 0)
(0.83635202 0.00030350182 0)
(0.9974242 0.0017973501 0)
(0.99752442 0.0021254697 0)
(0.99771152 0.0024003725 0)
(0.99793285 0.0025975681 0)
(0.99814992 0.0027376778 0)
(0.99835346 0.0028473167 0)
(0.99855098 0.0029347178 0)
(0.99874686 0.0029993095 0)
(0.99893905 0.0030431411 0)
(0.99912594 0.0030696386 0)
(0.99930788 0.0030787742 0)
(0.99948421 0.0030695915 0)
(0.99965213 0.003041272 0)
(0.99980711 0.0029945717 0)
(0.99994442 0.0029327922 0)
(1.0000608 0.0028615898 0)
(1.0001549 0.0027872028 0)
(1.000229 0.0027173297 0)
(1.0002891 0.0026565228 0)
(1.0003396 0.0026035809 0)
(1.0003843 0.0025600486 0)
(1.000427 0.0025243973 0)
(1.0004691 0.0024935987 0)
(1.0005109 0.002467187 0)
(1.0005533 0.0024436645 0)
(1.0005962 0.0024218197 0)
(1.0006393 0.0024008864 0)
(1.0006822 0.0023803254 0)
(1.0007243 0.0023602413 0)
(1.0007654 0.0023408837 0)
(1.0008054 0.0023224578 0)
(1.0008448 0.0023053258 0)
(1.0008839 0.0022895324 0)
(1.0009233 0.0022747082 0)
(1.0009632 0.0022604192 0)
(1.0010037 0.0022460279 0)
(1.0010445 0.0022311004 0)
(1.001085 0.0022155661 0)