/*--------------------------------*- C++ -*----------------------------------*\
  =========                 |
  \\      /  F ield         | OpenFOAM: The Open Source CFD Toolbox
   \\    /   O peration     | Website:  https://openfoam.org
    \\  /    A nd           | Version:  12
     \\/     M anipulation  |
\*---------------------------------------------------------------------------*/
FoamFile
{
    format      ascii;
    class       volScalarField;
    location    "1200";
    object      epsilon;
}
// * * * * * * * * * * * * * * * * * * * * * * * * * * * * * * * * * * * * * //

dimensions      [0 2 -3 0 0 0 0];

internalField   nonuniform List<scalar> 
13056
(
0.0019506019
0.0016303188
0.0014469501
0.0013723564
0.0013360572
0.0013131946
0.0012968975
0.0012847676
0.0012755415
0.0012684123
0.0012628401
0.0012584558
0.0012550011
0.0012522913
0.0012501922
0.0012486046
0.0012474575
0.001246704
0.0012462752
0.0012464797
0.0012453946
0.0012537132
0.0012212948
0.0024096169
66.443217
82.175355
76.17368
70.147081
65.662468
62.020096
58.930081
56.29246
54.028837
52.063113
50.334121
48.7974
47.420918
46.178146
45.045937
44.007463
43.049989
42.162323
41.335452
40.561949
39.835591
39.151215
38.504268
37.890992
37.308202
36.753032
36.223186
35.716556
35.231061
34.764996
34.316849
33.885128
33.468527
33.065997
32.676555
32.299212
31.933154
31.57771
31.232191
30.895886
30.56821
30.248682
29.936805
29.632057
29.333979
29.04222
28.756453
28.476278
28.201296
27.931259
27.665927
27.404999
27.148175
26.89518
26.64583
26.399939
26.157263
25.917549
25.680621
25.446335
25.214524
24.984979
24.75748
24.531918
24.308176
24.086078
23.865445
23.646113
23.42798
23.210938
22.994812
22.779418
22.564656
22.350423
22.13656
21.922898
21.70929
21.495628
21.281774
21.067546
20.852774
20.637338
20.421083
20.203803
19.985314
19.765463
19.544041
19.32077
19.095511
18.872887
18.659821
18.458112
18.266807
18.085032
17.911978
17.74696
17.589368
17.438635
17.294232
17.155685
17.02259
16.894564
16.771243
16.652257
16.537303
16.425929
16.318111
16.212447
16.110684
16.005928
15.913661
15.763641
0.0019495776
0.001629413
0.0014460642
0.0013714543
0.0013351458
0.0013122794
0.0012959803
0.0012838489
0.0012746217
0.0012674915
0.0012619185
0.0012575334
0.001254078
0.0012513676
0.0012492679
0.0012476797
0.0012465319
0.0012457779
0.0012453484
0.0012455528
0.0012444633
0.0012528041
0.0012202694
0.0024014533
38.141974
44.436588
40.679268
37.240454
34.729948
32.711751
31.010912
29.565935
28.330464
27.260865
26.322505
25.490372
24.746534
24.076187
23.46646
22.908048
22.393911
21.917859
21.474934
21.061054
20.672801
20.307345
19.962191
19.635285
19.324887
19.029428
18.747658
18.478427
18.220603
17.97326
17.735577
17.506745
17.286056
17.072944
16.866874
16.667312
16.473818
16.28603
16.103574
15.926068
15.753197
15.584701
15.420312
15.25975
15.102769
14.949179
14.798805
14.651432
14.506848
14.364918
14.225513
14.088474
13.953639
13.820863
13.690047
13.56109
13.433865
13.308234
13.184107
13.061405
12.940039
12.8199
12.700871
12.582894
12.465906
12.349815
12.234527
12.119955
12.006045
11.89274
11.77995
11.667576
11.555567
11.443869
11.332399
11.221067
11.109799
10.998537
10.88721
10.775723
10.663988
10.551943
10.439509
10.326576
10.213052
10.098858
9.9838843
9.8679889
9.7511007
9.6356186
9.5251297
9.4205625
9.3214172
9.2272369
9.1375992
9.0521451
8.9705563
8.8925365
8.81781
8.7461287
8.6772826
8.6110715
8.547306
8.485793
8.4263757
8.3688178
8.3131073
8.258517
8.2059538
8.1518417
8.1042
8.026754
0.0019460655
0.0016262044
0.0014428266
0.0013681333
0.00133178
0.0013088902
0.0012925756
0.0012804324
0.0012711956
0.0012640576
0.0012584779
0.0012540869
0.0012506264
0.0012479112
0.0012458071
0.0012442147
0.0012430627
0.0012423045
0.0012418706
0.0012420708
0.0012409731
0.0012493394
0.0012166181
0.0023895602
35.345569
37.111143
33.202193
30.094364
27.894452
26.153765
24.700878
23.474531
22.431213
21.531641
20.745149
20.049783
19.429939
18.872758
18.367087
17.904945
17.480293
17.087805
16.723252
16.383152
16.064596
15.765176
15.482776
15.215656
14.962343
14.721506
14.492091
14.273127
14.06366
13.862915
13.670204
13.484848
13.306252
13.133946
12.967484
12.806415
12.650375
12.499061
12.352162
12.20936
12.070393
11.935045
11.803095
11.67431
11.548485
11.425466
11.305107
11.18723
11.07166
10.958288
10.847006
10.737684
10.630189
10.524401
10.42024
10.317625
10.21645
10.116604
10.018012
9.9206119
9.8243309
9.7290794
9.6347636
9.5413372
9.4487493
9.3569257
9.2657901
9.1752737
9.0853335
8.9959239
8.9069717
8.8184005
8.7301687
8.6422333
8.5545292
8.4669866
8.3795454
8.2921616
8.2047798
8.1173254
8.0297297
7.941945
7.8539098
7.7655404
7.6767643
7.5875209
7.4977272
7.4072732
7.3161056
7.2260954
7.1400334
7.0586342
6.9815014
6.908273
6.8386146
6.7722419
6.7089031
6.6483641
6.5904075
6.5348376
6.4814886
6.430203
6.3808316
6.3332228
6.2872536
6.2427386
6.1996686
6.1574746
6.1168689
6.075057
6.0382811
5.978527
0.0019399827
0.0016206228
0.0014371694
0.0013623238
0.0013258891
0.0013029556
0.0012866119
0.0012744463
0.0012651914
0.0012580384
0.001252446
0.0012480441
0.0012445737
0.0012418497
0.0012397372
0.0012381368
0.001236977
0.0012362109
0.0012357686
0.0012359605
0.0012348507
0.0012432396
0.0012102725
0.0023742302
35.80313
34.624704
30.398465
27.369393
25.279503
23.645664
22.29057
21.150768
20.183351
19.350685
18.623681
17.981641
17.409952
16.896572
16.43103
16.005895
15.615547
15.255004
14.920334
14.608302
14.3162
14.041795
13.783118
13.538558
13.306748
13.08645
12.87669
12.67657
12.485202
12.301874
12.125952
11.956806
11.793886
11.636759
11.485014
11.338234
11.196082
11.05828
10.924543
10.794574
10.668133
10.545022
10.425039
10.307967
10.193619
10.081852
9.9725336
9.8654991
9.7605875
9.6576993
9.5567366
9.4575782
9.3601027
9.2642009
9.1697996
9.076824
8.9851768
8.8947575
8.8054973
8.7173391
8.6302171
8.5440491
8.4587498
8.3742771
8.2905848
8.2076053
8.1252691
8.0435138
7.9623007
7.8815885
7.8013106
7.721398
7.6418134
7.5625179
7.4834528
7.4045553
7.3257713
7.2470614
7.1683762
7.0896483
7.0108165
6.9318383
6.8526588
6.7732032
6.6934069
6.6132163
6.5325575
6.4513326
6.3694952
6.2887251
6.2115237
6.1385279
6.0693794
6.0037507
5.9413395
5.8818887
5.8251704
5.7709734
5.7191014
5.6693778
5.6216529
5.5757844
5.5316379
5.4890768
5.4479905
5.4082114
5.3697325
5.3320381
5.2957785
5.258422
5.2255984
5.1722845
0.0019312039
0.0016125613
0.0014289891
0.0013539198
0.0013173652
0.001294367
0.0012779798
0.0012657808
0.0012564989
0.0012493236
0.0012437122
0.0012392939
0.001235809
0.0012330716
0.0012309468
0.0012293345
0.0012281629
0.0012273851
0.0012269303
0.0012271095
0.0012259835
0.0012343849
0.0012011232
0.002354562
35.73996
32.871913
28.455999
25.508753
23.519327
21.979482
20.708509
19.641914
18.737804
17.960289
17.281821
16.682877
16.14976
15.671179
15.237286
14.841133
14.477471
14.141627
13.829923
13.539341
13.267347
13.011856
12.771027
12.543359
12.327576
12.122516
11.927275
11.741015
11.562906
11.392285
11.228563
11.071151
10.919537
10.773317
10.63211
10.495525
10.363247
10.235021
10.110578
9.9896417
9.8719892
9.7574372
9.6457965
9.5368647
9.4304666
9.3264719
9.2247558
9.1251651
9.0275492
8.9318163
8.8378752
8.7456131
8.6549167
8.565684
8.4778475
8.3913378
8.3060639
8.2219321
8.1388783
8.0568498
7.9757853
7.8956082
7.8162388
7.7376384
7.6597637
7.582552
7.5059384
7.4298645
7.354295
7.2791909
7.2044904
7.1301292
7.0560726
6.9822842
6.9087097
6.8352904
6.7619758
6.6887296
6.6155056
6.5422411
6.468879
6.3953798
6.3216924
6.2477472
6.1734839
6.0988526
6.0237848
5.9481892
5.8720229
5.7968496
5.7249963
5.6570559
5.5926952
5.5316097
5.4735183
5.4181819
5.3653883
5.3149412
5.2666578
5.2203741
5.1759507
5.1332552
5.0921625
5.0525455
5.0143014
4.9772735
4.9414567
4.9063652
4.8726173
4.8378241
4.8072772
4.757667
0.0019195676
0.0016018834
0.001418154
0.0013427862
0.0013060708
0.0012829855
0.0012665396
0.0012542955
0.0012449773
0.0012377718
0.0012321349
0.0012276944
0.0012241898
0.0012214345
0.0012192929
0.0012176646
0.0012164772
0.0012156835
0.0012152118
0.0012153737
0.001214227
0.0012226305
0.0011890197
0.0023294118
34.795369
31.210732
26.720899
23.870012
21.983186
20.535967
19.346588
18.350411
17.506865
16.781909
16.149563
15.591476
15.094832
14.649082
14.245
13.876096
13.537481
13.224782
12.934571
12.664032
12.410803
12.172941
11.948726
11.736763
11.535862
11.344939
11.16315
10.989718
10.823869
10.664985
10.51252
10.365925
10.224721
10.088536
9.9570128
9.8297878
9.7065681
9.5871159
9.471182
9.3585087
9.2488874
9.1421489
9.0381172
8.9366034
8.8374439
8.7405182
8.6457108
8.5528782
8.4618801
8.3726313
8.2850474
8.1990232
8.1144528
8.031241
7.9493257
7.8686424
7.7891058
7.7106286
7.6331512
7.5566245
7.4809919
7.4061812
7.3321184
7.2587675
7.1860882
7.1140217
7.0425077
6.9714914
6.9009399
6.8308171
6.7610648
6.6916232
6.6224595
6.55354
6.4848138
6.4162258
6.3477288
6.2792888
6.2108626
6.1423912
6.0738211
6.0051154
5.9362259
5.8670873
5.7976429
5.7278459
5.6576318
5.5869151
5.5156552
5.4453153
5.3780727
5.3144829
5.2542356
5.1970471
5.1426553
5.0908369
5.0413943
4.994144
4.9489157
4.9055565
4.8639361
4.8239308
4.7854239
4.7482966
4.7124532
4.6777461
4.6441724
4.6112717
4.5796351
4.5469954
4.5183575
4.4718478
0.0019048845
0.0015884308
0.0014045133
0.0013287683
0.0012918478
0.0012686513
0.0012521306
0.0012398291
0.0012304645
0.0012232205
0.0012175511
0.0012130823
0.0012095525
0.0012067743
0.0012046112
0.0012029623
0.0012017547
0.0012009407
0.0012004475
0.0012005872
0.0011994149
0.0012078104
0.0011737871
0.0022975872
33.159767
29.564605
25.083438
22.33602
20.550717
19.193209
18.082124
17.153235
16.367419
15.692492
15.104018
14.584777
14.12279
13.708218
13.332443
12.989409
12.674564
12.38383
12.114012
11.862489
11.627062
11.405921
11.197467
11.000399
10.813613
10.636098
10.467069
10.305804
10.151583
10.003832
9.862044
9.7257082
9.5943793
9.4677115
9.3453741
9.2270278
9.1124002
9.0012708
8.8934084
8.788573
8.6865703
8.5872439
8.4904303
8.3959536
8.3036613
8.2134421
8.1251888
8.0387677
7.9540482
7.8709512
7.7893986
7.7092924
7.6305342
7.5530352
7.4767378
7.4015823
7.3274891
7.2543771
7.1821905
7.110884
7.0404049
6.9706859
6.901658
6.8332876
6.7655374
6.6983526
6.6316768
6.5654588
6.4996681
6.434271
6.3692131
6.3044386
6.2399167
6.175616
6.1114888
6.0474838
5.9835566
5.9196755
5.8557998
5.7918745
5.7278493
5.6636894
5.5993499
5.5347691
5.4698941
5.4046807
5.3390682
5.2729765
5.2063674
5.1406084
5.0777353
5.0182683
4.9619187
4.9084226
4.8575356
4.8090497
4.7627809
4.7185583
4.6762231
4.6356328
4.5966659
4.5592072
4.5231479
4.4883768
4.4548049
4.4222938
4.390842
4.3600144
4.3303738
4.2997741
4.2729399
4.2293585
0.0018869476
0.0015720344
0.0013879081
0.0013117029
0.0012745296
0.0012511957
0.0012345828
0.0012222105
0.0012127887
0.0012054974
0.0011997877
0.001195284
0.0011917231
0.0011889166
0.001186727
0.0011850527
0.0011838201
0.001182981
0.0011824612
0.0011825733
0.0011813702
0.0011897481
0.0011552392
0.0022578876
31.048889
27.937704
23.523921
20.881994
19.194865
17.922999
16.886229
16.021049
15.289821
14.66217
14.115145
13.632605
13.203353
12.818227
12.469192
12.150597
11.858207
11.588226
11.337678
11.104127
10.885526
10.680192
10.48664
10.303659
10.130223
9.9653909
9.8084348
9.6586843
9.515469
9.3782571
9.2465787
9.1199588
8.9979836
8.8803322
8.7666983
8.6567664
8.550283
8.447044
8.3468351
8.2494329
8.1546571
8.0623626
7.9723982
7.8846002
7.7988267
7.7149747
7.6329449
7.5526133
7.4738581
7.396606
7.3207846
7.2463033
7.1730704
7.101003
7.0300481
6.9601504
6.8912358
6.8232288
6.7560775
6.68974
6.6241672
6.5592967
6.4950641
6.4314383
6.3683845
6.3058519
6.2437877
6.1821443
6.1208935
6.0600037
5.9994242
5.939103
5.8790113
5.8191197
5.759384
5.699756
5.6401943
5.5806693
5.521143
5.4615637
5.4018846
5.342073
5.2820867
5.2218681
5.1613674
5.1005431
5.0393386
4.9776785
4.915527
4.8541601
4.7954779
4.7399665
4.6873577
4.6374063
4.589885
4.5446005
4.5013812
4.4600685
4.4205145
4.3825867
4.346172
4.3111631
4.2774587
4.2449552
4.2135699
4.183173
4.1537644
4.1249341
4.0972158
4.0685847
4.0434874
4.0027258
0.001865544
0.0015525254
0.0013681839
0.0012914315
0.0012539531
0.0012304534
0.0012137296
0.0012012721
0.0011917814
0.001184433
0.0011786748
0.001174129
0.0011705306
0.0011676898
0.0011654682
0.0011637633
0.0011625004
0.0011616311
0.0011610792
0.0011611581
0.0011599185
0.0011682693
0.0011331925
0.0022091304
28.626293
26.339993
22.037675
19.500392
17.907001
16.716284
15.749687
14.944577
14.264779
13.681654
13.173666
12.725694
12.327276
11.969885
11.64604
11.350472
11.079241
10.828819
10.596436
10.379828
10.177093
9.9866679
9.8071712
9.6374799
9.4766414
9.3237805
9.1782209
9.0393415
8.9065201
8.7792629
8.6571348
8.5396953
8.4265599
8.3174313
8.2120257
8.1100502
8.0112694
7.9154943
7.8225263
7.7321581
7.6442224
7.5585846
7.475105
7.3936316
7.3140326
7.2362124
7.1600795
7.0855187
7.0124169
6.940706
6.8703192
6.8011725
6.7331806
6.6662666
6.6003815
6.5354739
6.4714754
6.4083155
6.345946
6.2843283
6.2234168
6.1631535
6.1034785
6.0443629
5.9857745
5.9276661
5.8699886
5.8126977
5.7557671
5.6991674
5.6428517
5.5867712
5.5308993
5.4752086
5.4196577
5.3642019
5.3088025
5.2534319
5.1980546
5.1426225
5.0870917
5.0314316
4.9756028
4.9195514
4.863231
4.8066026
4.7496131
4.6921922
4.6343063
4.5771438
4.5224748
4.4707528
4.4217291
4.3751759
4.3308822
4.2886686
4.2483757
4.2098561
4.1729725
4.1376018
4.1036389
4.0709841
4.0395432
4.0092198
3.9799371
3.9515739
3.9241311
3.8972233
3.8713547
3.8446214
3.8211954
3.7831475
0.0018404664
0.0015297476
0.0013452036
0.0012678138
0.0012299737
0.0012062772
0.0011894219
0.0011768637
0.0011672915
0.0011598755
0.0011540598
0.001149464
0.0011458211
0.0011429397
0.0011406801
0.0011389388
0.00113764
0.0011367348
0.0011361449
0.0011361843
0.0011349022
0.0011432167
0.0011074822
0.0021502016
26.011547
24.777368
20.622414
18.187338
16.682768
15.568638
14.668145
13.919578
13.288171
12.746933
12.275672
11.860228
11.490825
11.159533
10.8594
10.58551
10.3342
10.102195
9.8869204
9.6862726
9.4984854
9.3221084
9.1558591
8.998695
8.8497327
8.70816
8.5733488
8.4447239
8.3217087
8.203845
8.0907301
7.9819563
7.8771667
7.7760857
7.6784509
7.5839909
7.492487
7.4037643
7.3176391
7.2339195
7.15245
7.0731062
6.9957589
6.9202674
6.8465092
6.7743961
6.7038432
6.6347441
6.5669938
6.5005291
6.4352883
6.3711936
6.3081661
6.2461344
6.1850531
6.1248748
6.0655359
6.0069712
5.9491358
5.8919941
5.8355039
5.7796113
5.7242609
5.6694256
5.6150758
5.5611676
5.5076555
5.4544982
5.4016715
5.349148
5.2968841
5.2448345
5.1929743
5.1412781
5.0897075
5.0382208
4.986782
4.9353654
4.883938
4.8324548
4.780875
4.7291701
4.6773032
4.6252242
4.5728895
4.5202629
4.4672948
4.4139197
4.3601058
4.3069583
4.2561229
4.2080221
4.1624254
4.1191216
4.0779152
4.0386398
4.0011477
3.9653019
3.9309754
3.8980539
3.86644
3.8360411
3.8067696
3.7785364
3.7512699
3.7248573
3.6993001
3.6742376
3.6501437
3.6252343
3.6034119
3.5679679
0.0018115276
0.0015035715
0.001318863
0.0012407432
0.0012024802
0.0011785529
0.0011615441
0.0011488683
0.0011392011
0.001131706
0.0011258231
0.0011211687
0.0011174737
0.0011145447
0.0011122406
0.0011104565
0.0011091158
0.0011081685
0.0011075342
0.0011075274
0.0011061964
0.0011144653
0.001077981
0.0020801351
23.294774
23.251884
19.276105
16.940128
15.519267
14.477224
13.638913
12.943521
12.357617
11.855764
11.419041
11.034193
10.692085
10.385346
10.107523
9.8540333
9.6214732
9.4068064
9.2076389
9.0220197
8.8483106
8.6851657
8.5313967
8.3860361
8.2482656
8.1173325
7.9926537
7.8736971
7.7599291
7.6509249
7.5463119
7.4457134
7.3487987
7.2553122
7.1650117
7.0776461
6.9930126
6.9109491
6.8312863
6.7538464
6.6784854
6.6050882
6.5335356
6.4636975
6.3954603
6.3287422
6.2634653
6.1995308
6.1368418
6.0753395
6.014967
5.9556525
5.897323
5.8399122
5.7833781
5.7276771
5.6727503
5.6185374
5.5649966
5.5120951
5.4597938
5.4080429
5.356791
5.3060131
5.2556816
5.2057561
5.1561943
5.1069579
5.0580244
5.0093686
4.9609499
4.9127263
4.8646747
4.8167714
4.768981
4.7212645
4.6735887
4.6259295
4.5782563
4.5305273
4.4827045
4.4347615
4.3866637
4.3383645
4.2898235
4.2410068
4.1918682
4.1423467
4.0924127
4.0430917
3.9959111
3.9512636
3.908936
3.8687328
3.830473
3.7940025
3.7591849
3.7258931
3.6940095
3.6634284
3.6340596
3.6058172
3.5786203
3.5523859
3.527048
3.5025017
3.4787488
3.4554526
3.4330572
3.4098957
3.3896081
3.3566563
0.0017785733
0.0014739073
0.0012891046
0.0012101628
0.0011714109
0.0011472162
0.00113003
0.0011172186
0.0011074416
0.0010998551
0.0010938944
0.0010891723
0.0010854168
0.0010824326
0.0010800769
0.0010782434
0.0010768539
0.0010758579
0.0010751724
0.0010751122
0.0010737255
0.0010819392
0.001044618
0.0019982209
20.548221
21.762518
17.996781
15.756759
14.414435
13.440073
12.660172
12.014745
11.471598
11.006757
10.602497
10.246414
9.9299683
9.6463161
9.3894752
9.1551754
8.9402536
8.7418995
8.5578894
8.3864145
8.2259569
8.0752692
7.9332511
7.799006
7.6717762
7.5508655
7.4357326
7.3258858
7.2208324
7.1201784
7.0235797
6.9306886
6.8411992
6.7548747
6.6714915
6.590818
6.5126661
6.4368858
6.3633212
6.2918081
6.222213
6.1544295
6.0883479
6.0238481
5.960825
5.8992027
5.8389095
5.7798545
5.7219478
5.665135
5.6093637
5.5545677
5.5006795
5.4476378
5.3954037
5.3439371
5.2931837
5.2430875
5.19361
5.1447208
5.0963839
5.0485532
5.0011813
4.9542447
4.9077183
4.8615646
4.8157444
4.7702225
4.7249778
4.6799871
4.6352127
4.5906159
4.5461751
4.5018685
4.4576631
4.4135229
4.3694171
4.3253233
4.2812132
4.2370479
4.1927922
4.1484215
4.1039037
4.0591955
4.0142593
3.9690637
3.9235657
3.8777086
3.8314648
3.7857841
3.7420815
3.7007211
3.661506
3.6242555
3.5888025
3.5550046
3.5227357
3.4918783
3.4623237
3.4339744
3.4067468
3.3805616
3.3553439
3.3310169
3.3075197
3.2847548
3.2627246
3.2411154
3.2203418
3.1988512
3.1800292
3.1494572
0.0017414967
0.0014407189
0.0012559335
0.001176081
0.0011367704
0.0011122687
0.0010948796
0.0010819134
0.0010720108
0.0010643197
0.00105827
0.0010534701
0.0010496453
0.0010465977
0.0010441826
0.0010422923
0.001040847
0.0010397953
0.0010390511
0.0010389297
0.0010374805
0.0010456279
0.0010074003
0.0019041345
17.833792
20.305735
16.782491
14.635752
13.366809
12.455817
11.730693
11.132155
10.629144
10.199051
9.8252745
9.4962081
9.2038699
8.9419066
8.7047808
8.4885149
8.2901709
8.1071508
7.9373909
7.7792155
7.6312196
7.492248
7.3612835
7.2374955
7.1201833
7.0087039
6.9025553
6.8012834
6.7044339
6.6116419
6.5225897
6.4369573
6.3544617
6.2748836
6.1980173
6.1236493
6.0516053
5.9817467
5.9139299
5.8480038
5.7838448
5.7213546
5.6604323
5.6009672
5.5428621
5.4860471
5.4304558
5.3760049
5.3226113
5.2702245
5.2187963
5.1682658
5.1185708
5.0696547
5.0214814
4.9740141
4.9272027
4.8809957
4.8353574
4.7902596
4.7456692
4.7015438
4.6578395
4.6145348
4.5716062
4.5290193
4.486738
4.4447296
4.4029747
4.3614518
4.3201262
4.2789619
4.237939
4.1970375
4.1562268
4.1154734
4.0747489
4.0340329
3.9932987
3.9525105
3.9116358
3.8706517
3.8295283
3.7882255
3.7467087
3.7049485
3.6629051
3.6205259
3.5777853
3.5355613
3.495162
3.4569243
3.4206667
3.3862226
3.3534377
3.3221809
3.2923358
3.263794
3.2364551
3.2102293
3.1850395
3.1608123
3.1374788
3.1149679
3.0932235
3.0721554
3.051766
3.0317642
3.0125355
2.9926385
2.9752127
2.9469078
0.001700251
0.0014040364
0.0012194303
0.0011385866
0.0010986448
0.0010737941
0.0010561753
0.0010430339
0.0010329894
0.0010251798
0.0010190288
0.0010141407
0.001010237
0.0010071173
0.0010046347
0.0010026798
0.001001171
0.0010000559
0.00099924546
0.00099905469
0.00099753611
0.0010056031
0.0009664347
0.0017980737
15.204023
18.877134
15.631157
13.575979
12.375344
11.523505
10.849642
10.29503
9.8296399
9.4321231
9.0869307
8.7832049
8.5134818
8.2718664
8.0532394
7.8538976
7.6711128
7.5024865
7.3461048
7.2004166
7.0641228
6.9361545
6.8155724
6.7016077
6.5936131
6.4909957
6.3932899
6.3000772
6.2109393
6.1255383
6.0435814
5.9647742
5.8888557
5.8156229
5.7448865
5.6764502
5.6101528
5.5458662
5.4834585
5.4227907
5.3637485
5.3062412
5.2501761
5.1954515
5.1419778
5.0896901
5.0385276
4.9884137
4.9392719
4.8910553
4.8437196
4.797209
4.7514661
4.7064388
4.6620938
4.6183971
4.5753029
4.5327635
4.490746
4.4492245
4.4081685
4.367539
4.3272955
4.287418
4.2478851
4.2086651
4.1697245
4.1310335
4.0925739
4.0543261
4.0162579
3.9783362
3.9405426
3.9028586
3.8652559
3.8277037
3.7901758
3.7526532
3.7151113
3.6775171
3.6398405
3.6020603
3.5641488
3.526069
3.4877888
3.4492811
3.4105089
3.3714237
3.3320017
3.2930529
3.255784
3.2205063
3.1870528
3.1552699
3.1250156
3.0961693
3.0686239
3.0422795
3.0170436
2.9928335
2.9695784
2.9472105
2.9256664
2.9048805
2.8848012
2.865345
2.8465148
2.8280407
2.8102802
2.7918991
2.7758001
2.7496497
0.001654862
0.0013639664
0.0011797632
0.0010978625
0.0010572159
0.0010319727
0.0010140964
0.0010007592
0.0009905557
0.00098261312
0.00097634848
0.00097136096
0.00096736838
0.00096416742
0.00096160877
0.0009595811
0.00095800079
0.00095681441
0.00095592969
0.00095566093
0.00095406668
0.00096203415
0.00092194879
0.0016808856
12.708192
17.46886
14.540367
12.576474
11.439244
10.64243
10.016416
9.502872
9.0726758
8.7056431
8.3872057
8.1072049
7.8586587
7.6360985
7.4347973
7.2513089
7.0831005
6.9279601
6.7841146
6.6501289
6.5248031
6.407149
6.2963003
6.1915457
6.0922883
5.9979816
5.9081946
5.8225415
5.7406381
5.6621717
5.5868725
5.5144704
5.4447248
5.377448
5.312466
5.2495986
5.188697
5.1296427
5.0723149
5.0165858
4.96235
4.9095239
4.8580223
4.8077521
4.7586306
4.7105979
4.663598
4.617561
4.5724164
4.5281206
4.4846332
4.4419029
4.3998771
4.3585077
4.3177639
4.2776147
4.238018
4.1989299
4.16032
4.1221646
4.0844356
4.0470971
4.0101121
3.9734618
3.9371268
3.9010778
3.8652842
3.8297183
3.7943636
3.7592017
3.7242034
3.6893379
3.6545884
3.6199377
3.5853599
3.5508265
3.5163135
3.4818032
3.4472731
3.4126927
3.3780341
3.3432779
3.3083985
3.2733616
3.2381378
3.202702
3.16702
3.131047
3.094761
3.0589077
3.0245982
2.9921193
2.9613176
2.9320519
2.9041917
2.8776263
2.8522573
2.8279927
2.8047476
2.7824461
2.7610229
2.7404159
2.7205666
2.7014148
2.682913
2.6649843
2.6476315
2.6306056
2.6142365
2.5972933
2.5824521
2.5583436
0.0016054372
0.0013207001
0.0011371955
0.0010541945
0.0010127724
0.00098709279
0.00096893145
0.00095537783
0.00094499835
0.00093690833
0.00093051736
0.00092541923
0.00092132764
0.00091803605
0.00091539252
0.00091328365
0.00091162365
0.00091035792
0.00090939079
0.00090903511
0.00090735995
0.00091520018
0.00087430981
0.0015541567
10.389155
16.072848
13.507127
11.63624
10.557793
9.8119797
9.2305034
8.7552623
8.357918
8.0193499
7.7259011
7.4680647
7.239306
7.0345518
6.8494421
6.6807715
6.5261885
6.3836555
6.2515307
6.1284875
6.0134184
5.9054107
5.803666
5.7075271
5.6164435
5.5299128
5.4475358
5.3689574
5.293825
5.2218497
5.1527831
5.0863776
5.0224119
4.9607125
4.9011195
4.843468
4.7876206
4.7334681
4.6808994
4.6297978
4.5800661
4.5316271
4.4844027
4.4383078
4.3932663
4.3492228
4.306126
4.263912
4.222516
4.1818977
4.14202
4.1028361
4.0642975
4.0263603
3.988996
3.952176
3.9158619
3.8800134
3.8446026
3.8096075
3.7750023
3.7407544
3.7068296
3.6732106
3.6398795
3.6068096
3.5739727
3.5413435
3.5089066
3.4766454
3.4445327
3.4125405
3.380653
3.3488549
3.3171219
3.2854279
3.253751
3.2220749
3.1903787
3.1586345
3.1268166
3.0949071
3.0628824
3.0307109
2.9983656
2.9658234
2.9330527
2.9000123
2.8666818
2.8337463
2.8022268
2.7723871
2.7440863
2.717195
2.6915934
2.6671803
2.6438651
2.6215636
2.6001978
2.579698
2.5600046
2.5410605
2.522812
2.5052037
2.4881921
2.4717066
2.4557498
2.4400925
2.4250384
2.4094551
2.3958026
2.3736236
0.001552172
0.0012745158
0.0010920885
0.0010079766
0.00096571517
0.0009395572
0.00092108461
0.00090729525
0.00089672386
0.00088847256
0.00088194307
0.00087672339
0.00087252281
0.00086913136
0.00086639426
0.00086419585
0.00086244806
0.00086109495
0.00086003746
0.00085958582
0.00085782633
0.00086549879
0.0008240388
0.001420239
8.2760322
14.685605
12.527551
10.754059
9.7302224
9.0315115
8.4913651
8.0517541
7.6850009
7.3729485
7.1027828
6.8656031
6.6552891
6.4671336
6.2971185
6.1422635
6.0003856
5.8696091
5.7484152
5.635578
5.5300762
5.4310672
5.3378161
5.249716
5.1662596
5.0869857
5.0115245
4.9395497
4.8707381
4.8048229
4.7415755
4.6807695
4.6222014
4.565711
4.5111515
4.4583723
4.4072467
4.3576738
4.3095521
4.2627748
4.2172525
4.1729139
4.1296876
4.0874959
4.0462689
4.0059554
3.9665083
3.9278695
3.8899796
3.8528011
3.8163002
3.780434
3.7451582
3.7104327
3.6762309
3.6425267
3.6092852
3.5764693
3.5440534
3.5120172
3.4803372
3.4489835
3.4179248
3.387145
3.3566279
3.3263491
3.2962826
3.2664052
3.2367029
3.2071602
3.1777525
3.1484539
3.11925
3.0901266
3.0610615
3.0320308
3.0030143
2.9739971
2.9449601
2.9158774
2.8867257
2.8574884
2.8281437
2.7986627
2.7690206
2.7391961
2.7091603
2.6788751
2.6483218
2.6181286
2.5892317
2.5618732
2.5359241
2.5112659
2.4877888
2.4654003
2.4440176
2.4235633
2.4039661
2.3851624
2.3670973
2.3497188
2.3329774
2.3168226
2.3012144
2.2860882
2.2714465
2.2570787
2.2432634
2.2289623
2.2164298
2.1960686
0.0014953521
0.0012257771
0.0010448968
0.00095970808
0.00091655643
0.00088988304
0.00087107646
0.00085703484
0.00084625772
0.00083783298
0.00083115401
0.00082580282
0.00082148409
0.00081798418
0.00081514536
0.00081284958
0.00081100634
0.00080955827
0.00080840301
0.00080784652
0.00080600212
0.00081344811
0.00077181752
0.0012822044
6.3915751
13.304656
11.596518
9.9283227
8.9555908
8.300252
7.7983408
7.3917852
7.0534464
6.766033
6.5175069
6.2995299
6.1063656
5.9336436
5.7776636
5.635656
5.5055936
5.3857511
5.2747241
5.1713803
5.0747784
4.9841411
4.8987924
4.8181722
4.7418133
4.6692926
4.6002683
4.5344402
4.4715125
4.4112391
4.3534097
4.2978176
4.2442758
4.1926365
4.1427652
4.0945243
4.0477972
4.0024909
3.9585125
3.9157647
3.874165
3.8336478
3.794148
3.7555946
3.7179237
3.6810876
3.6450436
3.6097385
3.5751182
3.541148
3.5077966
3.4750253
3.4427936
3.4110645
3.3798136
3.349017
3.318643
3.2886577
3.2590373
3.2297634
3.2008144
3.1721631
3.1437808
3.1156526
3.0877638
3.0600921
3.0326136
3.0053074
2.9781601
2.951158
2.9242784
2.8974974
2.8708021
2.8441794
2.8176089
2.7910687
2.7645404
2.7380103
2.7114608
2.6848682
2.6582113
2.6314747
2.6046385
2.5776761
2.5505649
2.5232853
2.4958107
2.4681062
2.4401547
2.4125309
2.3860917
2.3610587
2.3373142
2.3147495
2.2932645
2.2727747
2.2532044
2.2344829
2.216545
2.1993325
2.1827955
2.1668861
2.1515594
2.1367689
2.1224783
2.1086283
2.0952213
2.0820646
2.0694126
2.0563164
2.044836
2.0261818
0.0014353503
0.0011749242
0.00099615642
0.00090998174
0.00086590972
0.00083869268
0.00081953538
0.00080522978
0.0007942369
0.00078562951
0.00077879247
0.00077330172
0.00076885722
0.00076524161
0.0007622941
0.00075989416
0.00075794881
0.0007563991
0.00075513968
0.00075446995
0.00075254409
0.00075968117
0.00071848537
0.0011436966
4.7524117
11.928626
10.707675
9.1568849
8.2326977
7.6172274
7.1505872
6.7746186
6.4626074
6.1980327
5.9695683
5.769397
5.592137
5.4337277
5.2907631
5.1606704
5.0415664
4.9318648
4.8302678
4.7357299
4.6473838
4.5645129
4.4864955
4.4128153
4.3430421
4.2767881
4.2137374
4.153614
4.0961477
4.0411114
3.9883117
3.93756
3.8886851
3.8415503
3.7960326
3.7520065
3.7093648
3.6680216
3.6278921
3.5888876
3.5509325
3.5139663
3.4779293
3.4427572
3.4083913
3.3747877
3.341907
3.3097013
3.278121
3.2471338
3.2167114
3.1868183
3.1574177
3.1284759
3.0999701
3.0718787
3.0441727
3.0168212
2.9898025
2.9630994
2.9366924
2.9105566
2.884666
2.8590067
2.8335652
2.8083212
2.7832532
2.7583417
2.7335746
2.7089393
2.6844152
2.6599803
2.6356228
2.6113308
2.5870857
2.5628672
2.5386588
2.5144478
2.4902181
2.4659481
2.4416184
2.4172149
2.3927193
2.3681072
2.3433581
2.318454
2.2933704
2.2680757
2.2425538
2.2173299
2.1931864
2.1703262
2.1486416
2.1280334
2.1084104
2.0896955
2.0718197
2.0547184
2.0383321
2.0226078
2.0074999
1.9929649
1.9789616
1.9654476
1.9523898
1.9397342
1.9274826
1.9154597
1.9038965
1.8919289
1.8814336
1.864377
0.0013726182
0.0011224597
0.00094646316
0.00085946295
0.00081446972
0.00078669441
0.00076717883
0.00075260471
0.00074139181
0.00073259716
0.0007255972
0.00071996191
0.00071538663
0.0007116503
0.00070858909
0.00070607997
0.00070402748
0.00070237102
0.00070100269
0.00070021231
0.00069821362
0.0007049311
0.00066502487
0.0010086546
3.3696507
10.55596
9.8544298
8.4369581
7.5600124
6.9812168
6.5470377
6.1993059
5.9116336
5.6681802
5.4582703
5.2745685
5.1120209
4.966851
4.8359244
4.7168521
4.6078842
4.5075623
4.4146877
4.328295
4.2475857
4.171899
4.1006639
4.0334041
3.9697239
3.9092682
3.8517451
3.7969007
3.7444886
3.6942993
3.646155
3.5998839
3.5553292
3.5123646
3.4708776
3.4307541
3.3918954
3.3542223
3.3176574
3.2821202
3.2475411
3.2138642
3.1810354
3.1489961
3.1176927
3.0870845
3.0571355
3.0278024
2.9990398
2.970818
2.9431109
2.9158864
2.889111
2.8627539
2.8367939
2.8112114
2.7859802
2.761072
2.7364669
2.7121491
2.6881008
2.6642995
2.6407213
2.6173535
2.5941838
2.5711937
2.5483636
2.5256757
2.503119
2.4806818
2.4583455
2.43609
2.4139045
2.391778
2.3696936
2.3476328
2.3255806
2.3035254
2.2814523
2.2593418
2.2371761
2.2149424
2.1926237
2.1701981
2.1476465
2.1249529
2.1020945
2.0790426
2.0557825
2.0327928
2.0107871
1.9899503
1.9701843
1.9513987
1.9335104
1.9164492
1.9001525
1.8845612
1.8696211
1.8552841
1.8415086
1.828255
1.8154857
1.8031621
1.7912541
1.7797124
1.7685388
1.7575735
1.7470262
1.7361121
1.7265362
1.7109701
0.0013076728
0.0010689281
0.00089644439
0.00080885865
0.00076298173
0.00073465244
0.00071478355
0.00069994622
0.00068851702
0.00067953699
0.00067237456
0.00066659419
0.00066188687
0.00065802807
0.00065485104
0.00065223034
0.00065006813
0.00064830205
0.00064682237
0.00064590557
0.00064384876
0.00065000691
0.00061253586
0.00088091112
2.2513929
9.1852784
9.0295931
7.7649804
6.9356169
6.3907251
5.9863839
5.6646722
5.3994577
5.1754983
4.982712
4.8142094
4.6652398
4.5322872
4.4124668
4.3035616
4.2039446
4.1122753
4.0274467
3.9485677
3.874903
3.8058435
3.7408649
3.6795282
3.6214691
3.5663629
3.5139398
3.4639664
3.416218
3.3705016
3.3266536
3.2845176
3.2439503
3.2048351
3.1670689
3.130548
3.0951819
3.0608974
3.027624
2.9952885
2.9638271
2.9331883
2.9033227
2.8741772
2.8457029
2.817862
2.7906218
2.7639429
2.7377843
2.7121181
2.6869206
2.6621628