/*--------------------------------*- C++ -*----------------------------------*\
  =========                 |
  \\      /  F ield         | OpenFOAM: The Open Source CFD Toolbox
   \\    /   O peration     | Website:  https://openfoam.org
    \\  /    A nd           | Version:  12
     \\/     M anipulation  |
\*---------------------------------------------------------------------------*/
FoamFile
{
    format      ascii;
    class       volScalarField;
    location    "1200";
    object      epsilon;
}
// * * * * * * * * * * * * * * * * * * * * * * * * * * * * * * * * * * * * * //

dimensions      [0 2 -3 0 0 0 0];

internalField   nonuniform List<scalar> 
7480
(
0.016586347
0.067870186
0.16519213
0.2953206
0.43356463
0.55747518
0.65372816
0.71854036
0.7547713
0.76835061
0.76566785
0.75222584
0.73222543
0.70863363
0.68343438
0.65790925
0.63289272
0.60895773
0.58648303
0.56574114
0.54694651
0.53027766
0.515875
0.5038289
0.49416625
0.4867999
0.48143133
0.47763897
0.47486164
0.47250242
0.4700764
0.46730469
0.46411789
0.46060622
0.45691001
0.45313964
0.44934152
0.44551012
0.441622
0.43766802
0.43366699
0.42965646
0.42567492
0.42174685
0.41788048
0.4140757
0.41033207
0.406651
0.40303411
0.39948199
0.39599382
0.3925677
0.38920169
0.38589457
0.38264518
0.37945172
0.37631218
0.37322518
0.37018997
0.36720464
0.36426744
0.3613768
0.35853124
0.35572955
0.35297071
0.35025366
0.34757735
0.34494079
0.34234291
0.33978273
0.33725927
0.33477159
0.33231876
0.3298999
0.32751417
0.32516073
0.32283879
0.32054758
0.31828633
0.31605433
0.31385086
0.31167524
0.30952681
0.3074049
0.3053089
0.30323816
0.30119207
0.29916999
0.29717133
0.2951953
0.29324146
0.29130835
0.2893965
0.28750095
0.28562852
0.28375599
0.28192479
0.2800031
0.27839565
0.27541722
0.00023104524
0.0010210877
0.0033332136
0.0078500191
0.014504124
0.022883661
0.032068841
0.04091265
0.048616007
0.054829907
0.05953246
0.063015171
0.065782698
0.068362103
0.071291073
0.075134951
0.080777211
0.088414571
0.096801346
0.10594987
0.11605672
0.12723092
0.13937737
0.15214978
0.1651311
0.17765319
0.18885238
0.19789469
0.20416817
0.2074866
0.20814292
0.20678195
0.20418106
0.20104137
0.19784533
0.19481761
0.19198974
0.18930411
0.18669824
0.18414881
0.18167207
0.17929826
0.17704564
0.17491504
0.17289102
0.17095456
0.16909145
0.1672929
0.16555225
0.1638632
0.1622201
0.16061853
0.15905509
0.1575268
0.15603102
0.15456561
0.15312887
0.15171951
0.15033615
0.14897825
0.14764477
0.14633472
0.14504735
0.14378206
0.1425383
0.14131555
0.14011326
0.1389309
0.13776798
0.13662398
0.13549846
0.13439097
0.13330108
0.13222838
0.13117244
0.13013288
0.12910932
0.12810136
0.12710864
0.12613079
0.12516746
0.12421831
0.12328298
0.12236115
0.12145248
0.12055666
0.11967337
0.11880229
0.11794312
0.11709552
0.11625919
0.11543374
0.1146189
0.11381394
0.11301901
0.11223165
0.11145564
0.1106689
0.1099714
0.10877843
2.5576033e-05
6.0719238e-05
0.00012799848
0.0002327227
0.00037610304
0.00055944551
0.0007822244
0.0010401366
0.0013253101
0.0016271555
0.001933862
0.0022349735
0.0025239079
0.0027996469
0.0030684906
0.0033442882
0.0036567505
0.0040457561
0.0045529672
0.005230418
0.0061453508
0.0073824753
0.0090680358
0.011466702
0.014773217
0.019248163
0.025721873
0.033477082
0.042245816
0.051708722
0.061338103
0.070537299
0.078736103
0.085455557
0.090431039
0.093683217
0.095466067
0.096170215
0.096203955
0.095899726
0.095463609
0.094983119
0.09447445
0.093924452
0.093327366
0.092693167
0.09203951
0.091380743
0.090723007
0.09006635
0.089409273
0.088751318
0.088093046
0.087435082
0.086777731
0.086121158
0.08546559
0.084811354
0.084158725
0.083508032
0.082859791
0.0822145
0.081572603
0.080934512
0.080300626
0.079671303
0.079046843
0.078427508
0.077813532
0.077205116
0.076602446
0.076005682
0.075414968
0.074830422
0.074252145
0.073680213
0.073114687
0.072555607
0.072003001
0.071456878
0.070917236
0.070384061
0.069857326
0.069336994
0.068823019
0.068315347
0.067813915
0.067318655
0.06682949
0.066346338
0.065869098
0.065397687
0.06493193
0.064471811
0.064016881
0.063567434
0.063122891
0.062676912
0.062280093
0.061597997
1.2418629e-05
1.7854554e-05
2.6815786e-05
3.9113515e-05
5.4469836e-05
7.2691438e-05
9.3626408e-05
0.00011707657
0.00014275684
0.00017029631
0.00019925364
0.00022915454
0.00025954805
0.00029006832
0.0003204986
0.0003507959
0.00038127329
0.00041257519
0.00044591915
0.00048323681
0.00052700509
0.00058120333
0.00065117598
0.00074576856
0.00087878007
0.0010686433
0.0013617631
0.0018077685
0.0024759676
0.0034480615
0.0048915308
0.0069727614
0.0098365678
0.013939573
0.01886569
0.024351414
0.030041505
0.035580038
0.040621278
0.044884151
0.048229176
0.050676612
0.052373021
0.053525259
0.054330315
0.054926228
0.055384133
0.055729132
0.055969253
0.056114546
0.056181055
0.056185736
0.056141311
0.056055465
0.055933088
0.055778375
0.05559542
0.055387943
0.055159031
0.054911194
0.054646698
0.054367649
0.054075955
0.053773319
0.053461264
0.053141152
0.052814198
0.052481495
0.052144028
0.051802679
0.051458251
0.05111147
0.050762994
0.05041342
0.050063283
0.049713067
0.049363204
0.049014082
0.048666046
0.048319407
0.047974437
0.047631378
0.047290444
0.04695182
0.046615667
0.046282126
0.045951316
0.04562334
0.045298282
0.044976217
0.044657187
0.044341265
0.044028402
0.043718793
0.043412027
0.043108948
0.042808408
0.042508007
0.042241653
0.041779841
1.0276509e-05
1.1651581e-05
1.4000473e-05
1.7208206e-05
2.114171e-05
2.5700225e-05
3.0815632e-05
3.643816e-05
4.2523875e-05
4.9027765e-05
5.5901034e-05
6.3090744e-05
7.0541551e-05
7.8198981e-05
8.6014049e-05
9.3945893e-05
0.00010197098
0.00011008746
0.0001183254
0.00012677032
0.00013554155
0.00014486553
0.0001550413
0.00016651258
0.00017996267
0.00019624116
0.0002169625
0.00024435915
0.0002816406
0.00033331991
0.00040711343
0.00051570081
0.00067693217
0.0009325704
0.0013352846
0.0019436736
0.0028917886
0.0042771674
0.0062326386
0.0089128498
0.012106475
0.015608062
0.019187783
0.022615998
0.025690902
0.028290786
0.030387648
0.032035703
0.03333419
0.034382404
0.035250901
0.035977584
0.03658055
0.037072731
0.037468712
0.037783751
0.038030714
0.038219029
0.038355768
0.038446908
0.038497879
0.038513513
0.038497959
0.038454778
0.038387112
0.038297755
0.038189181
0.038063588
0.037922931
0.037768959
0.037603247
0.037427209
0.037242122
0.037049139
0.036849299
0.036643545
0.036432725
0.036217606
0.035998884
0.035777182
0.035553068
0.03532705
0.035099586
0.034871088
0.034641928
0.034412436
0.034182912
0.033953622
0.033724804
0.033496675
0.033269413
0.033043214
0.032818159
0.032594546
0.032372128
0.032151799
0.031932651
0.031713265
0.031520175
0.03118077
9.7642639e-06
1.0156157e-05
1.0923086e-05
1.206206e-05
1.3524103e-05
1.525646e-05
1.72177e-05
1.9378293e-05
2.1717002e-05
2.4217321e-05
2.6865071e-05
2.9647019e-05
3.2550217e-05
3.5561751e-05
3.8669015e-05
4.1859984e-05
4.5124041e-05
4.845278e-05
5.1841042e-05
5.5290017e-05
5.8806731e-05
6.2409669e-05
6.6129685e-05
7.0013476e-05
7.4133416e-05
7.8585924e-05
8.3516053e-05
8.9145474e-05
9.5768918e-05
0.00010379064
0.00011375472
0.00012653828
0.00014320362
0.00016572388
0.00019706008
0.00024123404
0.00030581115
0.0004020011
0.00054838134
0.00078080536
0.0011422845
0.0017146521
0.0025804329
0.0038322925
0.005559742
0.0076562996
0.0099884251
0.012410592
0.014769965
0.016936563
0.018831816
0.020437088
0.021782006
0.022916962
0.023887497
0.024723231
0.025441153
0.02605365
0.026573203
0.027012246
0.027381496
0.027689449
0.027943047
0.028148395
0.028310968
0.028435561
0.028526327
0.028586915
0.028620566
0.028630162
0.028618272
0.028587188
0.028538966
0.028475453
0.028398314
0.028309045
0.028209001
0.028099403
0.027981356
0.02785586
0.027723818
0.027586049
0.027443291
0.027296215
0.027145425
0.026991468
0.026834841
0.02667599
0.026515321
0.026353202
0.026189956
0.026025905
0.025861267
0.025696423
0.025531311
0.025366779
0.025202289
0.025036658
0.024892054
0.024633051
9.6035135e-06
9.7164505e-06
9.9712689e-06
1.0401759e-05
1.1008718e-05
1.1774719e-05
1.2677985e-05
1.3699216e-05
1.4823284e-05
1.6038709e-05
1.7336622e-05
1.8709859e-05
2.0152326e-05
2.1658583e-05
2.3223593e-05
2.4842599e-05
2.6511141e-05
2.8225142e-05
2.9981048e-05
3.1776327e-05
3.3609678e-05
3.5481761e-05
3.739589e-05
3.935859e-05
4.1381263e-05
4.34811e-05
4.5682917e-05
4.8024414e-05
5.0557164e-05
5.3353279e-05
5.6499271e-05
6.013237e-05
6.4400435e-05
6.95249e-05
7.5835939e-05
8.3759886e-05
9.3947367e-05
0.00010731892
0.00012519511
0.0001498156
0.00018448675
0.00023517513
0.00031109013
0.00042733087
0.00061179074
0.00089799636
0.0013573019
0.0020449516
0.0030636956
0.0043770615
0.0059278258
0.0076266294
0.0093690747
0.01105293
0.012601538
0.013977124
0.015179178
0.016228307
0.017148193
0.017956187
0.018663737
0.01928039
0.019815869
0.020279598
0.020679753
0.02102318
0.021315839
0.021563097
0.02176974
0.021939987
0.022077578
0.022185855
0.022267809
0.022326121
0.022363194
0.022381196
0.022382076
0.022367595
0.022339344
0.022298761
0.022247148
0.022185682
0.022115432
0.022037362
0.021952351
0.021861192
0.021764607
0.021663249
0.021557711
0.021448536
0.021336204
0.021221181
0.021103828
0.020984622
0.020863687
0.020741829
0.020618857
0.020493699
0.020385206
0.020185793
9.5259511e-06
9.5606002e-06
9.6426815e-06
9.7996081e-06
1.0048225e-05
1.0392456e-05
1.0827415e-05
1.1344452e-05
1.1934468e-05
1.2589375e-05
1.3302456e-05
1.406825e-05
1.4882291e-05
1.574086e-05
1.6640764e-05
1.7579182e-05
1.8553561e-05
1.9561561e-05
2.0601039e-05
2.1670115e-05
2.2767243e-05
2.3891338e-05
2.5041991e-05
2.6219648e-05
2.7425969e-05
2.8664252e-05
2.9939747e-05
3.1260645e-05
3.2638636e-05
3.4090542e-05
3.5637168e-05
3.7306782e-05
3.9144549e-05
4.1204966e-05
4.3555245e-05
4.628118e-05
4.9498626e-05
5.3364695e-05
5.8072946e-05
6.3907419e-05
7.1261371e-05
8.0753985e-05
9.3291935e-05
0.0001102046
0.00013371481
0.00016708373
0.00021674685
0.00029159328
0.00041005408
0.00059547274
0.0008909719
0.0013449256
0.0020283369
0.0029375902
0.0040433757
0.0052892839
0.0066023255
0.0079068665
0.0091411068
0.010269994
0.011284973
0.012192968
0.013004424
0.013727758
0.014369713
0.014937071
0.015436947
0.015876073
0.016260393
0.016595196
0.016885307
0.017135109
0.01734854
0.017529141
0.017680107
0.017804325
0.017904403
0.017982696
0.018041337
0.018082256
0.018107203
0.018117762
0.018115371
0.018101334
0.018076836
0.018042953
0.018000659
0.017950844
0.017894315
0.017831806
0.017763981
0.017691462
0.017614773
0.017534502
0.017450956
0.017364938
0.017276546
0.017184874
0.017105832
0.016954802
9.4620946e-06
9.4764796e-06
9.5044587e-06
9.5595999e-06
9.6558612e-06
9.8031804e-06
1.0006063e-05
1.0264546e-05
1.0575953e-05
1.093642e-05
1.1341858e-05
1.1788444e-05
1.22728e-05
1.2792008e-05
1.3343563e-05
1.392529e-05
1.453528e-05
1.5171825e-05
1.5833384e-05
1.6518568e-05
1.7226147e-05
1.7955071e-05
1.8704521e-05
1.947398e-05
2.0263334e-05
2.1073025e-05
2.1904178e-05
2.2758848e-05
2.3640246e-05
2.4553214e-05
2.550423e-05
2.6501717e-05
2.7558258e-05
2.8690479e-05
2.9919013e-05
3.1269277e-05
3.277297e-05
3.4469739e-05
3.6413241e-05
3.8680045e-05
4.1354234e-05
4.4553925e-05
4.8442982e-05
5.3244438e-05
5.926327e-05
6.693296e-05
7.6998484e-05
9.0464213e-05
0.00010911555
0.00013553941
0.00017447924
0.00023303377
0.00032512448
0.00046907762
0.00069795866
0.0010523329
0.0015796676
0.0022817645
0.0031372202
0.0041067053
0.0051355849
0.0061666612
0.0071541738
0.0080723684
0.0089132378
0.0096780363
0.010370319
0.010993694
0.011552237
0.012050733
0.012494151
0.012887185
0.013234193
0.013539253
0.013806154
0.014038372
0.014239088
0.014411211
0.014557396
0.014680063
0.014781419
0.014863471
0.014928048
0.014976815
0.015011289
0.015032849
0.015042753
0.015042145
0.015032067
0.015013472
0.014987221
0.014954115
0.014914851
0.014870152
0.014820507
0.014766755
0.014709234
0.014647298
0.014594038
0.014485143
9.3952988e-06
9.4047543e-06
9.4174949e-06
9.438472e-06
9.4750035e-06
9.5347454e-06
9.6239478e-06
9.7466058e-06
9.9044631e-06
1.0097511e-05
1.0324615e-05
1.058406e-05
1.0873912e-05
1.1192243e-05
1.1537239e-05
1.1907239e-05
1.2300741e-05
1.2716387e-05
1.3152946e-05
1.3609304e-05
1.4084454e-05
1.4577498e-05
1.5087654e-05
1.5614281e-05
1.6156912e-05
1.6715312e-05
1.7289528e-05
1.7879978e-05
1.8487535e-05
1.9113687e-05
1.9760629e-05
2.0431321e-05
2.1129997e-05
2.1862493e-05
2.2636383e-05
2.3461173e-05
2.4348589e-05
2.5312969e-05
2.6372084e-05
2.7550348e-05
2.8876037e-05
3.0383857e-05
3.2118121e-05
3.4133292e-05
3.6519687e-05
3.9374176e-05
4.2844149e-05
4.7121078e-05
5.2502361e-05
5.9374131e-05
6.8391884e-05
8.0478848e-05
9.7246635e-05
0.00012107912
0.00015622794
0.00020946702
0.00029301895
0.00042302376
0.00062980407
0.00094997774
0.0014058623
0.0019985044
0.0027097711
0.0035056629
0.004342036
0.0051757679
0.0059757217
0.0067256481
0.0074197879
0.0080570791
0.0086381378
0.0091647267
0.0096396435
0.010066233
0.010447944
0.010788173
0.011090223
0.011357244
0.011592197
0.011797843
0.011976743
0.012131262
0.012263581
0.012375701
0.01246946
0.012546541
0.012608486
0.012656705
0.012692486
0.012717008
0.012731347
0.012736495
0.012733337
0.012722744
0.012705391
0.012682189
0.012653673
0.012619559
0.012590127
0.01251994
9.3223531e-06
9.330465e-06
9.3392403e-06
9.350001e-06
9.3656671e-06
9.3902461e-06
9.4281147e-06
9.4832993e-06
9.5589563e-06
9.6571573e-06
9.7789443e-06
9.924537e-06
1.0093578e-05
1.0285353e-05
1.0498956e-05
1.0733399e-05
1.0987681e-05
1.126083e-05
1.1551919e-05
1.1860075e-05
1.2184491e-05
1.252442e-05
1.2879186e-05
1.3248189e-05
1.3630921e-05
1.4026989e-05
1.4436138e-05
1.4858285e-05
1.5293553e-05
1.5742333e-05
1.6205338e-05
1.6683635e-05
1.7178785e-05
1.7693006e-05
1.8229308e-05
1.8791613e-05
1.9384859e-05
2.001516e-05
2.0689898e-05
2.1418674e-05
2.2213129e-05
2.3087135e-05
2.4057622e-05
2.5144248e-05
2.6375482e-05
2.7783958e-05
2.9413466e-05
3.1317269e-05
3.3566513e-05
3.627404e-05
3.958267e-05
4.3683944e-05
4.8872356e-05
5.5556488e-05
6.4380634e-05
7.6328125e-05
9.3046867e-05
0.00011704942
0.00015276353
0.00020792467
0.00029384835
0.00042911405
0.00064142651
0.00095609501
0.0013831932
0.0019174344
0.0025392305
0.0032164853
0.0039129602
0.0045986734
0.0052547247
0.0058716068
0.0064451068
0.0069735841
0.007457067
0.0078968517
0.0082949918
0.0086538894
0.0089760988
0.0092642208
0.009520817
0.0097483556
0.009949184
0.010125514
0.010279414
0.010412809
0.010527483
0.010625086
0.010707136
0.010775034
0.010830064
0.010873414
0.010906159
0.010929328
0.010943783
0.010950533
0.010950279
0.010943182
0.010936672
0.010903491
9.2430114e-06
9.2505268e-06
9.2581885e-06
9.2661339e-06
9.275299e-06
9.2873274e-06
9.304444e-06
9.3292219e-06
9.364261e-06
9.411887e-06
9.4739539e-06
9.5517725e-06
9.646134e-06
9.7573917e-06
9.8855618e-06
1.0030419e-05
1.0191575e-05
1.0368546e-05
1.0560788e-05
1.0767736e-05
1.0988825e-05
1.1223501e-05
1.1471235e-05
1.1731532e-05
1.2003944e-05
1.228808e-05
1.2583621e-05
1.2890336e-05
1.3208099e-05
1.353691e-05
1.3876929e-05
1.4228489e-05
1.4592149e-05
1.4968764e-05
1.535956e-05
1.5766212e-05
1.6190915e-05
1.6636462e-05
1.7106271e-05
1.7604663e-05
1.8136972e-05
1.8709608e-05
1.9330301e-05
2.0007937e-05
2.0754069e-05
2.1582367e-05
2.2510077e-05
2.3558002e-05
2.4750779e-05
2.6124682e-05
2.7725038e-05
2.9608757e-05
3.1852947e-05
3.456702e-05
3.7912498e-05
4.2102713e-05
4.7460246e-05
5.4453662e-05
6.3798371e-05
7.6706459e-05
9.5040535e-05
0.00012190135
0.00016270267
0.00022600242
0.00032472631
0.00048058249
0.00071487119
0.0010404521
0.0014585313
0.0019578021
0.0025146137
0.00309951
0.0036861545
0.0042562272
0.0047990466
0.005308836
0.0057826341
0.0062193755
0.0066193503
0.006983695
0.0073140262
0.0076122333
0.0078803433
0.0081204221
0.0083345115
0.0085245905
0.0086925507
0.0088401822
0.0089691666
0.0090810755
0.0091773704
0.009259411
0.0093284475
0.0093856641
0.0094320982
0.0094688719
0.0094968223
0.0095166262
0.0095327895
0.0095360118
9.1575426e-06
9.1646251e-06
9.1718082e-06
9.1789236e-06
9.1862017e-06
9.1942024e-06
9.2038346e-06
9.2163579e-06
9.2333053e-06
9.2563397e-06
9.2870955e-06
9.3270455e-06
9.377414e-06
9.4391391e-06
9.5128758e-06
9.5990237e-06
9.6977693e-06
9.8091292e-06
9.9329916e-06
1.0069152e-05
1.0217344e-05
1.0377258e-05
1.0548566e-05
1.0730929e-05
1.0924018e-05
1.1127521e-05
1.1341158e-05
1.1564686e-05
1.1797917e-05
1.2040727e-05
1.2293067e-05
1.2554982e-05
1.2826624e-05
1.3108292e-05
1.3400464e-05
1.3703847e-05
1.4019423e-05
1.4348492e-05
1.4692707e-05
1.5054151e-05
1.5435432e-05
1.5839735e-05
1.6270923e-05
1.6733491e-05
1.7232965e-05
1.7775918e-05
1.8370363e-05
1.9025987e-05
1.9753846e-05
2.0568587e-05
2.1488633e-05
2.2536154e-05
2.3739909e-05
2.5136395e-05
2.6776554e-05
2.872639e-05
3.1073894e-05
3.39423e-05
3.751992e-05
4.2072992e-05
4.7991233e-05
5.5864264e-05
6.6635733e-05
8.182827e-05
0.00010386399
0.00013707009
0.00018827529
0.00026774039
0.0003931663
0.00058143453
0.00084530181
0.0011884849
0.0016036699
0.0020722998
0.0025702785
0.0030753354
0.0035711642
0.004047449
0.0044980383
0.0049194565
0.0053101024
0.0056696882
0.0059987705
0.0062984321
0.0065700799
0.006815304
0.0070357781
0.0072331949
0.0074092222
0.007565475
0.0077034969
0.0078247528
0.0079306178
0.0080223981
0.0081012777
0.0081684884
0.0082249672
0.0082719591
0.0083109396
0.0083506597
9.0662722e-06
9.0729854e-06
9.0798284e-06
9.0865799e-06
9.0932591e-06
9.1000279e-06
9.1071994e-06
9.1152812e-06
9.1249956e-06
9.1372567e-06
9.1531141e-06
9.1736774e-06
9.2000379e-06
9.2332017e-06
9.2740431e-06
9.3232786e-06
9.3814612e-06
9.4489869e-06
9.526112e-06
9.6129726e-06
9.7096071e-06
9.8159759e-06
9.9319803e-06
1.0057479e-05
1.0192303e-05
1.033627e-05
1.0489193e-05
1.0650894e-05
1.0821213e-05
1.1000015e-05
1.1187199e-05
1.1382707e-05
1.1586538e-05
1.1798759e-05
1.2019528e-05
1.2249121e-05
1.2487962e-05
1.2736646e-05
1.299597e-05
1.3266967e-05
1.3550953e-05
1.3849567e-05
1.4164829e-05
1.4499142e-05
1.4855404e-05
1.5237065e-05
1.5648261e-05
1.609398e-05
1.657993e-05
1.7113131e-05
1.7702297e-05
1.835777e-05
1.9092475e-05
1.9922105e-05
2.0866855e-05
2.1952985e-05
2.3213286e-05
2.4690143e-05
2.6443526e-05
2.85544e-05
3.11319e-05
3.4331979e-05
3.8399768e-05
4.3680526e-05
5.068938e-05
6.0260886e-05
7.3727804e-05
9.318207e-05
0.00012244276
0.00016726117
0.00023686038
0.00034570994
0.00050796582
0.00073478914
0.0010301298
0.0013879277
0.0017924285
0.0022235237
0.0026626693
0.003096004
0.0035143308
0.0039118567
0.0042851548
0.0046324993
0.0049533475
0.0052479394
0.0055170276
0.0057616915
0.005983205
0.0061829449
0.0063623289
0.0065227733
0.0066656628
0.006792343
0.0069040793
0.0070021764
0.0070876195
0.0071622489
0.0072243722
0.0073010802
8.9695308e-06
8.9759214e-06
8.9824693e-06
8.9889589e-06
8.9953544e-06
9.0016918e-06
9.0080648e-06
9.0146487e-06
9.02173e-06
9.0297232e-06
9.039171e-06
9.050727e-06
9.0651239e-06
9.0831325e-06
9.1055194e-06
9.1330093e-06
9.1662566e-06
9.2058266e-06
9.2521875e-06
9.3057089e-06
9.3666677e-06
9.4352564e-06
9.511594e-06
9.5957378e-06
9.6876953e-06
9.7874362e-06
9.8949034e-06
1.0010022e-05
1.0132709e-05
1.0262881e-05
1.0400462e-05
1.0545387e-05
1.0697616e-05
1.0857137e-05
1.1023983e-05
1.1198243e-05
1.1380084e-05
1.1569768e-05
1.1767668e-05
1.1974293e-05
1.2190309e-05
1.2416573e-05
1.2654161e-05
1.2904387e-05
1.3168842e-05
1.3449433e-05
1.3748438e-05
1.4068595e-05
1.4413081e-05
1.478566e-05
1.5190912e-05
1.5634243e-05
1.6122219e-05
1.6662695e-05
1.7265238e-05
1.7941975e-05
1.8707788e-05
1.9580884e-05
2.058542e-05
2.1752819e-05
2.3123677e-05
2.4751482e-05
2.6713562e-05
2.9114915e-05
3.2097428e-05
3.5884506e-05
4.0813303e-05
4.736294e-05
5.6340448e-05
6.8976274e-05
8.7280671e-05
0.00011479697
0.00015671821
0.0002221645
0.0003228838
0.00047135775
0.00067668812
0.00094169875
0.001259903
0.0016170987
0.0019962262
0.0023819982
0.0027629696
0.0031313382
0.0034820475
0.0038120491
0.0041197497
0.0044045692
0.0046666159
0.0049064595
0.0051249702
0.0053232024
0.0055023174
0.0056635273
0.0058080462
0.0059371627
0.0060518217
0.0061544504
0.0062400205
0.0063543215
8.8676598e-06
8.8737665e-06
8.8800482e-06
8.8863046e-06
8.8924868e-06
8.8985947e-06
8.9046518e-06
8.9107114e-06
8.916873e-06
8.9232981e-06
8.9302234e-06
8.9379688e-06
8.946936e-06
8.9575974e-06
8.970478e-06
8.9861316e-06
9.005117e-06
9.0279748e-06
9.0552094e-06
9.0872757e-06
9.1245701e-06
9.1674276e-06
9.2161212e-06
9.270865e-06
9.33182e-06
9.3991003e-06
9.4727807e-06
9.5529038e-06
9.6394869e-06
9.7325296e-06
9.8320188e-06
9.9379351e-06
1.0050259e-05
1.0168978e-05
1.0294093e-05
1.042563e-05
1.0563653e-05
1.0708269e-05
1.0859651e-05
1.1018043e-05
1.1183783e-05
1.1357315e-05
1.1539215e-05
1.1730208e-05
1.1931184e-05
1.2143224e-05
1.2367629e-05
1.2605964e-05
1.2860071e-05
1.3132111e-05
1.342467e-05
1.3740793e-05
1.4084114e-05
1.4458944e-05
1.4870396e-05
1.532474e-05
1.5829599e-05
1.6394071e-05
1.7029588e-05
1.7750576e-05
1.857517e-05
1.95262e-05
2.0634135e-05
2.1939749e-05
2.3494927e-05
2.5373212e-05
2.7680481e-05
3.0559345e-05
3.4220926e-05
3.9009067e-05
4.5408799e-05
5.4229436e-05
6.6678655e-05
8.488451e-05
0.00011222767
0.00015400508
0.00021889054
0.00031742365
0.0004600293
0.00065395772
0.00089974968
0.001189824
0.0015109643
0.0018486608
0.0021904808
0.00252719
0.0028524117
0.0031619749
0.0034533587
0.0037252358
0.0039771188
0.0042090983
0.0044216635
0.0046155604
0.0047916992
0.0049511714
0.0050947277
0.0052253154
0.0053343754
0.0054866737
8.7610142e-06
8.7668689e-06
8.7729083e-06
8.7789472e-06
8.7849345e-06
8.7908591e-06
8.7967241e-06
8.8025435e-06
8.8083488e-06
8.8141956e-06
8.8201743e-06
8.8264193e-06
8.8331176e-06
8.8405125e-06
8.8489021e-06
8.8586334e-06
8.8700906e-06
8.8836825e-06
8.8998273e-06
8.9189387e-06
8.941414e-06
8.9676234e-06
8.9979033e-06
9.0325517e-06
9.0718264e-06
9.1159454e-06
9.1650888e-06
9.2194022e-06
9.2789999e-06
9.3439695e-06
9.4143761e-06
9.4902662e-06
9.5716728e-06
9.65862e-06
9.7511291e-06
9.8492252e-06
9.9529447e-06
1.0062344e-05
1.0177507e-05
1.0298557e-05
1.0425667e-05
1.0559071e-05
1.0699078e-05
1.0846089e-05
1.1000605e-05
1.1163248e-05
1.1334773e-05
1.1516096e-05
1.1708312e-05
1.1912708e-05
1.2130812e-05
1.2364428e-05
1.2615686e-05
1.2887101e-05
1.3181625e-05
1.3502788e-05
1.3854832e-05
1.4242768e-05
1.4672672e-05
1.5152003e-05
1.5689939e-05
1.6297749e-05
1.6989555e-05
1.7784014e-05
1.8704033e-05
1.9779784e-05
2.1052589e-05
2.2576624e-05
2.4424775e-05
2.6707011e-05
2.9573307e-05
3.3246912e-05
3.8067454e-05
4.457707e-05
5.3611932e-05
6.6488076e-05
8.5445789e-05
0.00011395788
0.00015786851
0.0002253609
0.00032597895
0.0004683799
0.00065725788
0.00089048166
0.0011593387
0.0014515714
0.0017550139
0.0020597329
0.0023584349
0.0026460812
0.0029193937
0.0031764094
0.0034161247
0.0036382059
0.0038427972
0.0040304536
0.0042014606
0.0043591241
0.004491125
0.0046812194
8.6499615e-06
8.6555897e-06
8.6614071e-06
8.6672413e-06
8.6730425e-06
8.6787955e-06
8.6844972e-06
8.6901499e-06
8.6957626e-06
8.7013533e-06
8.7069528e-06
8.7126109e-06
8.7184033e-06
8.7244381e-06
8.7308605e-06
8.7378548e-06
8.7456441e-06
8.7544865e-06
8.764669e-06
8.7764994e-06
8.7902979e-06
8.8063873e-06
8.8250849e-06
8.8466953e-06
8.8715043e-06
8.899775e-06
8.9317455e-06
8.967627e-06
9.0076043e-06
9.0518365e-06
9.1004584e-06
9.1535821e-06
9.2113002e-06
9.2736889e-06
9.3408111e-06
9.4127219e-06
9.4894727e-06
9.5711176e-06
9.6577191e-06
9.7493552e-06
9.8461268e-06
9.9481669e-06
1.005565e-05
1.0168802e-05
1.0287912e-05
1.041334e-05
1.0545532e-05
1.0685033e-05
1.08325e-05
1.0988718e-05
1.1154617e-05
1.1331298e-05
1.1520059e-05
1.1722429e-05
1.1940197e-05
1.2175474e-05
1.2430767e-05
1.2709025e-05
1.3013748e-05
1.3349141e-05
1.3720282e-05
1.4133314e-05
1.4595654e-05
1.5116784e-05
1.5708261e-05
1.638455e-05
1.7164546e-05
1.8072532e-05
1.9139507e-05
2.0408785e-05
2.1938008e-05
2.3806706e-05
2.6127483e-05
2.906769e-05
3.2870579e-05
3.7904751e-05
4.4775154e-05
5.4394447e-05
6.8293758e-05
8.8900094e-05
0.00012019428
0.00016834971
0.00024129129
0.00034746691
0.00049345645
0.00068084005
0.00090492949
0.001156295
0.0014239334
0.0016979121
0.0019704585
0.0022359458
0.0024905354
0.002731763
0.0029581999
0.0031692617
0.0033642977
0.0035466521
0.0036999641
0.0039264787
8.5348774e-06
8.5403e-06
8.5459123e-06
8.5515534e-06
8.5571754e-06
8.5627621e-06
8.5683076e-06
8.5738106e-06
8.5792732e-06
8.5847006e-06
8.5901027e-06
8.5954961e-06
8.6009079e-06
8.6063802e-06
8.6119745e-06
8.6177757e-06
8.6238954e-06
8.6304738e-06
8.6376791e-06
8.6457062e-06
8.6547732e-06
8.6651164e-06
8.6769848e-06
8.6906343e-06
8.7063218e-06
8.7242999e-06
8.7448123e-06
8.7680903e-06
8.7943496e-06
8.8237885e-06
8.8565865e-06
8.8929042e-06
8.932883e-06
8.9766468e-06
9.0243031e-06
9.0759461e-06
9.1316591e-06
9.1915183e-06
9.2555969e-06
9.3239693e-06
9.3967167e-06
9.4739331e-06
9.5557323e-06
9.642255e-06
9.7336767e-06
9.8302155e-06
9.9321412e-06
1.0039785e-05
1.015355e-05
1.0273919e-05
1.0401471e-05
1.0536893e-05
1.0680995e-05
1.0834733e-05
1.0999228e-05
1.1175793e-05
1.1365977e-05
1.1571595e-05
1.179478e-05
1.2038055e-05
1.2304422e-05
1.259747e-05
1.2921452e-05
1.328162e-05
1.3684345e-05
1.4137374e-05
1.4650425e-05
1.5235735e-05
1.5908504e-05
1.668868e-05
1.7602259e-05
1.8683368e-05
1.997764e-05
2.1548862e-05
2.3485353e-05
2.5911544e-05
2.90165e-05
3.307387e-05
3.8511115e-05
4.6022526e-05
5.6697379e-05
7.2325321e-05
9.5752471e-05
0.00013160923
0.00018626114
0.00026728522
0.00038173597
0.00053334869
0.00072050887
0.00093652279
0.0011719941
0.0014175161
0.0016652383
0.0019092203
0.0021452501
0.0023706278
0.002582986
0.0027851357
0.0029563069
0.0032158374
8.416143e-06
8.4213767e-06
8.4267984e-06
8.4322565e-06
8.437706e-06
8.4431305e-06
8.4485229e-06
8.4538804e-06
8.4592025e-06
8.4644905e-06
8.469747e-06
8.4749772e-06
8.4801897e-06
8.4853988e-06
8.4906272e-06
8.4959091e-06
8.5012931e-06
8.5068453e-06
8.5126515e-06
8.5188185e-06
8.525475e-06
8.5327704e-06
8.5408727e-06
8.5499663e-06
8.560248e-06
8.5719234e-06
8.5852028e-06
8.6002973e-06
8.6174147e-06
8.6367569e-06
8.6585163e-06
8.6828744e-06
8.7099992e-06
8.7400454e-06
8.7731536e-06
8.8094511e-06
8.8490529e-06
8.8920634e-06
8.9385784e-06
8.9886878e-06
9.0424788e-06
9.1000402e-06
9.1614668e-06
9.2268647e-06
9.2963564e-06
9.3700874e-06
9.4482325e-06
9.5310028e-06
9.6186536e-06
9.7114911e-06
9.8098822e-06
9.9142636e-06
1.0025153e-05
1.014316e-05
1.0269003e-05
1.0403522e-05
1.0547704e-05
1.0702703e-05
1.086987e-05
1.1050788e-05
1.124732e-05
1.1461674e-05
1.169644e-05
1.1954732e-05
1.2240297e-05
1.2557618e-05
1.2912159e-05
1.3310659e-05
1.3761341e-05
1.4274525e-05
1.4863387e-05
1.5544625e-05
1.6339706e-05
1.7277188e-05
1.8395135e-05
1.9744424e-05
2.1397226e-05
2.3453694e-05
2.6058086e-05
2.9430194e-05
3.3899507e-05
3.9978332e-05
4.8511103e-05
6.0847449e-05
7.9168975e-05
0.00010698864
0.00014939622
0.00021294795
0.00030446122
0.0004287137
0.00058618583
0.00077247474
0.00097986669
0.0011997904
0.0014246108
0.0016484643
0.0018662005
0.002079211
0.0022618387
0.0025476726
8.2941406e-06
8.2991993e-06
8.3044426e-06
8.309727e-06
8.3150104e-06
8.3202768e-06
8.3255186e-06
8.3307324e-06
8.3359165e-06
8.3410703e-06
8.3461944e-06
8.3512899e-06
8.356359e-06
8.3614058e-06
8.3664373e-06
8.3714653e-06
8.376508e-06
8.3815924e-06
8.3867564e-06
8.3920513e-06
8.3975433e-06
8.4033151e-06
8.409466e-06
8.4161121e-06
8.4233851e-06
8.431431e-06
8.4404075e-06
8.4504816e-06
8.4618268e-06
8.4746197e-06
8.4890373e-06
8.505254e-06
8.5234394e-06
8.5437562e-06
8.5663586e-06
8.5913918e-06
8.6189914e-06
8.6492831e-06
8.6823839e-06
8.7184024e-06
8.7574409e-06
8.7995975e-06
8.8449686e-06
8.8936527e-06
8.9457537e-06
9.0013854e-06
9.060676e-06
9.1237735e-06
9.1908513e-06
9.2621136e-06
9.337802e-06
9.4182029e-06
9.5036546e-06
9.5945558e-06
9.6913754e-06
9.7946632e-06
9.9050629e-06
1.0023327e-05
1.0150334e-05
1.028711e-05
1.0434855e-05
1.0594977e-05
1.0769123e-05
1.0959239e-05
1.1167638e-05
1.1397066e-05
1.1650803e-05
1.1932819e-05
1.2247898e-05
1.2601876e-05
1.3002014e-05
1.3457325e-05
1.3979066e-05
1.4581648e-05
1.5283677e-05
1.6109164e-05
1.7090358e-05
1.8270441e-05
1.9708075e-05
2.148699e-05
2.3726725e-05
2.6600913e-05
3.0377787e-05
3.5470131e-05
4.2528971e-05
5.262482e-05
6.7491577e-05
8.9884753e-05
0.00012394834
0.00017527531
0.0002501468
0.00035369353
0.00048769471
0.00064949793
0.00083288844
0.0010304314
0.0012340168
0.0014428332
0.0016259475
0.0019261599
8.1692508e-06
8.1741462e-06
8.1792218e-06
8.1843409e-06
8.1894643e-06
8.1945768e-06
8.1996709e-06
8.2047427e-06
8.2097898e-06
8.2148109e-06
8.2198055e-06
8.2247734e-06
8.2297145e-06
8.2346295e-06
8.2395199e-06
8.2443885e-06
8.2492407e-06
8.2540857e-06
8.2589375e-06
8.2638174e-06
8.268755e-06
8.2737904e-06
8.2789753e-06
8.2843742e-06
8.290065e-06
8.2961393e-06
8.302702e-06
8.30987e-06
8.3177709e-06
8.3265414e-06
8.3363246e-06
8.3472682e-06
8.359522e-06
8.3732359e-06
8.3885579e-06
8.4056325e-06
8.4245996e-06
8.4455932e-06
8.4687411e-06
8.4941644e-06
8.5219778e-06
8.5522904e-06
8.585207e-06
8.6208298e-06
8.6592606e-06
8.7006034e-06
8.7449674e-06
8.7924712e-06
8.8432461e-06
8.8974405e-06
8.9552247e-06
9.0167966e-06
9.0823864e-06
9.1522631e-06
9.2267413e-06
9.3061891e-06
9.3910362e-06
9.4817838e-06
9.5790164e-06
9.6834151e-06
9.7957725e-06
9.9170152e-06
1.0048222e-05
1.0190656e-05
1.0345804e-05
1.0515417e-05
1.0701562e-05
1.0906704e-05
1.113378e-05
1.1386311e-05
1.166858e-05
1.1985817e-05
1.234442e-05
1.2752343e-05
1.3219593e-05
1.3758757e-05
1.438606e-05
1.5122584e-05
1.5995823e-05
1.7042973e-05
1.8314929e-05
1.9881769e-05
2.1844772e-05
2.4351917e-05
2.7623164e-05
3.2000317e-05
3.8023524e-05
4.6560974e-05
5.9020027e-05
7.7653791e-05
0.00010590776
0.00014857847
0.00021133968
0.00029929924
0.00041491509
0.00055700411
0.00071954285
0.00090150166
0.0010678588
0.0013627852
8.0418497e-06
8.0465918e-06
8.051509e-06
8.0564706e-06
8.0614399e-06
8.0664028e-06
8.0713523e-06
8.0762842e-06
8.0811956e-06
8.086085e-06
8.0909511e-06
8.095793e-06
8.1006101e-06
8.1054017e-06
8.1101674e-06
8.114907e-06
8.1196212e-06
8.1243117e-06
8.1289823e-06
8.1336401e-06
8.138296e-06
8.1429668e-06
8.1476758e-06
8.1524548e-06
8.1573446e-06
8.1623965e-06
8.1676727e-06
8.1732463e-06
8.1792014e-06
8.1856326e-06
8.1926434e-06
8.2003455e-06
8.2088572e-06
8.2183016e-06