/*--------------------------------*- C++ -*----------------------------------*\
  =========                 |
  \\      /  F ield         | OpenFOAM: The Open Source CFD Toolbox
   \\    /   O peration     | Website:  https://openfoam.org
    \\  /    A nd           | Version:  12
     \\/     M anipulation  |
\*---------------------------------------------------------------------------*/
FoamFile
{
    format      ascii;
    class       volScalarField;
    location    "1200";
    object      nut;
}
// * * * * * * * * * * * * * * * * * * * * * * * * * * * * * * * * * * * * * //

dimensions      [0 2 -1 0 0 0 0];

internalField   nonuniform List<scalar> 
13056
(
5.8393018e-07
3.3879923e-07
2.7666532e-07
2.5108939e-07
2.3592686e-07
2.2562864e-07
2.1822245e-07
2.12696e-07
2.0845224e-07
2.0511653e-07
2.0244358e-07
2.0026688e-07
1.9846973e-07
1.9696793e-07
1.9569941e-07
1.9461698e-07
1.9368574e-07
1.9287261e-07
1.9218002e-07
1.9147087e-07
1.9129921e-07
1.8916115e-07
1.9519506e-07
9.8302338e-08
3.7722891e-11
4.6655108e-11
4.3247759e-11
3.9826189e-11
3.7280058e-11
3.5212087e-11
3.3457702e-11
3.1960161e-11
3.0674965e-11
2.9558911e-11
2.8577273e-11
2.7704807e-11
2.6923324e-11
2.6217764e-11
2.5574982e-11
2.4985422e-11
2.4441854e-11
2.3937921e-11
2.3468506e-11
2.3029392e-11
2.2617045e-11
2.2228534e-11
2.1861273e-11
2.1513128e-11
2.1182291e-11
2.0867134e-11
2.0566354e-11
2.0278754e-11
2.0003152e-11
1.9738579e-11
1.9484179e-11
1.9239103e-11
1.9002609e-11
1.8774104e-11
1.8553028e-11
1.833882e-11
1.8131018e-11
1.7929241e-11
1.7733097e-11
1.7542183e-11
1.7356168e-11
1.7174776e-11
1.6997728e-11
1.6824726e-11
1.665551e-11
1.6489881e-11
1.6327652e-11
1.6168597e-11
1.601249e-11
1.5859189e-11
1.5708558e-11
1.5560426e-11
1.5414623e-11
1.5270994e-11
1.5129434e-11
1.4989835e-11
1.4852062e-11
1.4715969e-11
1.4581457e-11
1.4448445e-11
1.4316836e-11
1.4186513e-11
1.4057351e-11
1.3929287e-11
1.3802256e-11
1.3676157e-11
1.3550889e-11
1.3426359e-11
1.3302509e-11
1.3179278e-11
1.3056565e-11
1.2934268e-11
1.2812328e-11
1.2690687e-11
1.2569256e-11
1.2447938e-11
1.2326649e-11
1.2205329e-11
1.2083899e-11
1.1962255e-11
1.1840302e-11
1.171797e-11
1.1595173e-11
1.1471792e-11
1.1347723e-11
1.1222881e-11
1.1097145e-11
1.0970358e-11
1.0842441e-11
1.071602e-11
1.0595025e-11
1.048048e-11
1.0371842e-11
1.0268616e-11
1.0170341e-11
1.007663e-11
9.9871359e-12
9.9015363e-12
9.8195313e-12
9.7408511e-12
9.6652672e-12
9.5925617e-12
9.522528e-12
9.4549556e-12
9.3896733e-12
9.3264233e-12
9.2651922e-12
9.205185e-12
9.1473916e-12
9.0878985e-12
9.0354952e-12
8.9502948e-12
5.8435592e-07
3.3906531e-07
2.7684998e-07
2.5123406e-07
2.3604728e-07
2.2573224e-07
2.183137e-07
2.1277784e-07
2.0852673e-07
2.0518515e-07
2.0250744e-07
2.0032681e-07
1.9852637e-07
1.9702179e-07
1.9575089e-07
1.9466639e-07
1.9373334e-07
1.9291859e-07
1.9222457e-07
1.915139e-07
1.9134196e-07
1.891973e-07
1.9525694e-07
9.8551419e-08
7.7882111e-09
1.0113161e-08
9.5175354e-09
8.8428347e-09
8.3274316e-09
7.9024456e-09
7.5381171e-09
7.2246573e-09
6.9539092e-09
6.717524e-09
6.5086477e-09
6.3222491e-09
6.1546774e-09
6.0028875e-09
5.8641993e-09
5.7366508e-09
5.6187575e-09
5.5092106e-09
5.4069494e-09
5.3110978e-09
5.2209206e-09
5.135806e-09
5.0552132e-09
4.9786943e-09
4.9058704e-09
4.8363995e-09
4.7700073e-09
4.7064413e-09
4.6454516e-09
4.5868323e-09
4.5304012e-09
4.4759781e-09
4.4234046e-09
4.3725539e-09
4.3233069e-09
4.2755433e-09
4.2291643e-09
4.1840885e-09
4.1402316e-09
4.0975071e-09
4.0558434e-09
4.0151816e-09
3.975461e-09
3.9366175e-09
3.8985946e-09
3.8613493e-09
3.8248413e-09
3.7890214e-09
3.7538401e-09
3.7192668e-09
3.6852719e-09
3.6518182e-09
3.6188682e-09
3.586388e-09
3.5543544e-09
3.5227445e-09
3.4915278e-09
3.4606723e-09
3.4301563e-09
3.3999616e-09
3.3700672e-09
3.3404469e-09
3.3110727e-09
3.2819309e-09
3.2530068e-09
3.2242782e-09
3.1957219e-09
3.1673174e-09
3.1390516e-09
3.1109105e-09
3.0828719e-09
3.054912e-09
3.0270179e-09
2.9991763e-09
2.9713666e-09
2.9435669e-09
2.9157581e-09
2.8879261e-09
2.8600529e-09
2.8321147e-09
2.804089e-09
2.7759602e-09
2.7477079e-09
2.7193046e-09
2.6907264e-09
2.6619528e-09
2.6329559e-09
2.603699e-09
2.5741635e-09
2.5449554e-09
2.5169847e-09
2.4904903e-09
2.4653489e-09
2.4414478e-09
2.4186823e-09
2.396964e-09
2.3762139e-09
2.3563585e-09
2.3373292e-09
2.3190643e-09
2.3015118e-09
2.2846216e-09
2.2683466e-09
2.2526382e-09
2.2374574e-09
2.2227446e-09
2.208497e-09
2.1945306e-09
2.1810745e-09
2.1672217e-09
2.1550127e-09
2.1351563e-09
5.8575615e-07
3.3989857e-07
2.7742738e-07
2.5169009e-07
2.3642866e-07
2.2606141e-07
2.186044e-07
2.1303926e-07
2.0876527e-07
2.0540544e-07
2.0271292e-07
2.0052008e-07
1.9870943e-07
1.9719621e-07
1.959179e-07
1.9482698e-07
1.938883e-07
1.9306851e-07
1.9237004e-07
1.9165477e-07
1.9148089e-07
1.893208e-07
1.9543577e-07
9.8763867e-08
3.893443e-08
5.439911e-08
5.2756163e-08
4.9958371e-08
4.7679022e-08
4.5732222e-08
4.4023321e-08
4.2526816e-08
4.1215475e-08
4.0056565e-08
3.9021717e-08
3.8089604e-08
3.7244473e-08
3.6472993e-08
3.5763218e-08
3.5106232e-08
3.44953e-08
3.3924466e-08
3.3388813e-08
3.2884262e-08
3.2407381e-08
3.1955292e-08
3.1525442e-08
3.1115698e-08
3.0724257e-08
3.0349496e-08
2.9990098e-08
2.9644849e-08
2.9312535e-08
2.8992148e-08
2.8682793e-08
2.8383584e-08
2.8093737e-08
2.7812624e-08
2.7539653e-08
2.7274228e-08
2.7015854e-08
2.6764125e-08
2.6518619e-08
2.6278898e-08
2.6044599e-08
2.5815424e-08
2.5591064e-08
2.537119e-08
2.5155512e-08
2.4943809e-08
2.4735874e-08
2.4531452e-08
2.4330283e-08
2.4132207e-08
2.3937073e-08
2.3744684e-08
2.355484e-08
2.3367361e-08
2.3182124e-08
2.2999007e-08
2.2817847e-08
2.2638469e-08
2.2460754e-08
2.2284606e-08
2.2109909e-08
2.1936518e-08
2.1764277e-08
2.1593109e-08
2.1422934e-08
2.1253626e-08
2.1085054e-08
2.09171e-08
2.0749689e-08
2.058274e-08
2.0416125e-08
2.0249703e-08
2.0083399e-08
1.9917134e-08
1.9750785e-08
1.9584219e-08
1.9417323e-08
1.9250009e-08
1.9082167e-08
1.891365e-08
1.8744321e-08
1.8574079e-08
1.8402797e-08
1.8230302e-08
1.8056443e-08
1.7881088e-08
1.7704058e-08
1.752512e-08
1.7344148e-08
1.7164857e-08
1.6992856e-08
1.6829659e-08
1.6674547e-08
1.6526861e-08
1.6385986e-08
1.6251404e-08
1.6122649e-08
1.5999287e-08
1.5880911e-08
1.5767157e-08
1.5657713e-08
1.5552284e-08
1.5450586e-08
1.5352328e-08
1.5257274e-08
1.5165064e-08
1.5075684e-08
1.4988e-08
1.4903424e-08
1.4816335e-08
1.4739454e-08
1.4614278e-08
5.8817851e-07
3.4133085e-07
2.7842097e-07
2.5247655e-07
2.3708732e-07
2.2663049e-07
2.1910745e-07
2.1349203e-07
2.0917877e-07
2.0578761e-07
2.0306964e-07
2.0085583e-07
1.9902764e-07
1.9749958e-07
1.9620855e-07
1.951066e-07
1.9415824e-07
1.9332979e-07
1.9262367e-07
1.9190055e-07
1.9172298e-07
1.8953905e-07
1.9573856e-07
9.8933379e-08
8.4380794e-08
1.2531272e-07
1.2493924e-07
1.2042621e-07
1.1639152e-07
1.1279429e-07
1.0955425e-07
1.0666632e-07
1.0410029e-07
1.0180616e-07
9.973723e-08
9.7857252e-08
9.6138705e-08
9.455811e-08
9.3094226e-08
9.1730662e-08
9.0455081e-08
8.9256678e-08
8.8126276e-08
8.7056245e-08
8.6040163e-08
8.50726e-08
8.4148728e-08
8.326447e-08
8.2416395e-08
8.1601434e-08
8.0817046e-08
8.0060896e-08
7.933064e-08
7.8624281e-08
7.7940059e-08
7.7276237e-08
7.6631263e-08
7.6003877e-08
7.5392912e-08
7.4797185e-08
7.4215705e-08
7.3647656e-08
7.3092194e-08
7.2548433e-08
7.2015635e-08
7.149319e-08
7.098047e-08
7.0476801e-08
6.9981583e-08
6.9494354e-08
6.9014689e-08
6.8542062e-08
6.8075918e-08
6.7615921e-08
6.7161756e-08
6.6713008e-08
6.6269244e-08
6.5830077e-08
6.5395238e-08
6.496447e-08
6.4537415e-08
6.4113684e-08
6.3693019e-08
6.3275199e-08
6.2859971e-08
6.2447008e-08
6.2035949e-08
6.162662e-08
6.1218839e-08
6.0812314e-08
6.0406736e-08
6.000183e-08
5.9597412e-08
5.9193293e-08
5.8789163e-08
5.8384678e-08
5.7979654e-08
5.7573893e-08
5.7167089e-08
5.6758912e-08
5.6349072e-08
5.5937344e-08
5.5523441e-08
5.5106988e-08
5.4687628e-08
5.4265092e-08
5.383904e-08
5.3409018e-08
5.2974622e-08
5.2535491e-08
5.209114e-08
5.1640947e-08
5.1184547e-08
5.0731297e-08
5.0295459e-08
4.9881007e-08
4.9486249e-08
4.9109616e-08
4.8749649e-08
4.8405113e-08
4.8074902e-08
4.7757972e-08
4.7453343e-08
4.7160131e-08
4.6877591e-08
4.6605004e-08
4.6341679e-08
4.6086903e-08
4.5840095e-08
4.5600359e-08
4.5367668e-08
4.5139156e-08
4.4918385e-08
4.4691035e-08
4.4489818e-08
4.4161682e-08
5.9169934e-07
3.4341352e-07
2.7986892e-07
2.5362465e-07
2.3805005e-07
2.2746314e-07
2.1984418e-07
2.1415568e-07
2.0978533e-07
2.0634861e-07
2.0359365e-07
2.0134933e-07
1.9949564e-07
1.9794598e-07
1.9663645e-07
1.9551844e-07
1.9455599e-07
1.9371493e-07
1.9299769e-07
1.9226317e-07
1.9207998e-07
1.8986414e-07
1.9617791e-07
9.9097962e-08
1.3226791e-07
2.060812e-07
2.0977159e-07
2.0472325e-07
1.9958541e-07
1.9478089e-07
1.9034694e-07
1.8633743e-07
1.8273756e-07
1.7949253e-07
1.7654616e-07
1.7385314e-07
1.713777e-07
1.6908938e-07
1.6696078e-07
1.6496977e-07
1.6309974e-07
1.6133652e-07
1.5966762e-07
1.5808268e-07
1.5657299e-07
1.5513112e-07
1.537505e-07
1.5242548e-07
1.5115136e-07
1.4992398e-07
1.4873979e-07
1.4759556e-07
1.4648806e-07
1.4541444e-07
1.4437222e-07
1.4335899e-07
1.4237254e-07
1.4141108e-07
1.4047295e-07
1.395565e-07
1.3866031e-07
1.3778322e-07
1.3692401e-07
1.3608144e-07
1.3525443e-07
1.344421e-07
1.3364354e-07
1.3285779e-07
1.3208396e-07
1.3132138e-07
1.3056943e-07
1.2982734e-07
1.2909428e-07
1.2836977e-07
1.2765333e-07
1.2694435e-07
1.2624218e-07
1.2554624e-07
1.2485612e-07
1.2417143e-07
1.2349163e-07
1.2281612e-07
1.2214451e-07
1.2147644e-07
1.2081154e-07
1.2014929e-07
1.1948912e-07
1.1883076e-07
1.1817392e-07
1.1751813e-07
1.168629e-07
1.1620778e-07
1.1555248e-07
1.1489668e-07
1.1423987e-07
1.135815e-07
1.1292124e-07
1.1225878e-07
1.1159358e-07
1.109251e-07
1.1025284e-07
1.0957642e-07
1.0889534e-07
1.0820895e-07
1.0751664e-07
1.0681793e-07
1.0611222e-07
1.0539872e-07
1.0467671e-07
1.0394555e-07
1.0320437e-07
1.0245208e-07
1.0168798e-07
1.0092772e-07
1.0019533e-07
9.9497653e-08
9.8832008e-08
9.8195894e-08
9.7586975e-08
9.7003286e-08
9.6443056e-08
9.5904606e-08
9.5386355e-08
9.4886873e-08
9.4404959e-08
9.3939451e-08
9.3489226e-08
9.305311e-08
9.2630153e-08
9.2218883e-08
9.1819248e-08
9.1426497e-08
9.1046467e-08
9.0655306e-08
9.0308148e-08
8.9741214e-08
5.9642391e-07
3.4621842e-07
2.8182507e-07
2.5517865e-07
2.3935504e-07
2.2859321e-07
2.2084516e-07
2.150583e-07
2.1061105e-07
2.0711297e-07
2.0430816e-07
2.0202272e-07
2.0013464e-07
1.9855587e-07
1.9722137e-07
1.9608171e-07
1.9510024e-07
1.9424218e-07
1.9350991e-07
1.9276003e-07
1.925691e-07
1.9031228e-07
1.9677401e-07
9.9304695e-08
1.7844029e-07
2.9001756e-07
3.0010408e-07
2.9553925e-07
2.8984431e-07
2.8420141e-07
2.7885853e-07
2.7396196e-07
2.6952672e-07
2.6550241e-07
2.6182977e-07
2.5845866e-07
2.5534751e-07
2.5246104e-07
2.49768e-07
2.4724185e-07
2.4486263e-07
2.4261388e-07
2.4048056e-07
2.3845015e-07
2.365122e-07
2.3465772e-07
2.328788e-07
2.3116852e-07
2.2952115e-07
2.2793176e-07
2.2639596e-07
2.2490977e-07
2.2346929e-07
2.2207097e-07
2.2071167e-07
2.1938845e-07
2.1809863e-07
2.1683989e-07
2.1561019e-07
2.1440752e-07
2.132301e-07
2.1207645e-07
2.1094506e-07
2.0983438e-07
2.0874308e-07
2.0767e-07
2.06614e-07
2.0557389e-07
2.0454856e-07
2.0353711e-07
2.0253876e-07
2.0155255e-07
2.0057744e-07
1.9961276e-07
1.9865791e-07
1.9771212e-07
1.9677454e-07
1.9584444e-07
1.9492126e-07
1.9400448e-07
1.9309343e-07
1.9218732e-07
1.9128561e-07
1.9038786e-07
1.8949353e-07
1.8860197e-07
1.8771242e-07
1.868245e-07
1.8593781e-07
1.8505174e-07
1.8416563e-07
1.8327888e-07
1.8239105e-07
1.8150173e-07
1.8061024e-07
1.7971579e-07
1.7881794e-07
1.7791624e-07
1.7700997e-07
1.7609836e-07
1.7518072e-07
1.7425649e-07
1.7332498e-07
1.7238528e-07
1.7143652e-07
1.7047801e-07
1.695089e-07
1.6852806e-07
1.6753447e-07
1.665272e-07
1.6550499e-07
1.6446627e-07
1.6341004e-07
1.6235787e-07
1.6134311e-07
1.6037542e-07
1.5945121e-07
1.585671e-07
1.5771998e-07
1.5690719e-07
1.5612637e-07
1.5537526e-07
1.546517e-07
1.5395378e-07
1.5327987e-07
1.526284e-07
1.5199784e-07
1.5138659e-07
1.5079336e-07
1.5021614e-07
1.4965484e-07
1.4910304e-07
1.4856844e-07
1.4801878e-07
1.4752966e-07
1.4673008e-07
6.0248724e-07
3.4983935e-07
2.8436054e-07
2.5719743e-07
2.410533e-07
2.3006606e-07
2.2215154e-07
2.1623774e-07
2.1169122e-07
2.0811387e-07
2.0524464e-07
2.0290605e-07
2.0097353e-07
1.993571e-07
1.9799032e-07
1.9682263e-07
1.9581657e-07
1.949365e-07
1.9418478e-07
1.9341503e-07
1.9321392e-07
1.9090562e-07
1.9755458e-07
9.9605006e-08
2.2195226e-07
3.7548837e-07
3.9413278e-07
3.9097202e-07
3.8515814e-07
3.789434e-07
3.7288246e-07
3.6724893e-07
3.6210181e-07
3.5740278e-07
3.5309468e-07
3.4912577e-07
3.4545042e-07
3.4202999e-07
3.3883098e-07
3.3582332e-07
3.3298428e-07
3.3029584e-07
3.2774086e-07
3.2530504e-07
3.2297656e-07
3.2074508e-07
3.1860164e-07
3.1653821e-07
3.145482e-07
3.126261e-07
3.1076674e-07
3.0896553e-07
3.0721802e-07
3.0551998e-07
3.0386773e-07
3.0225788e-07
3.006873e-07
2.9915324e-07
2.9765328e-07
2.9618512e-07
2.947467e-07
2.9333619e-07
2.9195184e-07
2.9059187e-07
2.8925467e-07
2.8793886e-07
2.8664308e-07
2.8536593e-07
2.8410613e-07
2.8286256e-07
2.8163426e-07
2.8042013e-07
2.7921893e-07
2.7802983e-07
2.7685212e-07
2.7568485e-07
2.7452704e-07
2.7337779e-07
2.7223639e-07
2.7110224e-07
2.6997451e-07
2.6885224e-07
2.6773479e-07
2.6662159e-07
2.6551199e-07
2.6440519e-07
2.6330026e-07
2.6219671e-07
2.6109407e-07
2.5999157e-07
2.5888838e-07
2.5778378e-07
2.5667721e-07
2.5556814e-07
2.5445572e-07
2.5333896e-07
2.5221733e-07
2.5109024e-07
2.4995676e-07
2.4881593e-07
2.4766689e-07
2.4650892e-07
2.4534111e-07
2.4416232e-07
2.4297146e-07
2.4176761e-07
2.4054967e-07
2.3931622e-07
2.3806594e-07
2.367976e-07
2.3550961e-07
2.3419994e-07
2.3286725e-07
2.3153874e-07
2.3025662e-07
2.2903321e-07
2.2786406e-07
2.2674499e-07
2.2567211e-07
2.2464216e-07
2.2365221e-07
2.2269943e-07
2.2178115e-07
2.2089497e-07
2.2003888e-07
2.1921092e-07
2.1840917e-07
2.1763166e-07
2.1687672e-07
2.1614192e-07
2.1542703e-07
2.1472422e-07
2.1404264e-07
2.1334289e-07
2.1271865e-07
2.1169744e-07
6.100553e-07
3.5439421e-07
2.8756595e-07
2.5975658e-07
2.4321067e-07
2.3194052e-07
2.2381683e-07
2.177434e-07
2.1307197e-07
2.0939483e-07
2.0644448e-07
2.0403893e-07
2.0205037e-07
2.0038647e-07
1.9897898e-07
1.9777595e-07
1.9673885e-07
1.9583099e-07
1.9505472e-07
1.9425991e-07
1.9404581e-07
1.9167373e-07
1.9855625e-07
1.0005668e-07
2.6264186e-07
4.6237711e-07
4.9183253e-07
4.910435e-07
4.8552789e-07
4.7896683e-07
4.7233241e-07
4.6606638e-07
4.6028771e-07
4.5497815e-07
4.5008759e-07
4.4556577e-07
4.4136458e-07
4.3744324e-07
4.3376732e-07
4.303039e-07
4.2702794e-07
4.2392043e-07
4.2096247e-07
4.1813827e-07
4.1543482e-07
4.1284068e-07
4.1034598e-07
4.0794171e-07
4.0562053e-07
4.0337648e-07
4.012037e-07
3.9909699e-07
3.9705146e-07
3.9506226e-07
3.9312514e-07
3.9123635e-07
3.8939238e-07
3.8759001e-07
3.8582651e-07
3.8409932e-07
3.8240609e-07
3.807447e-07
3.7911314e-07
3.7750943e-07
3.7593173e-07
3.7437841e-07
3.7284789e-07
3.7133862e-07
3.6984913e-07
3.6837809e-07
3.6692438e-07
3.6548676e-07
3.6406381e-07
3.6265454e-07
3.6125811e-07
3.5987343e-07
3.5849937e-07
3.5713491e-07
3.5577917e-07
3.5443144e-07
3.5309078e-07
3.5175606e-07
3.5042654e-07
3.4910151e-07
3.4778021e-07
3.4646172e-07
3.4514493e-07
3.4382925e-07
3.4251412e-07
3.4119863e-07
3.3988181e-07
3.3856279e-07
3.3724088e-07
3.3591547e-07
3.3458555e-07
3.3324992e-07
3.3190793e-07
3.3055888e-07
3.2920165e-07
3.2783509e-07
3.2645816e-07
3.2506997e-07
3.2366944e-07
3.2225518e-07
3.2082585e-07
3.1938037e-07
3.1791737e-07
3.1643513e-07
3.1493205e-07
3.1340663e-07
3.1185692e-07
3.1028043e-07
3.0867554e-07
3.0707495e-07
3.0552962e-07
3.0405451e-07
3.0264431e-07
3.0129402e-07
2.9999902e-07
2.9875544e-07
2.9755978e-07
2.9640865e-07
2.9529887e-07
2.9422757e-07
2.9319235e-07
2.9219087e-07
2.9122085e-07
2.9027989e-07
2.8936602e-07
2.8847634e-07
2.876105e-07
2.8675943e-07
2.8593334e-07
2.8508665e-07
2.8432951e-07
2.8309021e-07
6.1932693e-07
3.600279e-07
2.9155445e-07
2.6295131e-07
2.4591063e-07
2.3429148e-07
2.2590943e-07
2.1963866e-07
2.1481267e-07
2.1101199e-07
2.0796114e-07
2.054726e-07
2.0341458e-07
2.0169179e-07
2.0023379e-07
1.9898688e-07
1.9791125e-07
1.9696888e-07
1.9616209e-07
1.9533616e-07
1.9510579e-07
1.9265539e-07
1.9982657e-07
1.0072732e-07
3.0045795e-07
5.5092227e-07
5.9370676e-07
5.9641158e-07
5.9165401e-07
5.849753e-07
5.7790061e-07
5.7108997e-07
5.6474184e-07
5.5886725e-07
5.534286e-07
5.4838054e-07
5.4367424e-07
5.3926797e-07
5.3512763e-07
5.3121822e-07
5.2751278e-07
5.2399182e-07
5.2063505e-07
5.1742536e-07
5.1434884e-07
5.1139306e-07
5.085474e-07
5.0580198e-07
5.0314878e-07
5.0058151e-07
4.9809366e-07
4.9567948e-07
4.9333371e-07
4.9105086e-07
4.8882617e-07
4.8665554e-07
4.845351e-07
4.8246122e-07
4.8043079e-07
4.784411e-07
4.7648948e-07
4.7457353e-07
4.72691e-07
4.7083971e-07
4.690176e-07
4.6722278e-07
4.6545349e-07
4.6370801e-07
4.619847e-07
4.6028201e-07
4.5859866e-07
4.5693328e-07
4.5528428e-07
4.5365049e-07
4.5203096e-07
4.5042447e-07
4.4882971e-07
4.4724555e-07
4.4567096e-07
4.441051e-07
4.4254692e-07
4.4099514e-07
4.3944889e-07
4.3790735e-07
4.3636964e-07
4.3483469e-07
4.3330126e-07
4.3176862e-07
4.3023613e-07
4.2870274e-07
4.2716733e-07
4.256289e-07
4.2408664e-07
4.2253982e-07
4.2098726e-07
4.1942759e-07
4.1786003e-07
4.1628375e-07
4.1469746e-07
4.1309978e-07
4.1148953e-07
4.0986564e-07
4.0822682e-07
4.0657147e-07
4.04898e-07
4.0320512e-07
4.0149123e-07
3.997543e-07
3.9799243e-07
3.9620387e-07
3.9438627e-07
3.9253673e-07
3.9065327e-07
3.8877428e-07
3.8695965e-07
3.8522708e-07
3.8357035e-07
3.8198364e-07
3.8046155e-07
3.7899959e-07
3.7759368e-07
3.7623986e-07
3.7493442e-07
3.73674e-07
3.7245582e-07
3.7127712e-07
3.7013526e-07
3.6902742e-07
3.6795128e-07
3.6690353e-07
3.6588363e-07
3.6488135e-07
3.6390774e-07
3.6291159e-07
3.6201877e-07
3.605567e-07
6.3053653e-07
3.6691614e-07
2.9646572e-07
2.6690037e-07
2.4925792e-07
2.3721346e-07
2.2851606e-07
2.2200411e-07
2.1698906e-07
2.1303712e-07
2.0986317e-07
2.072729e-07
2.0512969e-07
2.0333465e-07
2.0181464e-07
2.0051386e-07
1.9939089e-07
1.9840612e-07
1.9756181e-07
1.9669765e-07
1.9644713e-07
1.9390111e-07
2.0142658e-07
1.0169832e-07
3.3526674e-07
6.413372e-07
7.0037179e-07
7.0793847e-07
7.0449188e-07
6.9795926e-07
6.9058964e-07
6.8332469e-07
6.7646689e-07
6.7006776e-07
6.6410882e-07
6.5855371e-07
6.5335505e-07
6.4847151e-07
6.4387077e-07
6.3951654e-07
6.3538047e-07
6.3144313e-07
6.2768318e-07
6.2408249e-07
6.2062646e-07
6.1730181e-07
6.1409738e-07
6.1100247e-07
6.0800849e-07
6.0510893e-07
6.022967e-07
5.9956551e-07
5.9690979e-07
5.9432346e-07
5.9180121e-07
5.8933863e-07
5.8693156e-07
5.8457591e-07
5.8226826e-07
5.800057e-07
5.7778531e-07
5.7560438e-07
5.7346042e-07
5.7135109e-07
5.692741e-07
5.6722731e-07
5.6520874e-07
5.6321652e-07
5.6124888e-07
5.5930401e-07
5.5738046e-07
5.5547677e-07
5.5359114e-07
5.5172225e-07
5.4986903e-07
5.4803008e-07
5.4620398e-07
5.4438947e-07
5.4258533e-07
5.4079062e-07
5.3900417e-07
5.3722454e-07
5.3545074e-07
5.3368181e-07
5.3191676e-07
5.3015439e-07
5.2839327e-07
5.2663258e-07
5.2487157e-07
5.2310907e-07
5.2134377e-07
5.1957456e-07
5.1780048e-07
5.1602069e-07
5.1423386e-07
5.1243839e-07
5.1063341e-07
5.0881795e-07
5.069905e-07
5.051495e-07
5.0329358e-07
5.0142149e-07
4.9953175e-07
4.976225e-07
4.9569192e-07
4.9373849e-07
4.9176037e-07
4.8975518e-07
4.8772076e-07
4.8565505e-07
4.8355533e-07
4.8141822e-07
4.7924141e-07
4.7706923e-07
4.7497104e-07
4.729674e-07
4.7105115e-07
4.6921557e-07
4.6745448e-07
4.6576271e-07
4.6413557e-07
4.625685e-07
4.6105722e-07
4.5959787e-07
4.5818724e-07
4.5682217e-07
4.554996e-07
4.5421629e-07
4.5296955e-07
4.5175563e-07
4.5057378e-07
4.4941269e-07
4.4828396e-07
4.4713121e-07
4.4609574e-07
4.4439934e-07
6.4395741e-07
3.7527024e-07
3.0247107e-07
2.7175101e-07
2.5338348e-07
2.4082524e-07
2.3174616e-07
2.2494188e-07
2.1969742e-07
2.1556176e-07
2.1223814e-07
2.0952413e-07
2.0727722e-07
2.0539419e-07
2.0379863e-07
2.0243217e-07
2.0125146e-07
2.0021495e-07
1.9932483e-07
1.9841403e-07
1.9813876e-07
1.9547642e-07
2.0343439e-07
1.0306925e-07
3.6679728e-07
7.3364696e-07
8.1242834e-07
8.2653353e-07
8.2509378e-07
8.1903479e-07
8.1154718e-07
8.0393541e-07
7.9663732e-07
7.8975909e-07
7.8330959e-07
7.7726659e-07
7.715869e-07
7.6623133e-07
7.6117096e-07
7.5636935e-07
7.517973e-07
7.4743616e-07
7.4326396e-07
7.3926188e-07
7.3541486e-07
7.3170903e-07
7.2813281e-07
7.2467486e-07
7.2132607e-07
7.1807991e-07
7.1492871e-07
7.1186572e-07
7.0888511e-07
7.0598023e-07
7.0314523e-07
7.0037544e-07
6.9766641e-07
6.9501361e-07
6.9241329e-07
6.8986241e-07
6.873578e-07
6.8489642e-07
6.8247556e-07
6.8009271e-07
6.7774538e-07
6.7543115e-07
6.7314783e-07
6.7089342e-07
6.6866599e-07
6.664635e-07
6.642843e-07
6.6212683e-07
6.5998911e-07
6.5786966e-07
6.5576725e-07
6.5368034e-07
6.5160737e-07
6.4954695e-07
6.4749768e-07
6.454585e-07
6.4342812e-07
6.4140491e-07
6.3938779e-07
6.3737566e-07
6.3536737e-07
6.333616e-07
6.3135676e-07
6.2935188e-07
6.2734614e-07
6.2533818e-07
6.2332655e-07
6.2131001e-07
6.1928744e-07
6.1725787e-07
6.1521983e-07
6.1317147e-07
6.1111181e-07
6.0903974e-07
6.0695353e-07
6.0485139e-07
6.0273179e-07
6.0059328e-07
5.9843416e-07
5.962523e-07
5.9404564e-07
5.9181242e-07
5.8955051e-07
5.8725721e-07
5.8493005e-07
5.8256664e-07
5.8016387e-07
5.7771784e-07
5.7522589e-07
5.7273874e-07
5.7033591e-07
5.6804108e-07
5.6584607e-07
5.6374319e-07
5.6172538e-07
5.597868e-07
5.5792207e-07
5.56126e-07
5.5439369e-07
5.5272073e-07
5.5110346e-07
5.495383e-07
5.4802173e-07
5.4655005e-07
5.4512018e-07
5.4372792e-07
5.4237223e-07
5.410408e-07
5.3974554e-07
5.3842518e-07
5.372366e-07
5.3528853e-07
6.5990618e-07
3.85343e-07
3.0977979e-07
2.7768542e-07
2.5845062e-07
2.4527591e-07
2.3573778e-07
2.285813e-07
2.2306005e-07
2.1870248e-07
2.1519791e-07
2.1233416e-07
2.0996167e-07
2.0797202e-07
2.0628485e-07
2.0483872e-07
2.0358793e-07
2.0248859e-07
2.015428e-07
2.0057535e-07
2.0026984e-07
1.9746635e-07
2.0594958e-07
1.0496328e-07
3.9459944e-07
8.2765209e-07
9.3037719e-07
9.5308292e-07
9.5454531e-07
9.4938234e-07
9.4200498e-07
9.3418532e-07
9.2653701e-07
9.1923902e-07
9.1233806e-07
9.0583256e-07
8.9968721e-07
8.9386716e-07
8.8834893e-07
8.8309733e-07
8.7808318e-07
8.7328937e-07
8.6869393e-07
8.642777e-07
8.6002557e-07
8.559233e-07
8.5195914e-07
8.4812127e-07
8.4440019e-07
8.407895e-07
8.3728109e-07
8.3386777e-07
8.3054352e-07
8.2730117e-07
8.2413432e-07
8.2103808e-07
8.1800779e-07
8.1503846e-07
8.1212602e-07
8.0926732e-07
8.0645897e-07
8.0369761e-07
8.0098029e-07
7.9830436e-07
7.9566713e-07
7.9306591e-07
7.9049827e-07
7.8796209e-07
7.8545531e-07
7.8297562e-07
7.8052119e-07
7.7809033e-07
7.7568092e-07
7.7329127e-07
7.7092001e-07
7.6856547e-07
7.662259e-07
7.6389982e-07
7.6158562e-07
7.5928211e-07
7.5698787e-07
7.5470111e-07
7.5242062e-07
7.5014514e-07
7.4787338e-07
7.4560389e-07
7.4333488e-07
7.4106526e-07
7.3879409e-07
7.3651986e-07
7.3424095e-07
7.3195596e-07
7.2966362e-07
7.2736283e-07
7.2505193e-07
7.2272884e-07
7.2039244e-07
7.1804148e-07
7.1567399e-07
7.1328794e-07
7.108816e-07
7.0845335e-07
7.0600119e-07
7.0352275e-07
7.0101568e-07
6.9847799e-07
6.9590721e-07
6.933003e-07
6.9065445e-07
6.8796693e-07
6.8523418e-07
6.8245177e-07
6.7961661e-07
6.7678643e-07
6.7405179e-07
6.714398e-07
6.6894116e-07
6.6654714e-07
6.6424972e-07
6.6204231e-07
6.5991881e-07
6.5787332e-07
6.5590027e-07
6.5399467e-07
6.5215236e-07
6.5036928e-07
6.4864142e-07
6.4696461e-07
6.4533531e-07
6.4374885e-07
6.4220387e-07
6.4068706e-07
6.3921042e-07
6.3770801e-07
6.3635271e-07
6.3413045e-07
6.7874786e-07
3.9743573e-07
3.1864704e-07
2.8492875e-07
2.6466297e-07
2.5075258e-07
2.4066508e-07
2.3308621e-07
2.2723244e-07
2.2260792e-07
2.1888543e-07
2.1584115e-07
2.1331714e-07
2.1119875e-07
2.0940088e-07
2.078584e-07
2.0652283e-07
2.0534742e-07
2.0433418e-07
2.0329813e-07
2.0295577e-07
1.9998133e-07
2.0909912e-07
1.0753387e-07
4.1808905e-07
9.2282954e-07
1.0545741e-06
1.0884032e-06
1.0939312e-06
1.0902186e-06
1.0832539e-06
1.0754127e-06
1.067537e-06
1.059902e-06
1.0526058e-06
1.045676e-06
1.0390898e-06
1.0328199e-06
1.0268506e-06
1.02115e-06
1.01569e-06
1.010456e-06
1.0054269e-06
1.0005837e-06
9.9591173e-07
9.9139669e-07
9.8702701e-07
9.8279057e-07
9.7867769e-07
9.7468232e-07
9.7079602e-07
9.6701122e-07
9.6332186e-07
9.5972027e-07
9.5619952e-07
9.5275456e-07
9.4938056e-07
9.460721e-07
9.428248e-07
9.3963546e-07
9.3650049e-07
9.3341619e-07
9.3037938e-07
9.2738732e-07
9.244371e-07
9.2152575e-07
9.1865062e-07
9.1580948e-07
9.1300013e-07
9.1022e-07
9.0746704e-07
9.0473947e-07
9.0203503e-07
8.9935178e-07
8.9668824e-07
8.9404254e-07
8.9141283e-07
8.8879747e-07
8.8619466e-07
8.8360304e-07
8.8102109e-07
8.7844683e-07
8.7587892e-07
8.7331594e-07
8.7075642e-07
8.6819879e-07
8.6564107e-07
8.6308199e-07
8.6052052e-07
8.5795498e-07
8.5538355e-07
8.5280469e-07
8.5021695e-07
8.4761908e-07
8.4500922e-07
8.4238505e-07
8.397453e-07
8.3708855e-07
8.3441257e-07
8.3171508e-07
8.2899415e-07
8.2624791e-07
8.2347411e-07
8.2067008e-07
8.1783316e-07
8.1496108e-07
8.1205105e-07
8.0909961e-07
8.0610359e-07
8.030599e-07
7.9996448e-07
7.9681232e-07
7.9359988e-07
7.9039252e-07
7.8729304e-07
7.8433228e-07
7.8149974e-07
7.7878554e-07
7.7618061e-07
7.7367753e-07
7.7126943e-07
7.689496e-07
7.6671177e-07
7.6455028e-07
7.6246044e-07
7.6043766e-07
7.584774e-07
7.5657495e-07
7.547263e-07
7.5292626e-07
7.5117307e-07
7.4945247e-07
7.477763e-07
7.4607413e-07
7.4453551e-07
7.420115e-07
7.0090192e-07
4.1190641e-07
3.2938317e-07
2.9375895e-07
2.7227442e-07
2.5749024e-07
2.4674798e-07
2.3866441e-07
2.3241253e-07
2.2746787e-07
2.2348367e-07
2.2022235e-07
2.1751597e-07
2.1524248e-07
2.1331114e-07
2.1165241e-07
2.1021446e-07
2.0894714e-07
2.0785233e-07
2.0673334e-07
2.0634616e-07
2.0316501e-07
2.1304476e-07
1.1097376e-07
4.365775e-07
1.0182504e-06
1.1851946e-06
1.2331951e-06
1.244306e-06
1.2427768e-06
1.2366294e-06
1.2290197e-06
1.2210867e-06
1.2132324e-06
1.2056234e-06
1.1983275e-06
1.1913414e-06
1.1846485e-06
1.1782447e-06
1.1721036e-06
1.1661997e-06
1.1605226e-06
1.1550526e-06
1.149772e-06
1.144667e-06
1.1397238e-06
1.1349313e-06
1.1302774e-06
1.1257527e-06
1.1213515e-06
1.1170654e-06
1.1128866e-06
1.1088089e-06
1.1048244e-06
1.1009256e-06
1.0971073e-06
1.0933648e-06
1.0896921e-06
1.0860846e-06
1.082539e-06
1.0790517e-06
1.0756186e-06
1.0722363e-06
1.0689019e-06
1.0656125e-06
1.0623648e-06
1.0591557e-06
1.0559831e-06
1.0528447e-06
1.0497375e-06
1.0466593e-06
1.0436082e-06
1.0405819e-06
1.0375781e-06
1.0345952e-06
1.0316313e-06
1.0286842e-06
1.0257523e-06
1.0228334e-06
1.0199262e-06
1.0170288e-06
1.0141393e-06
1.011256e-06
1.0083775e-06
1.0055019e-06
1.0026277e-06
9.9975271e-07
9.9687539e-07
9.9399461e-07
9.9110853e-07
9.8821512e-07
9.853127e-07
9.8239959e-07
9.794744e-07
9.7653506e-07
9.7357897e-07
9.7060468e-07
9.6761063e-07
9.6459427e-07
9.6155307e-07
9.5848484e-07
9.5538749e-07
9.5225845e-07
9.4909473e-07
9.4589336e-07
9.4265172e-07
9.3936668e-07
9.3603432e-07
9.3265109e-07
9.2921347e-07
9.2571687e-07
9.2215563e-07
9.185257e-07
9.149009e-07
9.1139756e-07
9.0805073e-07
9.0484854e-07
9.0177983e-07
8.9883441e-07
8.9600393e-07
8.9328066e-07
8.9065703e-07
8.8812596e-07
8.8568106e-07
8.8331707e-07
8.810288e-07
8.7881113e-07
8.7665876e-07
8.7456713e-07
8.7253055e-07
8.7054673e-07
8.6860054e-07
8.667033e-07
8.6478039e-07
8.6303878e-07
8.6018042e-07
7.2684914e-07
4.291789e-07
3.4236479e-07
3.0451878e-07
2.8160144e-07
2.6578405e-07
2.5426435e-07
2.455797e-07
2.3885255e-07
2.3352494e-07
2.2922718e-07
2.2570544e-07
2.2277999e-07
2.2031997e-07
2.1822796e-07
2.1642917e-07
2.1486774e-07
2.134895e-07
2.1229614e-07
2.11077e-07
2.106353e-07
2.072047e-07
2.1799251e-07
1.1552679e-07
4.4906338e-07
1.1127233e-06
1.3222054e-06
1.3879875e-06
1.4066591e-06
1.4082843e-06
1.4034968e-06
1.396463e-06
1.3887081e-06
1.3808009e-06
1.3729991e-06
1.3654251e-06
1.3581033e-06
1.3510334e-06
1.3442269e-06
1.3376661e-06
1.3313306e-06
1.3252153e-06
1.319304e-06
1.3135807e-06
1.3080335e-06
1.3026498e-06
1.2974196e-06
1.2923313e-06
1.2873756e-06
1.2825482e-06
1.2778406e-06
1.2732448e-06
1.268755e-06
1.264363e-06
1.2600609e-06
1.2558435e-06
1.2517059e-06
1.2476421e-06
1.243647e-06
1.2397175e-06
1.2358499e-06
1.2320397e-06
1.2282834e-06
1.224578e-06
1.2209205e-06
1.2173072e-06
1.2137349e-06
1.2102014e-06
1.2067042e-06
1.2032402e-06
1.1998069e-06
1.1964023e-06
1.1930238e-06
1.1896692e-06
1.1863366e-06
1.1830237e-06
1.1797285e-06
1.1764491e-06
1.1731832e-06
1.169929e-06
1.1666849e-06
1.1634485e-06
1.1602181e-06
1.1569919e-06
1.1537682e-06
1.150545e-06
1.14732e-06
1.1440915e-06
1.1408582e-06
1.1376182e-06
1.134369e-06
1.131109e-06
1.1278361e-06
1.1245489e-06
1.121245e-06
1.1179215e-06
1.1145769e-06
1.1112092e-06
1.1078158e-06
1.1043937e-06
1.1009404e-06
1.0974538e-06
1.0939307e-06
1.090368e-06
1.0867622e-06
1.0831103e-06
1.0794089e-06
1.0756536e-06
1.0718403e-06
1.067965e-06
1.0640226e-06
1.0600067e-06
1.0559127e-06
1.0518238e-06
1.0478714e-06
1.0440951e-06
1.0404818e-06
1.0370187e-06
1.0336945e-06
1.0304998e-06
1.0274258e-06
1.0244641e-06
1.0216067e-06
1.0188464e-06
1.0161773e-06
1.0135935e-06
1.0110893e-06
1.0086587e-06
1.0062967e-06
1.0039968e-06
1.0017562e-06
9.9955908e-07
9.9741571e-07
9.9524766e-07
9.9328022e-07
9.9004955e-07
7.5713922e-07
4.4975313e-07
3.5804724e-07
3.1762988e-07
2.9303791e-07
2.7600451e-07
2.6356526e-07
2.5416704e-07
2.4687409e-07
2.4108954e-07
2.3641688e-07
2.3258326e-07
2.2939506e-07
2.2671104e-07
2.2442587e-07
2.2245849e-07
2.2074832e-07
2.1923632e-07
2.1792396e-07
2.1658393e-07
2.1607585e-07
2.1234515e-07
2.2420439e-07
1.2150363e-07
4.5424679e-07
1.2046145e-06
1.4653293e-06
1.5530633e-06
1.5818675e-06
1.5879318e-06
1.5852306e-06
1.5792395e-06
1.5719865e-06
1.5642597e-06
1.556437e-06
1.5487141e-06
1.5411545e-06
1.5337808e-06
1.5266257e-06
1.5196848e-06
1.512945e-06
1.5064095e-06
1.5000669e-06
1.4939046e-06
1.4879135e-06
1.4820832e-06
1.4764053e-06
1.4708694e-06
1.4654671e-06
1.4601953e-06
1.4550463e-06
1.450012e-06
1.4450874e-06
1.4402638e-06
1.4355331e-06
1.4308903e-06
1.4263307e-06
1.4218479e-06
1.4174368e-06
1.4130943e-06
1.4088168e-06
1.4045995e-06
1.4004387e-06
1.3963315e-06
1.3922747e-06
1.3882643e-06
1.3842971e-06
1.3803706e-06
1.3764823e-06
1.3726289e-06