/*--------------------------------*- C++ -*----------------------------------*\
  =========                 |
  \\      /  F ield         | OpenFOAM: The Open Source CFD Toolbox
   \\    /   O peration     | Website:  https://openfoam.org
    \\  /    A nd           | Version:  12
     \\/     M anipulation  |
\*---------------------------------------------------------------------------*/
FoamFile
{
    format      ascii;
    class       volScalarField;
    location    "1200";
    object      p;
}
// * * * * * * * * * * * * * * * * * * * * * * * * * * * * * * * * * * * * * //

dimensions      [0 2 -2 0 0 0 0];

internalField   nonuniform List<scalar> 
7480
(
0.0087622812
0.0080234341
0.0069011465
0.006326469
0.0060167568
0.0057345476
0.0054679455
0.0052403125
0.0050423117
0.004863645
0.0046976777
0.0045422579
0.004397782
0.0042589969
0.0041261895
0.0039978079
0.003873709
0.0037565763
0.0036474618
0.0035458301
0.0034524014
0.0033679855
0.0032933594
0.0032293189
0.0031762288
0.0031330247
0.0030995913
0.0030742649
0.0030527025
0.0030317956
0.0030090203
0.0029832779
0.0029544965
0.0029245475
0.0028943033
0.0028627541
0.0028298946
0.0027955433
0.0027598738
0.0027238927
0.0026877827
0.0026510824
0.0026140114
0.0025768443
0.0025401028
0.0025036121
0.0024668816
0.0024299235
0.0023932842
0.0023569913
0.0023204721
0.0022837461
0.0022471833
0.0022107825
0.0021741153
0.0021372382
0.0021003874
0.0020634837
0.0020262268
0.0019888048
0.0019512594
0.0019133733
0.0018751829
0.0018367627
0.0017979826
0.0017588168
0.0017193336
0.0016794202
0.0016390724
0.0015983186
0.0015570609
0.0015153204
0.0014730697
0.0014302826
0.0013869535
0.0013430347
0.0012985289
0.0012534099
0.0012076644
0.0011612806
0.0011142477
0.0010665583
0.0010182094
0.00096920309
0.00091954997
0.00086926808
0.00081839528
0.00076697318
0.00071510815
0.00066285263
0.00061054742
0.00055805666
0.00050678223
0.00045493586
0.0004095454
0.00035798962
0.00033856979
0.00025872641
0.00055318083
-0.00045539465
0.0082821707
0.0076184871
0.0067862074
0.0063257881
0.006067402
0.0058172523
0.0055684763
0.0053463718
0.0051500267
0.0049679261
0.0047965991
0.0046349056
0.0044842699
0.0043396926
0.0042016774
0.0040691915
0.0039418072
0.0038205324
0.0037066913
0.0036009391
0.0035036598
0.0034153553
0.0033367374
0.0032684685
0.0032105681
0.0031617866
0.0031223751
0.0030914164
0.0030650787
0.0030405732
0.0030156301
0.0029890556
0.0029603864
0.0029310917
0.0029015965
0.0028705241
0.0028378066
0.0028033628
0.002767507
0.0027313387
0.0026950502
0.0026581708
0.0026209154
0.0025835448
0.0025465841
0.0025098641
0.002472903
0.0024357176
0.0023988545
0.0023623385
0.0023255972
0.0022886551
0.0022518842
0.0022152821
0.0021784191
0.0021413539
0.002104323
0.0020672462
0.0020298229
0.0019922426
0.0019545455
0.0019165139
0.0018781847
0.0018396321
0.0018007254
0.0017614387
0.0017218401
0.0016818164
0.0016413634
0.0016005093
0.0015591557
0.0015173238
0.001474986
0.0014321156
0.0013887072
0.0013447127
0.0013001347
0.0012549468
0.0012091355
0.001162689
0.0011155962
0.0010678496
0.0010194461
0.00097038775
0.00092068493
0.00087035559
0.00081943751
0.00076797219
0.00071606595
0.0006637711
0.00061142849
0.00055890201
0.0005075941
0.00045571531
0.00041029646
0.00035871173
0.00033925339
0.00025951292
0.00055402136
-0.00045473586
0.0080002647
0.0075272588
0.0068501732
0.0063747915
0.0060740238
0.0057969281
0.0055307129
0.0052962865
0.0050924388
0.0049067897
0.0047351832
0.0045760704
0.0044280017
0.0042883934
0.0041558666
0.0040295662
0.0039089549
0.0037943215
0.0036871454
0.0035885315
0.0034986818
0.0034179137
0.0033467153
0.0032854934
0.0032341681
0.0031916357
0.0031562944
0.003126418
0.0030995031
0.0030728163
0.0030444684
0.0030136897
0.002980268
0.002946269
0.0029128597
0.0028789929
0.0028445381
0.0028092612
0.0027732317
0.0027372832
0.0027012824
0.0026645311
0.0026272156
0.002589663
0.0025524808
0.0025155341
0.002478356
0.00244097
0.002403919
0.0023672174
0.0023302918
0.0022931752
0.0022562395
0.002219478
0.0021824574
0.0021452396
0.0021080624
0.0020708434
0.002033281
0.0019955676
0.0019577419
0.0019195855
0.0018811365
0.0018424689
0.0018034508
0.001764057
0.0017243556
0.0016842326
0.0016436842
0.0016027385
0.0015612966
0.0015193801
0.0014769609
0.0014340124
0.0013905291
0.0013464625
0.0013018155
0.0012565612
0.0012106864
0.0011641788
0.0011170274
0.0010692247
0.0010207674
0.00097165738
0.00092190503
0.0008715282
0.00082056459
0.00076905563
0.00071710758
0.00066477266
0.00061239182
0.00055982857
0.00050848614
0.00045657338
0.00041112527
0.00035950712
0.00034003073
0.00026037413
0.00055490797
-0.00045408361
0.007757384
0.007364894
0.0067695063
0.006317704
0.006025498
0.0057679049
0.0055213511
0.005302986
0.0051109483
0.0049341867
0.0047686416
0.0046138413
0.0044665453
0.0043277437
0.0041946572
0.0040669486
0.0039442841
0.0038269802
0.0037165848
0.0036142076
0.0035201049
0.0034347129
0.003358679
0.0032926991
0.0032371787
0.0031917185
0.0031542019
0.0031230957
0.0030969892
0.0030728413
0.0030482822
0.0030220126
0.0029936266
0.0029632614
0.0029311617
0.0028973793
0.0028618123
0.0028244269
0.0027856573
0.0027469994
0.0027088546
0.0026707079
0.0026326443
0.0025948455
0.002557733
0.0025209206
0.0024837749
0.0024463038
0.0024091098
0.0023722373
0.0023351289
0.0022978396
0.0022607401
0.0022238158
0.002186632
0.0021492588
0.0021119342
0.0020745726
0.0020368693
0.0019990213
0.0019610658
0.0019227831
0.0018842128
0.0018454284
0.0018062969
0.0017667937
0.0017269871
0.0016867621
0.0016461155
0.0016050752
0.001563542
0.0015215376
0.0014790338
0.0014360039
0.0013924423
0.0013483003
0.0013035809
0.0012582571
0.0012123153
0.0011657435
0.0011185305
0.0010706686
0.0010221544
0.00097298981
0.00092318509
0.00087275801
0.0008217462
0.000770191
0.00071819863
0.0006658212
0.0006133997
0.00056079737
0.00050941796
0.00045746896
0.00041198849
0.00036033406
0.0003408407
0.00026113103
0.00055578239
-0.00045349613
0.0075352793
0.0071976349
0.0066899729
0.0062869777
0.0060087068
0.0057608177
0.0055192774
0.0053021717
0.0051084284
0.0049294469
0.004761681
0.0046047252
0.0044562639
0.0043168635
0.0041838136
0.0040567289
0.0039352831
0.0038196998
0.0037112483
0.0036108752
0.0035188752
0.0034356722
0.0033617813
0.0032977048
0.0032436562
0.0031990017
0.0031615333
0.0031297584
0.0031021932
0.003075876
0.003048798
0.0030202692
0.002990671
0.0029596548
0.0029276753
0.0028955868
0.0028628112
0.0028289583
0.0027939046
0.0027577194
0.0027205042
0.0026823779
0.0026434199
0.0026040522
0.0025652591
0.0025270705
0.0024890132
0.0024510366
0.0024136859
0.0023768354
0.0023397367
0.0023023974
0.0022652074
0.0022281656
0.0021908479
0.0021533442
0.0021158923
0.0020784012
0.0020405666
0.0020025934
0.0019645162
0.0019261134
0.0018874269
0.0018485301
0.0018092884
0.0017696783
0.0017297683
0.0016894422
0.0016486978
0.0016075628
0.0015659374
0.001523844
0.0014812539
0.0014381406
0.0013944983
0.0013502784
0.0013054838
0.0012600873
0.0012140755
0.0011674362
0.0011201581
0.0010722335
0.0010236589
0.00097443623
0.00092457559
0.00087409472
0.00082303118
0.00077142625
0.00071938609
0.00066696271
0.00061449712
0.00056185234
0.00051043238
0.00045844391
0.00041292664
0.00036123262
0.00034171465
0.00026191373
0.00055668595
-0.000452803
0.0073368655
0.0070497719
0.0066173626
0.0062530213
0.0059823376
0.0057395411
0.0055048843
0.0052925475
0.0051020275
0.004926092
0.004761254
0.0046069286
0.0044610612
0.0043235509
0.0041922405
0.0040666496
0.0039465298
0.0038320855
0.0037244036
0.0036243814
0.0035324149
0.0034489982
0.0033746
0.0033096398
0.0032542961
0.0032080244
0.0031689628
0.0031356662
0.0031067042
0.0030794068
0.0030518739
0.0030233615
0.0029937964
0.0029625662
0.0029301066
0.0028970976
0.0028630125
0.0028279458
0.0027921927
0.0027556256
0.0027187894
0.0026822181
0.0026456618
0.0026089838
0.0025720558
0.0025346933
0.0024968254
0.0024583204
0.0024200166
0.0023822272
0.002344394
0.0023065618
0.0022691468
0.0022320533
0.0021947124
0.0021571664
0.0021196515
0.0020820789
0.0020441502
0.0020060851
0.0019679133
0.0019294112
0.0018906264
0.0018516331
0.001812295
0.00177259
0.0017325875
0.0016921695
0.0016513355
0.001610113
0.0015684014
0.0015262242
0.0014835521
0.0014403589
0.0013966389
0.0013523433
0.0013074751
0.0012620072
0.001215926
0.0011692195
0.0011218762
0.0010738885
0.0010252529
0.00097597126
0.0009260536
0.00087551765
0.00082440093
0.00077274467
0.00072065499
0.00066818386
0.0006156722
0.00056298297
0.00051152009
0.00045949003
0.00041393247
0.00036219636
0.00034264742
0.00026275537
0.00055759701
-0.00045195332
0.0071576505
0.0069148613
0.0065456757
0.0062146301
0.0059529987
0.005717086
0.0054905637
0.0052836752
0.0050966152
0.0049233172
0.0047606752
0.0046079798
0.0044634629
0.0043268055
0.0041963458
0.0040715437
0.0039522222
0.0038385792
0.0037315654
0.0036320438
0.0035404429
0.0034572232
0.0033828248
0.0033176384
0.0032617812
0.003214802
0.0031750389
0.0031409606
0.0031111433
0.0030831376
0.0030550694
0.0030260801
0.0029960118
0.002964414
0.0029317134
0.0028985147
0.0028644196
0.0028294996
0.0027938138
0.0027571486
0.0027200275
0.0026828885
0.0026456702
0.0026084829
0.0025711418
0.0025339605
0.0024972003
0.0024605853
0.0024239334
0.0023870569
0.0023497745
0.0023119306
0.00227408
0.0022364427
0.0021986093
0.0021606993
0.0021229988
0.0020853614
0.002047397
0.0020092962
0.0019710763
0.0019325137
0.0018936655
0.0018546062
0.0018151967
0.001775418
0.0017353415
0.001694848
0.0016539386
0.0016126414
0.0015708549
0.001528604
0.0014858589
0.0014425937
0.001398803
0.0013544375
0.0013095011
0.0012639661
0.0012178195
0.0011710489
0.0011236432
0.0010755946
0.0010268998
0.00097756041
0.0009275867
0.00087699633
0.0008258268
0.00077411933
0.00072198
0.00066946076
0.00061690244
0.00056416805
0.00051266107
0.0004605884
0.00041498796
0.00036320814
0.00034362342
0.00026363617
0.00055847901
-0.00045093572
0.0069936377
0.0067877756
0.0064726664
0.0061732479
0.0059229983
0.0056949387
0.0054762396
0.0052745408
0.0050907071
0.0049198637
0.0047592369
0.0046080965
0.0044649493
0.004329348
0.0041999382
0.0040761491
0.0039578367
0.0038451892
0.0037390348
0.0036401805
0.0035490647
0.0034661265
0.0033917924
0.0033264228
0.0032701053
0.0032223994
0.003181775
0.0031467309
0.0031158759
0.0030869663
0.003058189
0.0030286462
0.0029981611
0.0029663382
0.002933499
0.0029001697
0.0028660062
0.0028310083
0.0027952146
0.0027584998
0.0027213532
0.0026841848
0.0026469722
0.0026097329
0.0025722817
0.0025349207
0.0024978238
0.0024609191
0.0024238217
0.0023866658
0.0023498909
0.0023132619
0.0022765972
0.0022397168
0.0022024256
0.0021646593
0.0021267881
0.0020888471
0.0020505744
0.0020122461
0.0019739103
0.0019352946
0.0018964166
0.0018573277
0.0018178809
0.0017780603
0.001737939
0.0016973951
0.0016564322
0.0016150793
0.0015732346
0.0015309248
0.0014881197
0.0014447942
0.0014009431
0.0013565173
0.0013115208
0.0012659262
0.0012197204
0.0011728915
0.0011254283
0.0010773231
0.0010285727
0.00097917878
0.00092915169
0.00087850911
0.00082728857
0.00077553134
0.00072334346
0.00067077692
0.00061817239
0.0005653931
0.00051384167
0.00046172623
0.00041608093
0.00036425645
0.00034463155
0.00026454076
0.00055930246
-0.00044972969
0.006842819
0.0066673088
0.0063981823
0.0061286369
0.005891307
0.0056718448
0.0054610068
0.0052646936
0.0050842934
0.0049160553
0.0047575586
0.0046080964
0.0044664105
0.0043319735
0.0042036615
0.0040809189
0.0039636247
0.003851961
0.0037466522
0.0036484475
0.0035577928
0.0034751155
0.0034008256
0.0033352512
0.0032784529
0.0032299974
0.0031884894
0.0031524878
0.0031206336
0.0030908389
0.003061361
0.0030312981
0.0030004248
0.0029683541
0.0029353269
0.0029018096
0.0028675005
0.0028323776
0.0027964997
0.0027597762
0.0027226364
0.0026854692
0.0026482546
0.0026109926
0.0025735464
0.0025361707
0.002499023
0.0024620099
0.0024247885
0.0023875525
0.0023506345
0.002313848
0.0022768295
0.0022396618
0.0022026922
0.0021657506
0.0021286818
0.0020913045
0.0020534549
0.0020152703
0.0019768726
0.0019380793
0.0018990146
0.0018598
0.0018202885
0.0017804371
0.0017402946
0.0016997271
0.0016587378
0.0016173553
0.001575476
0.001533128
0.0014902813
0.0014469117
0.0014030147
0.0013585411
0.001313496
0.0012678519
0.0012215963
0.0011747172
0.0011272037
0.0010790484
0.001030248
0.00098080455
0.00093072842
0.0008800374
0.00082876911
0.00077696487
0.00072473075
0.00067211884
0.00061946958
0.00056664657
0.00051505121
0.00046289359
0.00041720204
0.00036533262
0.00034566333
0.00026546018
0.00056004031
-0.00044830634
0.0067036523
0.006552994
0.0063225862
0.0060806562
0.005857177
0.0056470586
0.0054443888
0.0052538562
0.0050772491
0.0049118591
0.0047556546
0.0046079908
0.004467827
0.0043346128
0.0042074187
0.004085731
0.0039694478
0.0038587482
0.0037542701
0.0036567077
0.00356651
0.0034840927
0.0034098466
0.0033440705
0.0032868012
0.0032376173
0.0031952483
0.0031583125
0.0031254818
0.00309481
0.0030646317
0.0030340408
0.0030027603
0.0029704159
0.0029371825
0.0029034669
0.0028690107
0.0028337784
0.00279783
0.0027610888
0.002723936
0.0026867399
0.0026494868
0.002612184
0.0025747245
0.0025373322
0.0025001606
0.0024631207
0.0024259101
0.0023886841
0.0023517168
0.0023148129
0.002277675
0.0022404512
0.0022034136
0.0021663499
0.0021289949
0.0020914614
0.0020539661
0.0020163446
0.0019784496
0.0019401045
0.0019013356
0.0018622276
0.0018226644
0.0017826989
0.0017424551
0.0017018262
0.0016608083
0.0016194099
0.0015775158
0.0015351523
0.0014922865
0.0014488939
0.0014049699
0.0013604655
0.0013153869
0.0012697068
0.0012234133
0.0011764947
0.0011289406
0.0010807438
0.0010319012
0.00098241517
0.00093229614
0.00088156211
0.00083025084
0.00077840378
0.00072612704
0.00067347286
0.00062078143
0.00056791689
0.00051627901
0.00046408064
0.00041834208
0.0003664281
0.0003467105
0.00026638613
0.00056066524
-0.00044663297
0.006574636
0.0064443964
0.0062464248
0.0060296672
0.0058204949
0.0056202963
0.005426074
0.0052417036
0.0050692738
0.0049070162
0.0047533085
0.0046076009
0.0044690607
0.0043371619
0.0042111429
0.0040905473
0.0039752928
0.0038655589
0.0037619122
0.0036649962
0.0035752587
0.0034931035
0.0034189028
0.0033529293
0.0032952
0.0032453076
0.003202092
0.0031642328
0.0031304368
0.0030988901
0.0030680045
0.003036872
0.0030051707
0.0029725381
0.0029390899
0.0029051742
0.0028705686
0.0028352254
0.002799199
0.0027624272
0.002725252
0.0026880192
0.0026507279
0.0026133897
0.0025759126
0.0025384982
0.002501292
0.0024642147
0.0024269841
0.0023897321
0.0023527242
0.0023157864
0.0022786592
0.0022414459
0.0022043565
0.0021671872
0.0021297424
0.0020921764
0.002054655
0.0020168593
0.0019787299
0.0019404565
0.001902024
0.0018633057
0.0018241188
0.0017844814
0.0017444275
0.0017038319
0.0016627625
0.0016212971
0.0015793555
0.0015369694
0.0014940928
0.0014506926
0.0014067603
0.0013622446
0.001317151
0.0012714518
0.0012251356
0.0011781913
0.0011306089
0.0010823815
0.0010335067
0.00098398689
0.00093383294
0.00088306306
0.00083171519
0.00077983097
0.00072751659
0.00067482452
0.00062209465
0.00056919185
0.0005175138
0.000465277
0.00041949136
0.00036753386
0.00034776445
0.00026730936
0.00056115007
-0.00044467305
0.0064544749
0.0063411128
0.0061702581
0.0059762207
0.0057814115
0.0055914828
0.0054058864
0.0052279955
0.00506011
0.0049012837
0.0047503064
0.004606748
0.0044699733
0.0043395147
0.0042147587
0.0040953161
0.0039811281
0.0038723776
0.0037695743
0.0036733156
0.0035840452
0.0035021564
0.0034280037
0.0033618367
0.0033036574
0.0032530729
0.0032090225
0.0031702498
0.0031355009
0.0031030832
0.0030714849
0.0030398003
0.0030076688
0.0029747353
0.0029410619
0.0029069408
0.0028721792
0.0028367189
0.0028006086
0.0027638004
0.0027265996
0.0026893295
0.0026520001
0.0026146246
0.002577125
0.002539683
0.0025024346
0.0024653101
0.0024280521
0.0023907764
0.0023537311
0.0023167608
0.002279619
0.0022423789
0.0022052434
0.0021680447
0.0021306103
0.002093046
0.0020554564
0.0020175718
0.0019794023
0.0019411253
0.001902598
0.0018636856
0.0018244648
0.0017850101
0.0017452259
0.0017049395
0.0016641772
0.001622923
0.001581057
0.0015386586
0.0014957432
0.0014523132
0.0014083671
0.0013638463
0.0013187506
0.0012730483
0.0012267262
0.0011797722
0.0011321763
0.001083932
0.0010350371
0.00098549462
0.00093531568
0.00088451889
0.00083314245
0.00078122828
0.00072888269
0.00067615844
0.00062339509
0.00057045842
0.00051874356
0.00046647161
0.00042063955
0.00036864033
0.00034881604
0.00026821973
0.00056145206
-0.0004423859
0.0063420836
0.0062427573
0.0060945606
0.0059208697
0.0057401697
0.0055606686
0.005383785
0.005212616
0.0050495997
0.0048944896
0.0047464787
0.0046052743
0.0044704262
0.0043415491
0.0042181625
0.0040999511
0.0039868837
0.0038791495
0.0037772133
0.0036816319
0.0035928434
0.0035112314
0.0034371344
0.0033707822
0.0033121653
0.0032609069
0.0032160362
0.0031763627
0.0031406749
0.0031073924
0.003075078
0.0030428326
0.0030102618
0.0029770142
0.0029431045
0.0029087718
0.0028738474
0.0028382648
0.0028020666
0.0027652165
0.0027279867
0.0026906775
0.0026533081
0.0026158931
0.0025783681
0.0025408964
0.0025036045
0.0024664312
0.0024291435
0.0023918419
0.0023547534
0.0023177384
0.002280565
0.0022432972
0.0022061275
0.0021689038
0.0021314576
0.0020938674
0.0020562331
0.0020183335
0.0019801758
0.0019418726
0.0019032765
0.0018643148
0.0018250989
0.0017855757
0.0017456333
0.001705306
0.0016646374
0.001623563
0.0015819654
0.0015398416
0.0014971205
0.0014537754
0.0014098378
0.0013652982
0.0013201878
0.0012744804
0.0012281589
0.001181207
0.0011336116
0.0010853649
0.001036464
0.00098691186
0.00093671986
0.00088590695
0.0008345117
0.00078257638
0.00073020747
0.00067745815
0.00062466754
0.00057170259
0.00051995539
0.00046765255
0.00042177556
0.00036973713
0.00034985547
0.00026910713
0.00056152993
-0.00043973029
0.0062365423
0.0061489543
0.006019702
0.0058641181
0.0056970459
0.0055279744
0.0053598132
0.0051955361
0.0050376622
0.0048865256
0.0047417043
0.0046030545
0.004470299
0.0043431503
0.0042212499
0.0041043593
0.0039924784
0.0038858058
0.0037847717
0.0036898975
0.0036016144
0.0035202974
0.0034462706
0.003379747
0.0033207096
0.0032687989
0.0032231262
0.0031825675
0.0031459569
0.0031118176
0.0030787855
0.0030459718
0.0030129531
0.002979379
0.0029452221
0.0029106717
0.002875578
0.0028398683
0.002803578
0.0027666805
0.0027294174
0.0026920666
0.0026546552
0.0026171993
0.0025796466
0.0025421435
0.0025048073
0.002467585
0.0024302656
0.0023929353
0.0023558013
0.0023187385
0.0022815311
0.0022442345
0.0022070258
0.0021697642
0.0021322884
0.0020946691
0.0020570052
0.0020190914
0.0019809218
0.0019425893
0.0019039661
0.0018650014
0.0018257781
0.0017862114
0.0017462269
0.0017059056
0.0016651633
0.0016239556
0.0015823298
0.001540262
0.0014976854
0.0014545768
0.0014108784
0.0013665027
0.0013214664
0.0012757741
0.0012294482
0.001182493
0.0011348997
0.0010866579
0.0010377618
0.00098821252
0.00093802025
0.0008872035
0.00083580083
0.00078385477
0.00073147195
0.00067870605
0.00062589574
0.00057290931
0.00052113535
0.00046880693
0.00042288736
0.00037081302
0.00035087212
0.00026995944
0.00056134522
-0.00043665683
0.006137066
0.006059345
0.0059459593
0.0058064102
0.0056523225
0.0054935522
0.0053340569
0.0051767762
0.0050242666
0.0048773305
0.0047359038
0.0045999987
0.0044694993
0.0043442249
0.004223931
0.0041084563
0.0039978355
0.0038922785
0.0037921898
0.0036980603
0.0036103137
0.0035293171
0.0034553819
0.003388707
0.0033292712
0.0032767338
0.0032302812
0.0031888563
0.0031513409
0.003116355
0.0030826058
0.003049218
0.0030157436
0.0029818319
0.0029474176
0.0029126435
0.0028773746
0.0028415328
0.0028051461
0.0027681954
0.0027308947
0.0026935
0.0026560446
0.0026185464
0.0025809635
0.0025434274
0.0025060462
0.0024687741
0.002431421
0.00239406
0.0023568797
0.0023197683
0.002282526
0.0022451985
0.0022079473
0.0021706439
0.0021331359
0.0020954862
0.0020577867
0.0020198447
0.0019816481
0.0019432869
0.0019046458
0.0018656707
0.0018264308
0.0017868457
0.0017468503
0.0017065166
0.0016657499
0.0016245218
0.0015828815
0.0015407301
0.001498063
0.0014549238
0.0014112674
0.0013670432
0.0013222187
0.0012767222
0.0012305249
0.0011836288
0.0011360531
0.0010878155
0.0010389239
0.00098938149
0.00093919685
0.00088838658
0.00083698779
0.00078504224
0.00073265619
0.00067988354
0.0006270624
0.00057406251
0.00052226851
0.00046992086
0.00042396195
0.00037185575
0.00035185448
0.00027076262
0.00056085911
-0.00043310883
0.0060429833
0.0059735938
0.0058735313
0.0057481296
0.0056062738
0.0054575673
0.0053066226
0.0051563843
0.0050094125
0.004866874
0.0047290279
0.0045960451
0.0044679591
0.004344701
0.0042261332
0.0041121715
0.0040028877
0.0038985056
0.003799411
0.0037060693
0.0036188959
0.0035382509
0.0034644345
0.0033976341
0.003337827
0.0032846926
0.0032374864
0.0031952176
0.0031568183
0.0031209986
0.0030865349
0.0030525689
0.0030186326
0.002984373
0.0029496919
0.0029146883
0.0028792385
0.0028432599
0.0028067725
0.0027697633
0.0027324206
0.0026949795
0.0026574784
0.0026199364
0.0025823211
0.0025447501
0.002507323
0.0024700006
0.0024326119
0.0023952185
0.0023579912
0.0023208306
0.0022835516
0.0022461913
0.0022088965
0.0021715503
0.0021340093
0.0020963272
0.0020585884
0.0020206138
0.001982388
0.0019439951
0.0019053274
0.0018663287
0.001827063
0.001787459
0.0017474525
0.0017071039
0.0016663318
0.0016250973
0.001583437
0.0015412689
0.001498603
0.0014554186
0.0014116722
0.0013673858
0.0013225432
0.0012771159
0.0012310692
0.0011843559
0.0011369356
0.0010887951
0.0010399485
0.00099042347
0.00094024809
0.0008894468
0.0008380575
0.00078612073
0.00073374113
0.00068097182
0.00062814953
0.00057514527
0.00052333904
0.00047097952
0.00042498543
0.00037285212
0.00035279017
0.00027150259
0.00056002988
-0.00042903003
0.0059537175
0.0058913914
0.0058025531
0.0056896018
0.0055591601
0.0054201904
0.0052776282
0.0051344255
0.0049931183
0.0048551445
0.0047210463
0.0045911501
0.0044656281
0.0043445229
0.0042277987
0.0041154468
0.0040075784
0.0039044333
0.003806385
0.0037138774
0.003627318
0.0035470603
0.0034733946
0.0034064992
0.0033463524
0.0032926544
0.0032447247
0.0032016379
0.003162378
0.0031257397
0.0030905668
0.0030560205
0.003021617
0.0029870008
0.0029520441
0.0029168059
0.0028811699
0.00284505
0.0028084579
0.0027713848
0.0027339962
0.0026965064
0.0026589577
0.0026213705
0.0025837206
0.0025461131
0.0025086393
0.0024712659
0.0024338399
0.0023964124
0.0023591374
0.0023219269
0.0022846097
0.002247215
0.0022098758
0.0021724859
0.0021349103
0.0020971942
0.0020594147
0.0020214064
0.0019831504
0.0019447236
0.001906025
0.0018669991
0.0018277047
0.0017880755
0.0017480478
0.0017076768
0.0016668878
0.0016256404
0.0015839678
0.0015417984
0.0014991323
0.0014559334
0.0014121752
0.0013678658
0.0013229644
0.0012774745
0.0012313853
0.0011846838
0.0011373508
0.0010893553
0.0010406628
0.00099125663
0.00094115074
0.00089038255
0.00083900958
0.00078708447
0.00073471557
0.00068195611
0.00062914075
0.0005761409
0.00052433071
0.00047196742
0.00042594314
0.00037378801
0.00035366603
0.00027216375
0.00055879895
-0.00042435964
0.0058687719
0.0058124555
0.0057331091
0.0056310982
0.0055112241
0.0053815931
0.0052471984
0.0051109764
0.0049754155
0.0048421434
0.0047119411
0.0045852826
0.004462467
0.004343646
0.0042288801
0.0041182339
0.0040118598
0.0039100156
0.0038130675
0.0037214427
0.0036355408
0.0035557091
0.0034822297
0.0034152736
0.0033548224
0.0033005976
0.0032519779
0.0032081022
0.0031680077
0.0031305685
0.0030946939
0.0030595672
0.0030246929
0.0029897125
0.0029544724
0.0029189947
0.0028831677
0.0028469023
0.0028102017
0.00277306
0.0027356215
0.0026980807
0.0026604828
0.0026228492
0.0025851626
0.002547517
0.0025099957
0.002472571
0.002435106
0.0023976428
0.0023603196
0.0023230584
0.0022857016
0.0022482711
0.0022108867
0.0021734522
0.0021358405
0.0020980891
0.0020602681
0.002022225
0.0019839374
0.0019454751
0.0019067443
0.00186769
0.0018283654
0.0017887079
0.0017486553
0.0017082582
0.0016674459
0.0016261784
0.0015844869
0.0015423033
0.0014996235
0.0014564163
0.0014126582
0.001368346
0.0013234379
0.0012779313
0.0012318066
0.0011850549
0.0011376735
0.001089659
0.0010410059
0.00099170208
0.00094173116
0.00089108709
0.00083979989
0.00078792218
0.00073557727
0.00068283237
0.00063002762
0.00057703731
0.00052522942
0.00047286965
0.00042682032
0.00037464876
0.00035446836
0.00027272895
0.0005571105
-0.00041903327
0.0057877155
0.0057365302
0.0056652443
0.0055728415
0.0054626882
0.0053419449
0.0052154617
0.005086122
0.0049563463
0.004827882
0.0047017032
0.0045784193
0.0044584442
0.0043420328
0.0042293368
0.004120491
0.0040156903
0.0039152118
0.0038194196
0.0037287277
0.0036435286
0.0035641641
0.0034909093
0.0034239301
0.0033632126
0.0033085005
0.0032592275
0.003214595
0.0031736941
0.0031354741
0.0030989076
0.0030632022
0.0030278549
0.0029925042
0.0029569739
0.0029212523
0.0028852301
0.0028488153
0.0028120027
0.0027747879
0.0027372957
0.0026997019
0.0026620533
0.0026243721
0.0025866471
0.0025489619
0.0025113926
0.0024739161
0.0024364108
0.0023989104
0.0023615384
0.0023242259
0.0022868281
0.0022493605
0.0022119302
0.0021744502
0.0021368011
0.0020990132
0.00206115
0.0020230708
0.0019847503
0.0019462516
0.0019074875
0.0018684037
0.0018290475
0.0017893603
0.0017492815
0.0017088566
0.0016680188
0.0016267283
0.0015850136
0.0015428091
0.0015001095
0.0014568868
0.0014131165
0.0013687941
0.0013238818
0.001278373
0.0012322452
0.001185485
0.0011380818
0.0010900299
0.0010413329
0.00099199777
0.00094203603
0.00089145757
0.00084027948
0.00078851907
0.00073626678
0.00068357929
0.00063080428
0.00057783058
0.00052602838
0.000473676
0.00042760464
0.00037542048
0.00035518364
0.00027317999
0.00055490979
-0.00041298578
0.0057101733
0.0056633842
0.0055989734
0.0055150113
0.0054137536
0.0053014107
0.0051825483
0.0050599543
0.0049359619
0.0048123802
0.0046903312
0.0045705435
0.0044535332
0.0043396505
0.0042291323
0.0041221804
0.0040190319
0.0039199852
0.0038254057
0.0037356981
0.0036512486
0.0035723944
0.003499405
0.0034324426
0.0033714995
0.003316342
0.0032664549
0.0032211002
0.0031794235
0.0031404452
0.0031031988
0.0030669185
0.0030310974
0.0029953714
0.0029595449
0.0029235758
0.0028873546
0.0028507867
0.002813859
0.0027765668
0.0027390176
0.0027013688
0.0026636683
0.0026259385
0.0025881734
0.0025504475
0.0025128297
0.0024753011
0.0024377541
0.0024002152
0.0023627939
0.0023254297
0.0022879898
0.0022504837
0.0022130069
0.0021754806
0.002137793
0.0020999675
0.0020620612
0.0020239448
0.0019855904
0.0019470544
0.0019082559
0.0018691414
0.0018297526
0.0017900347
0.0017499285
0.0017094746
0.0016686101
0.0016272952
0.0015855554
0.0015433281
0.0015006066
0.0014573638
0.0014135747
0.0013692354
0.0013243096
0.0012787903
0.0012326559
0.0011858923
0.0011384868
0.0010904306
0.0010417205
0.00099235897
0.00094236053
0.00089174837
0.00084056254
0.00078884037
0.00073667156
0.00068408776
0.00063140344
0.00057849132
0.00052671776
0.00047438162
0.00042829023
0.00037609366
0.00035580118
0.00027349919
0.00055214414
-0.00040615515
0.0056358173
0.005592809
0.0055342892
0.0054577492
0.0053645992
0.0052601482
0.0051485881
0.0050325696
0.0049143212
0.0047956659
0.0046778308
0.0045616445
0.0044477124
0.0043364702
0.0042282334
0.0041232669
0.0040218492
0.003924301
0.0038309923
0.0037423216
0.00365867
0.0035803711
0.0035076897
0.0034407862
0.0033796605
0.0033241014
0.0032736418
0.003227602
0.0031851821
0.0031454698
0.0031075578
0.0030707084
0.0030344142
0.0029983094
0.0029621817
0.0029259616
0.0028895381
0.0028528141
0.0028157682
0.0027783948
0.0027407854
0.0027030799
0.0026653264
0.0026275471
0.0025897406
0.0025519728
0.0025143062
0.0024767254
0.0024391357
0.002401557
0.0023640861
0.0023266699
0.0022891867
0.002251641
0.0022141171
0.0021765438
0.0021388165
0.0021009524
0.0020630025
0.0020248478
0.0019864584
0.0019478843
0.0019090505
0.0018699042
0.0018304819
0.0017907323
0.0017505977
0.0017101138
0.0016692215
0.0016278811
0.0015861151
0.0015438637
0.0015011189
0.0014578541
0.0014140444
0.0013696852
0.0013247414
0.0012792055
0.001233057
0.0011862819
0.0011388685
0.0010908077
0.001042095
0.00099273052
0.00094272391
0.0008920932
0.00084087799
0.00078912375
0.0007369382
0.0006843734
0.00063174949
0.00057892417
0.00052722924
0.00047495202
0.00042886398
0.0003766615
0.0003563157
0.00027367283
0.00054877091
-0.00039848962
0.0055643595
0.0055246167
0.0054711682
0.005401165
0.0053153821
0.0052183068
0.0051137091
0.0050040675
0.0048914898
0.0047777743
0.0046642143
0.0045517175
0.0044409645
0.0043324665
0.0042266096
0.0041237173
0.0040241081
0.0039281257
0.0038361468
0.0037485668
0.0036657629
0.0035880657
0.0035157369
0.0034489368
0.0033876733
0.0033317584
0.0032807699
0.0032340843
0.0031909558
0.003150536
0.0031119748
0.0030745639
0.003037799
0.0030013131
0.0029648802
0.0029284064
0.0028917777
0.0028548946
0.0028177277
0.0027802696
0.002742597
0.0027048333
0.0026670257
0.0026291964
0.0025913473
0.0025535368
0.0025158212
0.0024781883
0.0024405548
0.0024029354
0.0023654147
0.0023279461
0.0022904187
0.0022528323
0.0022152608
0.0021776399
0.0021398718
0.0021019683
0.0020639741
0.0020257802
0.0019873548
0.0019487419
0.0019098718
0.0018706928
0.0018312363
0.0017914541
0.00175129
0.0017107754
0.0016698543
0.0016284874
0.0015866941
0.0015444178
0.0015016486
0.0014583606
0.0014145291
0.0013701486
0.001325185
0.0012796302
0.001233464
0.0011866728
0.0011392451
0.0010911724
0.0010424506
0.0009930803
0.00094307039
0.00089243689
0.00084121571
0.00078944773
0.0007372382
0.00068464373
0.00063199752
0.00057917696
0.00052751861
0.00047530851
0.00042926178
0.00037708688
0.00035671273
0.00027368441
0.00054477583
-0.00038996111
0.0054955465
0.0054586376
0.0054095758
0.005345341
0.0052662384
0.0051760257
0.005078036
0.0049745491
0.0048675383
0.0047587475
0.0046495005
0.0045407632
0.0044332771
0.0043276175
0.004224233
0.0041235002
0.004025776
0.0039314266
0.0038408374
0.0037544028
0.0036724977
0.0035954503
0.0035235208
0.0034568701
0.0033955159
0.0033392927
0.0032878209
0.003240531
0.0031967304
0.0031556316
0.0031164396
0.0030784769
0.0030412451
0.0030043774
0.0029676363
0.0029309066
0.0028940703
0.0028570255
0.0028197351
0.002782189
0.0027444503
0.0027066271
0.0026687646
0.0026308847
0.002592992