/*--------------------------------*- C++ -*----------------------------------*\
  =========                 |
  \\      /  F ield         | OpenFOAM: The Open Source CFD Toolbox
   \\    /   O peration     | Website:  https://openfoam.org
    \\  /    A nd           | Version:  12
     \\/     M anipulation  |
\*---------------------------------------------------------------------------*/
FoamFile
{
    format      ascii;
    class       volVectorField;
    location    "1200";
    object      U;
}
// * * * * * * * * * * * * * * * * * * * * * * * * * * * * * * * * * * * * * //

dimensions      [0 1 -1 0 0 0 0];

internalField   nonuniform List<vector> 
13056
(
(1 4.0269655e-10 3.1078017e-24)
(0.99996971 1.2673021e-09 0)
(0.99991238 2.0320986e-09 0)
(0.99984415 2.6775186e-09 0)
(0.99976635 3.4294339e-09 0)
(0.99967914 4.3253739e-09 0)
(0.99958267 5.4013321e-09 0)
(0.99947664 6.7121159e-09 0)
(0.99936038 8.3233264e-09 0)
(0.99923292 1.0314968e-08 0)
(0.999093 1.2788613e-08 0)
(0.99893902 1.5881545e-08 0)
(0.9987688 1.9771325e-08 0)
(0.99857959 2.4735145e-08 0)
(0.99836712 3.108671e-08 0)
(0.9981268 3.958464e-08 0)
(0.99784765 5.0545537e-08 0)
(0.99752503 6.7378356e-08 0)
(0.99711605 8.7201869e-08 0)
(0.99665017 1.3300197e-07 0)
(0.99588039 1.7056713e-07 0)
(0.99514428 4.57756e-07 0)
(0.9920685 3.509644e-07 -1.4826692e-20)
(0.99224587 0.00012016267 1.9269198e-16)
(0.038929782 0.00012406224 0)
(0.029757181 1.1592619e-07 -3.5956189e-20)
(0.027408457 4.3471025e-08 0)
(0.025861028 3.5659877e-08 0)
(0.024757928 2.7627576e-08 0)
(0.023871485 2.3093813e-08 0)
(0.023118019 1.9848219e-08 0)
(0.022469659 1.7145032e-08 0)
(0.021907744 1.4924725e-08 0)
(0.021414542 1.3139753e-08 0)
(0.020976037 1.1688351e-08 0)
(0.020582329 1.0472775e-08 0)
(0.020226621 9.4407801e-09 0)
(0.019902824 8.5797334e-09 0)
(0.019605267 7.8517335e-09 0)
(0.019330262 7.216764e-09 0)
(0.01907495 6.6655813e-09 0)
(0.018836561 6.1835546e-09 0)
(0.018613028 5.7568119e-09 0)
(0.018402605 5.3778326e-09 0)
(0.018203797 5.0381439e-09 0)
(0.018015389 4.7327871e-09 0)
(0.01783626 4.4568499e-09 0)
(0.01766553 4.2049606e-09 0)
(0.017502432 3.9754712e-09 0)
(0.017346234 3.7643857e-09 0)
(0.017196417 3.5687059e-09 0)
(0.017052467 3.3888635e-09 0)
(0.016913843 3.2226625e-09 0)
(0.016780149 3.0678116e-09 0)
(0.016651021 2.9242592e-09 0)
(0.016526063 2.791193e-09 0)
(0.016404947 2.6665948e-09 0)
(0.016287429 2.5493859e-09 0)
(0.016173261 2.4398388e-09 0)
(0.016062173 2.3370576e-09 0)
(0.015953966 2.2396747e-09 0)
(0.015848484 2.1474542e-09 0)
(0.015745545 2.0606729e-09 0)
(0.015644953 1.9787477e-09 0)
(0.015546564 1.9007213e-09 0)
(0.015450263 1.8264269e-09 0)
(0.01535592 1.7560672e-09 0)
(0.015263386 1.6894247e-09 0)
(0.01517254 1.62573e-09 0)
(0.015083302 1.564619e-09 0)
(0.014995588 1.5063512e-09 0)
(0.014909278 1.4510734e-09 0)
(0.014824262 1.3981213e-09 0)
(0.014740485 1.3470169e-09 0)
(0.014657883 1.2980435e-09 0)
(0.014576368 1.2512565e-09 0)
(0.014495855 1.2065239e-09 0)
(0.014416265 1.163411e-09 0)
(0.014337556 1.1217143e-09 0)
(0.014259677 1.0816279e-09 0)
(0.014182551 1.043252e-09 0)
(0.014106103 1.0063114e-09 0)
(0.014030286 9.7049867e-10 0)
(0.013955062 9.3585027e-10 0)
(0.01388038 9.0246664e-10 0)
(0.013806174 8.7041293e-10 0)
(0.013732375 8.3938293e-10 0)
(0.013658957 8.0916102e-10 0)
(0.013585882 7.7991357e-10 0)
(0.013513094 7.5169904e-10 0)
(0.013440534 7.2444163e-10 0)
(0.013368151 6.9794458e-10 0)
(0.013295913 6.7212338e-10 0)
(0.013223785 6.4709411e-10 0)
(0.013151705 6.2293528e-10 0)
(0.013079611 5.9945962e-10 0)
(0.013007471 5.765286e-10 0)
(0.012935249 5.5424369e-10 0)
(0.012862886 5.3265369e-10 0)
(0.012790321 5.1168721e-10 0)
(0.012717503 4.9123323e-10 0)
(0.012644392 4.7128179e-10 0)
(0.012570935 4.5189878e-10 0)
(0.012497061 4.3307033e-10 0)
(0.012422706 4.1469363e-10 0)
(0.012347824 3.9674529e-10 0)
(0.012272351 3.7928975e-10 0)
(0.012196205 3.6230211e-10 0)
(0.012119312 3.4570439e-10 0)
(0.012041608 3.2950746e-10 0)
(0.011963005 3.1377153e-10 0)
(0.011883391 2.9840251e-10 0)
(0.011802703 2.8348722e-10 0)
(0.011722595 2.694231e-10 0)
(0.011645572 2.5640519e-10 0)
(0.011572329 2.4439361e-10 0)
(0.011502569 2.333145e-10 0)
(0.011436014 2.2311209e-10 0)
(0.011372403 2.1368619e-10 0)
(0.011311517 2.0493496e-10 0)
(0.011253161 1.9681088e-10 0)
(0.011197147 1.8927587e-10 0)
(0.011143304 1.8227945e-10 0)
(0.011091476 1.7575421e-10 0)
(0.01104153 1.6965875e-10 0)
(0.010993339 1.6397772e-10 0)
(0.01094678 1.5871314e-10 0)
(0.010901725 1.5382862e-10 0)
(0.010858075 1.4939417e-10 0)
(0.010815659 1.4522677e-10 0)
(0.010774495 1.4201577e-10 0)
(0.010733991 1.3850697e-10 0)
(0.010694958 1.3857257e-10 0)
(0.010654405 6.5641627e-10 0)
(0.010618847 1.6026883e-10 2.150906e-22)
(0.010560934 5.045722e-10 0)
(1 1.2145319e-09 0)
(0.99996968 3.8245631e-09 0)
(0.99991223 6.1340986e-09 0)
(0.99984385 8.0833742e-09 0)
(0.99976585 1.0353699e-08 0)
(0.99967843 1.3058511e-08 0)
(0.99958172 1.6306468e-08 0)
(0.99947544 2.0262916e-08 0)
(0.99935891 2.5125739e-08 0)
(0.99923116 3.1136249e-08 0)
(0.99909095 3.8600792e-08 0)
(0.99893665 4.7933398e-08 0)
(0.9987661 5.9669532e-08 0)
(0.99857656 7.4645094e-08 0)
(0.99836373 9.3806026e-08 0)
(0.99812304 1.1943991e-07 0)
(0.9978435 1.5250121e-07 0)
(0.99752048 2.0326887e-07 0)
(0.99711105 2.6305467e-07 0)
(0.99664471 4.0116226e-07 0)
(0.99587436 5.1442292e-07 0)
(0.99513783 1.3803544e-06 0)
(0.99206078 1.0588539e-06 5.2924048e-20)
(0.99223683 0.00035381778 -7.2950197e-20)
(0.11350163 0.00035926371 0)
(0.088233366 5.5942167e-06 0)
(0.081349987 1.952163e-06 0)
(0.076842466 1.3306225e-06 0)
(0.073626301 9.9234958e-07 0)
(0.07103949 8.113865e-07 0)
(0.06883833 6.8753054e-07 0)
(0.066942023 5.8808944e-07 0)
(0.065296803 5.0776297e-07 0)
(0.063851453 4.4390547e-07 0)
(0.062565361 3.9243515e-07 0)
(0.061409807 3.4967434e-07 0)
(0.060365061 3.1362956e-07 0)
(0.059413465 2.8361337e-07 0)
(0.058538521 2.5837393e-07 0)
(0.057729472 2.3652245e-07 0)
(0.056978 2.1756855e-07 0)
(0.056276036 2.0107761e-07 0)
(0.055617547 1.8654198e-07 0)
(0.054997437 1.7366342e-07 0)
(0.054411348 1.6216952e-07 0)
(0.053855724 1.5186637e-07 0)
(0.053327297 1.4258183e-07 0)
(0.052823489 1.3414281e-07 0)
(0.05234206 1.2646642e-07 0)
(0.051880871 1.1943182e-07 0)
(0.051438403 1.1293635e-07 0)
(0.05101315 1.0697304e-07 0)
(0.050603531 1.0148007e-07 0)
(0.050208386 9.6378592e-08 0)
(0.049826645 9.1656325e-08 0)
(0.049457155 8.7288661e-08 0)
(0.049098945 8.3210802e-08 0)
(0.048751305 7.9385436e-08 0)
(0.048413506 7.5814382e-08 0)
(0.048084758 7.2472304e-08 0)
(0.047764474 6.9315011e-08 0)
(0.047452196 6.6331261e-08 0)
(0.047147392 6.3527572e-08 0)
(0.046849487 6.0886604e-08 0)
(0.046558055 5.8378422e-08 0)
(0.04627276 5.599454e-08 0)
(0.045993218 5.3740559e-08 0)
(0.045718994 5.1609333e-08 0)
(0.045449731 4.9577763e-08 0)
(0.045185192 4.7632659e-08 0)
(0.044925128 4.5780946e-08 0)
(0.044669193 4.4026384e-08 0)
(0.044417058 4.2349645e-08 0)
(0.044168559 4.0735797e-08 0)
(0.04392351 3.9190715e-08 0)
(0.043681656 3.7717437e-08 0)
(0.043442738 3.6310876e-08 0)
(0.04320653 3.4958587e-08 0)
(0.042972905 3.3653281e-08 0)
(0.042741709 3.2400118e-08 0)
(0.042512722 3.1202014e-08 0)
(0.042285718 3.0050953e-08 0)
(0.042060559 2.8937821e-08 0)
(0.041837133 2.7862194e-08 0)
(0.041615288 2.6827614e-08 0)
(0.041394828 2.5835438e-08 0)
(0.041175552 2.487705e-08 0)
(0.04095738 2.3945796e-08 0)
(0.040740203 2.3045659e-08 0)
(0.040523851 2.2178726e-08 0)
(0.04030815 2.1342564e-08 0)
(0.040092948 2.0531582e-08 0)
(0.039878154 1.9742683e-08 0)
(0.03966366 1.8979167e-08 0)
(0.039449284 1.8243107e-08 0)
(0.039234841 1.7529381e-08 0)
(0.039020236 1.683386e-08 0)
(0.038805359 1.6158798e-08 0)
(0.038590039 1.5505761e-08 0)
(0.038374093 1.4872836e-08 0)
(0.038157368 1.4256778e-08 0)
(0.037939744 1.3656846e-08 0)
(0.037721062 1.3074902e-08 0)
(0.037501114 1.2510699e-08 0)
(0.03727971 1.1961226e-08 0)
(0.037056708 1.142554e-08 0)
(0.036831918 1.0905378e-08 0)
(0.036605094 1.0400235e-08 0)
(0.03637602 9.9077963e-09 0)
(0.036144501 9.4281101e-09 0)
(0.035910273 8.9629009e-09 0)
(0.035673002 8.5095114e-09 0)
(0.035432502 8.0703635e-09 0)
(0.035193697 7.6568957e-09 0)
(0.034964063 7.2751425e-09 0)
(0.034745673 6.9238298e-09 0)
(0.034537644 6.6003346e-09 0)
(0.03433915 6.3028674e-09 0)
(0.034149418 6.0285543e-09 0)
(0.033967798 5.7743466e-09 0)
(0.033793706 5.538629e-09 0)
(0.03362659 5.3202476e-09 0)
(0.033465934 5.1177552e-09 0)
(0.033311279 4.9291751e-09 0)
(0.033162229 4.7531929e-09 0)
(0.033018404 4.5893151e-09 0)
(0.03287944 4.4375276e-09 0)
(0.032744958 4.2967461e-09 0)
(0.03261466 4.1690245e-09 0)
(0.032488039 4.0487745e-09 0)
(0.032365146 3.9561462e-09 0)
(0.03224422 3.8532911e-09 0)
(0.032127673 3.8550298e-09 0)
(0.032006597 3.7049821e-09 0)
(0.031900415 4.5182602e-09 -3.2589991e-22)
(0.031727463 2.8347485e-09 2.3383549e-23)
(1 2.0456729e-09 0)
(0.99996964 6.4437535e-09 0)
(0.99991205 1.0337585e-08 0)
(0.99984347 1.3624477e-08 0)
(0.99976524 1.7451718e-08 0)
(0.99967754 2.2010732e-08 0)
(0.99958054 2.7484662e-08 0)
(0.99947393 3.4151998e-08 0)
(0.99935706 4.2345991e-08 0)
(0.99922895 5.2473008e-08 0)
(0.99908836 6.5048884e-08 0)
(0.99893368 8.0770739e-08 0)
(0.99876271 1.0054011e-07 0)
(0.99857274 1.2576432e-07 0)
(0.99835947 1.5803584e-07 0)
(0.99811832 2.0120589e-07 0)
(0.9978383 2.5688093e-07 0)
(0.99751477 3.423649e-07 0)
(0.99710478 4.430309e-07 0)
(0.99663788 6.7553929e-07 0)
(0.99586681 8.6621789e-07 0)
(0.99512977 2.3238558e-06 0)
(0.99205123 1.7843461e-06 -2.8002773e-20)
(0.99222582 0.000571184 7.6437114e-54)
(0.1810559 0.00058398103 -9.4415659e-54)
(0.14109324 1.6366786e-05 0)
(0.13026098 5.7031138e-06 0)
(0.12334066 3.8335073e-06 0)
(0.11841207 2.8551463e-06 0)
(0.1144464 2.3344364e-06 0)
(0.11106728 1.9792506e-06 0)
(0.10815083 1.6943709e-06 0)
(0.10561588 1.4641211e-06 0)
(0.10338503 1.2809536e-06 0)
(0.10139677 1.1332175e-06 0)
(0.099607624 1.0103805e-06 0)
(0.097987823 9.0674764e-07 0)
(0.096510589 8.2038282e-07 0)
(0.095150732 7.4772891e-07 0)
(0.09389189 6.8479554e-07 0)
(0.092721429 6.301697e-07 0)
(0.091627008 5.8262405e-07 0)
(0.090599413 5.4069789e-07 0)
(0.089630859 5.0353355e-07 0)
(0.088714677 4.7035302e-07 0)
(0.087845423 4.4059848e-07 0)
(0.087018083 4.1377583e-07 0)
(0.086228711 3.8938828e-07 0)
(0.085473869 3.6719639e-07 0)
(0.084750268 3.4685423e-07 0)
(0.084055583 3.2806541e-07 0)
(0.083387503 3.1080991e-07 0)
(0.082743587 2.9491175e-07 0)
(0.082122054 2.8014266e-07 0)
(0.08152126 2.6646729e-07 0)
(0.080939421 2.5381611e-07 0)
(0.080375034 2.4200179e-07 0)
(0.079827013 2.3091623e-07 0)
(0.079294229 2.2056498e-07 0)
(0.078775457 2.1087578e-07 0)
(0.078269792 2.0172046e-07 0)
(0.077776529 1.9306627e-07 0)
(0.077294843 1.8493262e-07 0)
(0.076823843 1.7726981e-07 0)
(0.076362864 1.69991e-07 0)
(0.075911392 1.6307134e-07 0)
(0.075468831 1.5652753e-07 0)
(0.075034502 1.5033916e-07 0)
(0.074607848 1.4443928e-07 0)
(0.074188504 1.3878937e-07 0)
(0.073776084 1.3340976e-07 0)
(0.073370048 1.2831162e-07 0)
(0.072969878 1.2343899e-07 0)
(0.072575323 1.187484e-07 0)
(0.072186095 1.1425675e-07 0)
(0.071801792 1.0997331e-07 0)
(0.071422009 1.0588327e-07 0)
(0.071046392 1.0195055e-07 0)
(0.070674741 9.8153838e-08 0)
(0.07030682 9.4508221e-08 0)
(0.069942277 9.102233e-08 0)
(0.069580759 8.7672928e-08 0)
(0.069222049 8.4433496e-08 0)
(0.06886597 8.1302676e-08 0)
(0.068512284 7.8290971e-08 0)
(0.06816068 7.540233e-08 0)
(0.06781084 7.261176e-08 0)
(0.067462636 6.9899864e-08 0)
(0.067115897 6.7278164e-08 0)
(0.066770355 6.4752895e-08 0)
(0.06642573 6.2316975e-08 0)
(0.06608178 5.9954149e-08 0)
(0.065738362 5.7655352e-08 0)
(0.065395303 5.5430245e-08 0)
(0.065052311 5.32849e-08 0)
(0.064709091 5.120444e-08 0)
(0.064365489 4.9176812e-08 0)
(0.064021332 4.7208557e-08 0)
(0.06367634 4.5304309e-08 0)
(0.063330223 4.3458509e-08 0)
(0.062982732 4.1661697e-08 0)
(0.062633674 3.9911698e-08 0)
(0.062282792 3.8213976e-08 0)
(0.061929749 3.656783e-08 0)
(0.061574239 3.4964483e-08 0)
(0.061216029 3.3401184e-08 0)
(0.060854814 3.188301e-08 0)
(0.060490191 3.040851e-08 0)
(0.060121811 2.8970932e-08 0)
(0.059749356 2.7570412e-08 0)
(0.059372397 2.6212007e-08 0)
(0.058990388 2.4887958e-08 0)
(0.058603026 2.3605331e-08 0)
(0.05821824 2.2397566e-08 0)
(0.057848086 2.1282371e-08 0)
(0.057495923 2.0256019e-08 0)
(0.057160347 1.9310831e-08 0)
(0.056840043 1.8441612e-08 0)
(0.056533779 1.7639979e-08 0)
(0.056240517 1.6897038e-08 0)
(0.055959326 1.6208078e-08 0)
(0.055689325 1.5569743e-08 0)
(0.055429691 1.497781e-08 0)
(0.055179687 1.4426511e-08 0)
(0.054938684 1.3912006e-08 0)
(0.054706071 1.3432862e-08 0)
(0.054481269 1.2989048e-08 0)
(0.054263665 1.2577392e-08 0)
(0.054052787 1.2203933e-08 0)
(0.053847813 1.1852258e-08 0)
(0.053648835 1.1581518e-08 0)
(0.053452999 1.1280497e-08 0)
(0.053264221 1.1286404e-08 0)
(0.05306806 1.0777748e-08 0)
(0.052896002 1.3239454e-08 0)
(0.052615695 8.2310825e-09 0)
(1 2.9086449e-09 6.3769496e-24)
(0.99996959 9.165273e-09 0)
(0.99991184 1.4708408e-08 0)
(0.99984302 1.9388352e-08 0)
(0.99976448 2.4835951e-08 0)
(0.99967645 3.1323976e-08 0)
(0.99957909 3.9113059e-08 0)
(0.99947209 4.8599173e-08 0)
(0.9993548 6.0256097e-08 0)
(0.99922626 7.4661496e-08 0)
(0.9990852 9.254859e-08 0)
(0.99893004 1.1490822e-07 0)
(0.99875858 1.4302166e-07 0)
(0.99856809 1.7888902e-07 0)
(0.99835428 2.2477327e-07 0)
(0.99811257 2.8614754e-07 0)
(0.99783195 3.6529389e-07 0)
(0.9975078 4.8680296e-07 0)
(0.99709714 6.2988418e-07 0)
(0.99662955 9.6031891e-07 0)
(0.99585762 1.2313015e-06 0)
(0.99511996 3.3025285e-06 0)
(0.99203968 2.5374892e-06 0)
(0.99221264 0.00077914863 -3.9816343e-54)
(0.23908681 0.00080533633 4.1939836e-54)
(0.18506421 3.2407039e-05 0)
(0.17088703 1.1152418e-05 0)
(0.16216419 7.3976909e-06 0)
(0.15599485 5.5020906e-06 0)
(0.15104293 4.4997047e-06 0)
(0.14682524 3.8186387e-06 0)
(0.1431828 3.2729163e-06 0)
(0.14001383 2.8315419e-06 0)
(0.13722213 2.480137e-06 0)
(0.13473133 2.1964636e-06 0)
(0.13248759 1.9603296e-06 0)
(0.13045426 1.7608709e-06 0)
(0.12859821 1.5945092e-06 0)
(0.12688807 1.4544691e-06 0)
(0.1253036 1.3330572e-06 0)
(0.12382919 1.2275848e-06 0)
(0.12244947 1.1357296e-06 0)
(0.12115301 1.0546753e-06 0)
(0.11993014 9.8277917e-07 0)
(0.11877258 9.185519e-07 0)
(0.11767356 8.6092307e-07 0)
(0.11662684 8.0894372e-07 0)
(0.11562751 7.6165655e-07 0)
(0.11467129 7.1860447e-07 0)
(0.11375408 6.7912109e-07 0)
(0.11287299 6.4263162e-07 0)
(0.11202516 6.0910369e-07 0)
(0.11120751 5.7819975e-07 0)
(0.11041785 5.4947538e-07 0)
(0.10965412 5.2286606e-07 0)
(0.10891409 4.9824089e-07 0)
(0.10819588 4.7523451e-07 0)
(0.10749813 4.5363681e-07 0)
(0.10681945 4.3346201e-07 0)
(0.10615828 4.1457122e-07 0)
(0.10551349 3.9671338e-07 0)
(0.10488422 3.7982543e-07 0)
(0.10426942 3.6394789e-07 0)
(0.10366798 3.4898464e-07 0)
(0.10307906 3.3476541e-07 0)
(0.10250201 3.21242e-07 0)
(0.1019361 3.08449e-07 0)
(0.10138047 2.9634742e-07 0)
(0.10083441 2.8480572e-07 0)
(0.10029747 2.7374833e-07 0)
(0.099769162 2.6321647e-07 0)
(0.099248807 2.5323305e-07 0)
(0.098735747 2.4368807e-07 0)
(0.098229669 2.3449611e-07 0)
(0.097730212 2.2569083e-07 0)
(0.097236865 2.1729144e-07 0)
(0.096749115 2.0926906e-07 0)
(0.09626651 2.0155265e-07 0)
(0.095788804 1.9410027e-07 0)
(0.095315694 1.8694225e-07 0)
(0.094846733 1.8009608e-07 0)
(0.09438147 1.7351607e-07 0)
(0.09391963 1.6714991e-07 0)
(0.093460987 1.6099502e-07 0)
(0.093005238 1.5507265e-07 0)
(0.092551985 1.493908e-07 0)
(0.092100817 1.4390016e-07 0)
(0.091651572 1.3856246e-07 0)
(0.091204033 1.3340063e-07 0)
(0.090757852 1.2842732e-07 0)
(0.090312669 1.2362864e-07 0)
(0.08986817 1.1897246e-07 0)
(0.089424173 1.1444089e-07 0)
(0.088980451 1.1005328e-07 0)
(0.088536627 1.0582181e-07 0)
(0.088092316 1.0171707e-07 0)
(0.087647319 9.7715203e-08 0)
(0.087201408 9.3829262e-08 0)
(0.08675422 9.006861e-08 0)
(0.086305374 8.642229e-08 0)
(0.085854543 8.2871566e-08 0)
(0.085401475 7.941217e-08 0)
(0.084945833 7.605508e-08 0)
(0.084487172 7.279898e-08 0)
(0.084025088 6.9626462e-08 0)
(0.083559275 6.6532112e-08 0)
(0.083089327 6.35261e-08 0)
(0.082614714 6.0605607e-08 0)
(0.082134972 5.7757229e-08 0)
(0.081649679 5.4981282e-08 0)
(0.081158265 5.2287905e-08 0)
(0.080660008 4.9661668e-08 0)
(0.080154499 4.7116645e-08 0)
(0.079652084 4.4719449e-08 0)
(0.079168516 4.2505335e-08 0)
(0.078708215 4.0466887e-08 0)
(0.078269382 3.8588971e-08 0)
(0.077850322 3.6861411e-08 0)
(0.077449452 3.5267715e-08 0)
(0.077065435 3.3790257e-08 0)
(0.076697071 3.2419769e-08 0)
(0.076343225 3.1149667e-08 0)
(0.076002835 2.9971612e-08 0)
(0.075674947 2.8874166e-08 0)
(0.075358752 2.7849741e-08 0)
(0.075053459 2.6895543e-08 0)
(0.074758317 2.6011582e-08 0)
(0.074472533 2.5191556e-08 0)
(0.074195494 2.4447674e-08 0)
(0.073926128 2.3746994e-08 0)
(0.073664563 2.3208465e-08 0)
(0.073407041 2.2608389e-08 0)
(0.073158748 2.2624878e-08 0)
(0.072900609 2.1641903e-08 0)
(0.072674179 2.6557168e-08 0)
(0.072305197 1.6516061e-08 0)
(1 3.8166726e-09 0)
(0.99996953 1.2031454e-08 0)
(0.99991158 1.9315393e-08 0)
(0.99984247 2.5466373e-08 0)
(0.99976359 3.2623693e-08 0)
(0.99967516 4.1146175e-08 0)
(0.99957735 5.1376169e-08 0)
(0.99946988 6.3833282e-08 0)
(0.99935209 7.9139109e-08 0)
(0.99922302 9.8051472e-08 0)
(0.99908142 1.2153216e-07 0)
(0.99892568 1.5088078e-07 0)
(0.99875362 1.8777777e-07 0)
(0.99856251 2.3484626e-07 0)
(0.99834805 2.9505376e-07 0)
(0.99810567 3.7557801e-07 0)
(0.99782435 4.7941011e-07 0)
(0.99749946 6.3879869e-07 0)
(0.997088 8.264708e-07 0)
(0.99661959 1.2598312e-06 0)
(0.99584664 1.6151628e-06 0)
(0.99510824 4.3311107e-06 0)
(0.99202596 3.3297673e-06 0)
(0.99219712 0.00098259172 0)
(0.28922639 0.0010260088 0)
(0.22167757 5.380236e-05 0)
(0.20445354 1.8118794e-05 0)
(0.19425289 1.1831424e-05 0)
(0.18710932 8.7733689e-06 0)
(0.18140064 7.1692785e-06 0)
(0.176548 6.0851529e-06 0)
(0.17235989 5.2185882e-06 0)
(0.16871668 4.5180003e-06 0)
(0.16550691 3.9601919e-06 0)
(0.16264243 3.5097831e-06 0)
(0.16006131 3.1346136e-06 0)
(0.15772162 2.8174646e-06 0)
(0.15558537 2.5528344e-06 0)
(0.15361641 2.3300063e-06 0)
(0.15179158 2.1366951e-06 0)
(0.15009303 1.9686767e-06 0)
(0.14850308 1.8223041e-06 0)
(0.14700862 1.6930822e-06 0)
(0.14559859 1.5784107e-06 0)
(0.14426345 1.4759305e-06 0)
(0.14299548 1.3839436e-06 0)
(0.14178748 1.3009431e-06 0)
(0.14063384 1.2254037e-06 0)
(0.13952967 1.1566072e-06 0)
(0.13847022 1.0934915e-06 0)
(0.13745221 1.0351353e-06 0)
(0.13647235 9.8149793e-07 0)
(0.13552711 9.3204298e-07 0)
(0.13461396 8.8605597e-07 0)
(0.13373057 8.4344099e-07 0)
(0.13287436 8.0399455e-07 0)
(0.13204316 7.6712818e-07 0)
(0.13123543 7.3250527e-07 0)
(0.13044956 7.0015479e-07 0)
(0.12968378 6.6985605e-07 0)
(0.12893677 6.4120327e-07 0)
(0.12820754 6.1409666e-07 0)
(0.12749491 5.8860568e-07 0)
(0.12679757 5.6457682e-07 0)
(0.12611457 5.4173463e-07 0)
(0.12544518 5.2000231e-07 0)
(0.12478853 4.9943881e-07 0)
(0.12414365 4.7998268e-07 0)
(0.1235097 4.6142067e-07 0)
(0.12288619 4.4363076e-07 0)
(0.12227256 4.26682e-07 0)
(0.121668 4.1061286e-07 0)
(0.12107177 3.9524495e-07 0)
(0.1204835 3.8044007e-07 0)
(0.11990278 3.662538e-07 0)
(0.11932902 3.5271854e-07 0)
(0.11876162 3.3978792e-07 0)
(0.11820007 3.2734664e-07 0)
(0.11764407 3.153268e-07 0)
(0.11709328 3.0377879e-07 0)
(0.11654718 2.9273162e-07 0)
(0.11600525 2.8211121e-07 0)
(0.11546716 2.7183266e-07 0)
(0.11493266 2.6189203e-07 0)
(0.11440139 2.523247e-07 0)
(0.1138729 2.4314389e-07 0)
(0.11334669 2.342695e-07 0)
(0.11282258 2.2563943e-07 0)
(0.11230033 2.1729135e-07 0)
(0.11177952 2.0924626e-07 0)
(0.11125973 2.0148171e-07 0)
(0.11074059 1.9394544e-07 0)
(0.11022189 1.8660842e-07 0)
(0.10970337 1.7950261e-07 0)
(0.10918458 1.72648e-07 0)
(0.10866507 1.6599673e-07 0)
(0.10814461 1.5951003e-07 0)
(0.10762292 1.5320932e-07 0)
(0.10709957 1.4711013e-07 0)
(0.10657413 1.4119466e-07 0)
(0.10604619 1.3543239e-07 0)
(0.10551547 1.2981646e-07 0)
(0.10498156 1.2436503e-07 0)
(0.10444394 1.1907601e-07 0)
(0.10390212 1.13921e-07 0)
(0.10335575 1.0889128e-07 0)
(0.10280433 1.0400359e-07 0)
(0.10224724 9.9253398e-08 0)
(0.10168393 9.4618814e-08 0)
(0.10111388 9.010045e-08 0)
(0.10053643 8.5715004e-08 0)
(0.099950704 8.1437219e-08 0)
(0.099356221 7.7290123e-08 0)
(0.098765137 7.3382774e-08 0)
(0.098195997 6.9772785e-08 0)
(0.097654028 6.6447948e-08 0)
(0.097137139 6.3383745e-08 0)
(0.096643363 6.056394e-08 0)
(0.096170853 5.7961795e-08 0)
(0.095718057 5.5548658e-08 0)
(0.095283575 5.3309579e-08 0)
(0.094866084 5.1233959e-08 0)
(0.094464347 4.9308259e-08 0)
(0.094077253 4.7513866e-08 0)
(0.093703855 4.5838475e-08 0)
(0.093343232 4.4277628e-08 0)
(0.092994506 4.2831475e-08 0)
(0.092656747 4.1489725e-08 0)
(0.09232924 4.0272717e-08 0)
(0.092010721 3.9126055e-08 0)
(0.091701355 3.8246668e-08 0)
(0.091396672 3.7264162e-08 0)
(0.091102876 3.7300895e-08 0)
(0.090797234 3.5695711e-08 0)
(0.090529187 4.3805475e-08 -2.9469036e-22)
(0.090092316 2.7232256e-08 2.1181625e-23)
(1 4.7837832e-09 0)
(0.99996946 1.5087392e-08 0)
(0.99991128 2.4232244e-08 0)
(0.99984183 3.1956681e-08 0)
(0.99976253 4.0941053e-08 0)
(0.99967362 5.1636408e-08 0)
(0.9995753 6.4472367e-08 0)
(0.99946727 8.0100229e-08 0)
(0.99934889 9.9298974e-08 0)
(0.99921919 1.2301818e-07 0)
(0.99907694 1.5246288e-07 0)
(0.99892052 1.8926119e-07 0)
(0.99874775 2.3551811e-07 0)
(0.99855591 2.945195e-07 0)
(0.99834069 3.69982e-07 0)
(0.99809751 4.7089631e-07 0)
(0.99781536 6.0100657e-07 0)
(0.9974896 8.007058e-07 0)
(0.99707719 1.0358217e-06 0)
(0.99660783 1.5786599e-06 0)
(0.99583366 2.0236443e-06 0)
(0.9950944 5.4250962e-06 0)
(0.99200984 4.1734663e-06 0)
(0.99217906 0.0011849036 0)
(0.33395158 0.0012497433 0)
(0.25342783 8.1394261e-05 0)
(0.23326201 2.678275e-05 0)
(0.22172292 1.7193706e-05 0)
(0.21372987 1.2695635e-05 0)
(0.20737501 1.0357242e-05 0)
(0.20198705 8.7865793e-06 0)
(0.19734245 7.5355343e-06 0)
(0.19330468 6.525341e-06 0)
(0.18974858 5.7214484e-06 0)
(0.18657562 5.0724862e-06 0)
(0.18371681 4.5318238e-06 0)
(0.18112565 4.0745976e-06 0)
(0.17875999 3.6930641e-06 0)
(0.17657958 3.3717954e-06 0)
(0.17455879 3.0929826e-06 0)
(0.17267786 2.8505954e-06 0)
(0.17091713 2.6394202e-06 0)
(0.16926209 2.4529443e-06 0)
(0.16770049 2.2874313e-06 -3.8732259e-33)
(0.16622178 2.1394877e-06 0)
(0.16481736 2.0066699e-06 0)
(0.16347929 1.8868056e-06 0)
(0.16220136 1.7776914e-06 0)
(0.16097814 1.6783042e-06 0)
(0.15980437 1.5871092e-06 0)
(0.15867641 1.5027678e-06 0)
(0.15759064 1.4252351e-06 0)
(0.15654313 1.3537368e-06 0)
(0.15553111 1.2872332e-06 0)
(0.15455198 1.2255949e-06 0)
(0.15360288 1.1685346e-06 0)
(0.15268143 1.115195e-06 0)
(0.15178592 1.065088e-06 0)
(0.15091456 1.0182639e-06 0)
(0.15006539 9.7440504e-07 0)
(0.14923695 9.3291857e-07 0)
(0.14842816 8.9366138e-07 0)
(0.1476377 8.5673988e-07 0)
(0.14686412 8.2193204e-07 0)
(0.14610637 7.8883527e-07 0)
(0.14536364 7.5733891e-07 0)
(0.14463498 7.2753281e-07 0)
(0.1439193 6.9932921e-07 0)
(0.14321568 6.724159e-07 0)
(0.14252357 6.4661502e-07 0)
(0.14184235 6.2203055e-07 0)
(0.14117113 5.9872015e-07 0)
(0.14050908 5.764227e-07 0)
(0.1398558 5.5493666e-07 0)
(0.13921084 5.3434458e-07 0)
(0.13857353 5.1469517e-07 0)
(0.13794322 4.9592117e-07 0)
(0.13731932 4.7785376e-07 0)
(0.13670153 4.6039395e-07 0)
(0.13608945 4.4361697e-07 0)
(0.13548252 4.2756584e-07 0)
(0.13488013 4.1213222e-07 0)
(0.13428196 3.9719199e-07 0)
(0.13368769 3.8273974e-07 0)
(0.13309695 3.6882825e-07 0)
(0.13250921 3.5547707e-07 0)
(0.13192394 3.4256889e-07 0)
(0.13134094 3.3001312e-07 0)
(0.13075991 3.1786537e-07 0)
(0.13018042 3.0615681e-07 0)
(0.12960198 2.9485468e-07 0)
(0.12902419 2.8388244e-07 0)
(0.1284468 2.7319779e-07 0)
(0.12786953 2.6284809e-07 0)
(0.12729188 2.5286269e-07 0)
(0.12671333 2.4317152e-07 0)
(0.12613364 2.3371788e-07 0)
(0.12555249 2.245334e-07 0)
(0.1249694 2.1564108e-07 0)
(0.12438388 2.0701489e-07 0)
(0.12379549 1.9861007e-07 0)
(0.12320389 1.9041679e-07 0)
(0.12260863 1.8246188e-07 0)
(0.12200913 1.7474235e-07 0)
(0.12140484 1.6721654e-07 0)
(0.12079535 1.5987181e-07 0)
(0.12018012 1.527329e-07 0)
(0.11955844 1.4579314e-07 0)
(0.11892968 1.3902044e-07 0)
(0.11829328 1.3241583e-07 0)
(0.11764847 1.2600393e-07 0)
(0.11699428 1.1974759e-07 0)
(0.11633016 1.1368058e-07 0)
(0.11566968 1.0796316e-07 0)
(0.11503358 1.0267983e-07 0)
(0.1144277 9.7812432e-08 0)
(0.11384973 9.3325187e-08 0)
(0.11329749 8.9194804e-08 0)
(0.11276892 8.5382282e-08 0)
(0.11226231 8.184579e-08 0)
(0.11177609 7.856365e-08 0)
(0.11130879 7.552049e-08 0)
(0.11085905 7.2696539e-08 0)
(0.11042562 7.0064605e-08 0)
(0.11000746 6.7606783e-08 0)
(0.10960354 6.5316655e-08 0)
(0.10921287 6.3194605e-08 0)
(0.10883443 6.1225527e-08 0)
(0.10846743 5.9439795e-08 0)
(0.10811043 5.7756829e-08 0)
(0.10776365 5.6468996e-08 0)
(0.10742203 5.5026218e-08 0)
(0.10709262 5.5094031e-08 0)
(0.10674972 5.2728302e-08 0)
(0.1064491 6.4721497e-08 0)
(0.10595912 4.0216594e-08 -1.015242e-23)
(1 5.825018e-09 0)
(0.99996938 1.8381685e-08 0)
(0.99991093 2.9538793e-08 0)
(0.99984108 3.8965872e-08 0)
(0.99976129 4.9925146e-08 0)
(0.99967183 6.2967672e-08 0)
(0.9995729 7.8617329e-08 0)
(0.99946421 9.7667234e-08 0)
(0.99934513 1.2106574e-07 0)
(0.99921471 1.4996875e-07 0)
(0.99907169 1.8584289e-07 0)
(0.99891447 2.3066956e-07 0)
(0.99874088 2.870102e-07 0)
(0.99854817 3.5886306e-07 0)
(0.99833206 4.5074981e-07 0)
(0.99808796 5.7360988e-07 0)
(0.99780483 7.3199554e-07 0)
(0.99747806 9.7505335e-07 0)
(0.99706455 1.2611895e-06 0)
(0.99659406 1.921715e-06 0)
(0.99581849 2.4630086e-06 0)
(0.99507822 6.6009954e-06 0)
(0.99199109 5.0817173e-06 0)
(0.99215822 0.0013885837 0)
(0.37510148 0.0014809186 0)
(0.28209002 0.00011545677 0)
(0.25898775 3.7425021e-05 0)
(0.24616343 2.3615059e-05 0)
(0.23738105 1.735014e-05 0)
(0.23043616 1.412418e-05 0)
(0.22456454 1.197172e-05 0)
(0.21951008 1.0264296e-05 0)
(0.21511957 8.8878576e-06 0)
(0.21125492 7.7934079e-06 0)
(0.20780793 6.9103151e-06 0)
(0.20470301 6.1746328e-06 0)
(0.20188947 5.5523752e-06 0)
(0.19932136 5.0331881e-06 0)
(0.1969547 4.5960709e-06 0)
(0.19476156 4.2166432e-06 0)
(0.1927205 3.8867628e-06 0)
(0.19081006 3.5993787e-06 0)
(0.18901444 3.3455805e-06 0)
(0.18732032 3.1202948e-06 3.4904235e-33)
(0.18571621 2.9189111e-06 0)
(0.18419279 2.7381067e-06 0)
(0.1827414 2.5749249e-06 0)
(0.18135528 2.4263602e-06 0)
(0.18002855 2.2910374e-06 0)
(0.17875548 2.1668625e-06 0)
(0.17753211 2.0520005e-06 0)
(0.17635451 1.946406e-06 0)
(0.1752184 1.8490239e-06 0)
(0.17412078 1.7584268e-06 0)
(0.17305885 1.6744499e-06 0)
(0.17202948 1.5967101e-06 0)
(0.17103008 1.52403e-06 0)
(0.17005881 1.4557424e-06 0)
(0.16911374 1.3919263e-06 0)
(0.1681927 1.3321503e-06 0)
(0.16729415 1.2755986e-06 0)
(0.16641688 1.2220773e-06 0)
(0.16555948 1.1717385e-06 0)
(0.16472037 1.1242796e-06 0)
(0.16389841 1.0791465e-06 0)
(0.16309272 1.0361885e-06 0)
(0.16230228 9.9553374e-07 0)
(0.16152589 9.5706409e-07 0)
(0.16076256 9.203491e-07 0)
(0.16001169 8.8514471e-07 0)
(0.15927261 8.515977e-07 0)
(0.15854436 8.1978889e-07 0)
(0.15782603 7.8935859e-07 0)
(0.15711718 7.6003036e-07 0)
(0.15641734 7.3191918e-07 0)
(0.15572577 7.0509346e-07 0)
(0.15504177 6.7946139e-07 0)
(0.15436469 6.5479038e-07 0)
(0.15369422 6.3094469e-07 0)
(0.15302992 6.080297e-07 0)
(0.15237116 5.8610508e-07 0)
(0.15171732 5.6502182e-07 0)
(0.15106801 5.4460932e-07 0)
(0.15042291 5.2486061e-07 0)
(0.1497816 5.0584938e-07 0)
(0.14914352 4.8760263e-07 0)
(0.14850809 4.6995889e-07 0)
(0.14787508 4.5279409e-07 0)
(0.14724419 4.3618519e-07 0)
(0.14661492 4.201754e-07 0)
(0.14598675 4.0471985e-07 0)
(0.14535925 3.8971317e-07 0)
(0.14473215 3.7509748e-07 0)
(0.14410514 3.6093854e-07 0)
(0.14347766 3.4727673e-07 0)
(0.14284917 3.3401564e-07 0)
(0.14221939 3.2107751e-07 0)
(0.14158798 3.0850603e-07 0)
(0.14095441 2.9633309e-07 0)
(0.14031815 2.8452291e-07 0)
(0.13967872 2.730139e-07 0)
(0.13903575 2.6179275e-07 0)
(0.13838875 2.5089669e-07 0)
(0.13773707 2.4032155e-07 0)
(0.13708013 2.3000999e-07 0)
(0.13641747 2.1994487e-07 0)
(0.13574851 2.1016036e-07 0)
(0.13507246 2.0064724e-07 0)
(0.13438864 1.9136137e-07 0)
(0.13369644 1.8230431e-07 0)
(0.13299501 1.7351002e-07 0)
(0.13228329 1.6492727e-07 0)
(0.13156068 1.5660245e-07 0)
(0.13084195 1.4875633e-07 0)
(0.13014965 1.4150515e-07 0)
(0.12949016 1.3482348e-07 0)
(0.12886097 1.2866224e-07 0)
(0.12825972 1.2298994e-07 0)
(0.12768417 1.1775322e-07 0)
(0.12713247 1.1289475e-07 0)
(0.12660292 1.0838501e-07 0)
(0.12609393 1.0420302e-07 0)
(0.125604 1.0032164e-07 0)
(0.12513181 9.6703628e-08 0)
(0.1246762 9.3324546e-08 0)
(0.12423606 9.0175684e-08 0)
(0.12381033 8.7257743e-08 0)
(0.12339788 8.4549906e-08 0)
(0.12299786 8.2094616e-08 0)
(0.12260871 7.9780063e-08 0)
(0.12223067 7.801262e-08 0)
(0.12185819 7.6027277e-08 0)
(0.12149905 7.6137825e-08 0)
(0.12112497 7.2873751e-08 -2.7464629e-23)
(0.12079717 8.9456665e-08 0)
(0.12026291 5.5568195e-08 0)
(1 6.9566963e-09 0)
(0.99996928 2.1967369e-08 0)
(0.99991053 3.5322617e-08 0)
(0.99984021 4.6611238e-08 0)
(0.99975985 5.9727001e-08 0)
(0.99966975 7.5330552e-08 0)
(0.99957011 9.4048603e-08 0)
(0.99946066 1.1682844e-07 0)
(0.99934077 1.4480242e-07 0)
(0.99920949 1.7935052e-07 0)
(0.99906558 2.2222337e-07 0)
(0.99890744 2.7578577e-07 0)
(0.99873288 3.4309441e-07 0)
(0.99853918 4.2892048e-07 0)
(0.99832203 5.386587e-07 0)
(0.99807685 6.8536245e-07 0)
(0.99779259 8.7445915e-07 0)
(0.99746465 1.1645904e-06 0)
(0.99704986 1.5061051e-06 0)
(0.99657808 2.294314e-06 0)
(0.99580089 2.9400377e-06 0)
(0.99505946 7.8765868e-06 0)
(0.99196944 6.0687676e-06 0)
(0.99213434 0.0015955535 -1.0446658e-53)
(0.41390516 0.0017221861 6.8372971e-54)
(0.30880966 0.00015802299 -6.856809e-20)
(0.28270999 5.0407775e-05 0)
(0.26860606 3.1269506e-05 0)
(0.25906137 2.2846706e-05 0)
(0.25155555 1.8553111e-05 0)
(0.24522839 1.5708203e-05 0)
(0.23978995 1.3461597e-05 0)
(0.23507016 1.1653955e-05 0)
(0.23091831 1.0218052e-05 0)
(0.22721684 9.0601831e-06 0)
(0.2238838 8.0957956e-06 0)
(0.22086449 7.280061e-06 0)
(0.21810936 6.5995792e-06 0)
(0.21557087 6.0267955e-06 0)
(0.21321897 5.5295589e-06 0)
(0.21103057 5.097261e-06 0)
(0.20898252 4.7207042e-06 0)
(0.20705783 4.3881461e-06 0)
(0.20524217 4.0929461e-06 0)