#      distance             U_x             U_y             U_z wallShearStr... wallShearStr... wallShearStr...               p         epsilon               k             nut
  3.0219182e-06     0.033559817    3.633011e-09  -2.7308685e-23               0               0               0    0.0002163201       9.7783833   0.00048823399   4.7969583e-09
  5.0865428e-06     0.055449766   9.1464397e-09  -1.1655632e-23               0               0               0   0.00021632046       6.5725474    0.0010288277   1.8960436e-08
  7.2269684e-06     0.076131839   1.7446083e-08  -2.1279616e-23               0               0               0   0.00021632089       5.5827966    0.0016319701   4.7758017e-08
  9.4750924e-06     0.095022637   2.8254365e-08  -3.1916011e-23               0               0               0   0.00021632141       5.1429939    0.0022212595   9.0631266e-08
  1.1864417e-05       0.1120529   4.1393821e-08  -1.3086911e-23               0               0               0   0.00021632203       4.8704556    0.0027541117   1.4385481e-07
  1.4430548e-05      0.12752155   5.6923487e-08   2.6205914e-23               0               0               0   0.00021632276       4.6453653     0.003219757   2.0414159e-07
  1.7211727e-05       0.1418145   7.5070113e-08   4.4204913e-23               0               0               0   0.00021632359       4.4302791    0.0036233824    2.698007e-07
  2.0249401e-05      0.15526554   9.6178102e-08   9.9935515e-24               0               0               0   0.00021632451       4.2143904    0.0039741826   3.4032667e-07
  2.3588836e-05      0.16813073   1.2069487e-07  -1.1109863e-23               0               0               0   0.00021632555       3.9954132    0.0042807156   4.1587249e-07
  2.7279799e-05      0.18060019   1.4917055e-07  -5.5549314e-24               0               0               0    0.0002163267       3.7738086    0.0045498537   4.9694607e-07
  3.1377293e-05      0.19281465   1.8226351e-07               0               0               0               0   0.00021632799       3.5509181     0.004786881   5.8426663e-07
  3.5942381e-05      0.20487893    2.207509e-07   1.7123295e-23               0               0               0   0.00021632943       3.3283389    0.0049958362   6.7870291e-07
  4.1043091e-05      0.21687164   2.6554369e-07   2.5682196e-23               0               0               0   0.00021633105       3.1076995    0.0051798433   7.8125066e-07
  4.6755437e-05      0.22885194   3.1770579e-07   3.0460408e-23               0               0               0   0.00021633287       2.8905687    0.0053413715   8.9302946e-07
  5.3164546e-05      0.24086435   3.7847723e-07   3.2848748e-23               0               0               0   0.00021633492       2.6784082     0.005482428   1.0152896e-06
  6.0365928e-05       0.2529421    4.493016e-07  -5.9684261e-23               0               0               0   0.00021633724       2.4725415     0.005604695   1.1494245e-06
    6.84669e-05      0.26510962    5.318582e-07  -1.2846057e-22               0               0               0   0.00021633988       2.2741306    0.0057096265   1.2969869e-06
  7.7588184e-05      0.27738435   6.2809976e-07  -7.3502799e-23               0               0               0   0.00021634287        2.084159    0.0057985151   1.4597079e-06
   8.786571e-05      0.28977811    7.402963e-07   1.6864241e-23               0               0               0   0.00021634628       1.9034216    0.0058725361   1.6395184e-06
  9.9452634e-05      0.30229823   8.7108624e-07   9.2846389e-23               0               0               0   0.00021635016       1.7325211    0.0059327777   1.8385727e-06
  0.00011252163      0.31494835   1.0235359e-06   2.6236497e-23               0               0               0   0.00021635461       1.5718708    0.0059802593   2.0592753e-06
  0.00012726745      0.32772913   1.2012088e-06  -3.6195065e-23               0               0               0   0.00021635969       1.4217034    0.0060159423   2.3043092e-06
  0.00014390985      0.34063886   1.4082458e-06  -2.1231457e-24               0               0               0   0.00021636551        1.282085    0.0060407368   2.5766687e-06
  0.00016269684      0.35367392   1.6494588e-06   4.1247565e-23               0               0               0    0.0002163722       1.1529324    0.0060555041   2.8796939e-06
  0.00018390838      0.36682918   1.9304394e-06   2.7952513e-22               0               0               0   0.00021637987       1.0340334    0.0060610583   3.2171103e-06
  0.00020786057      0.38009839   2.2576849e-06   3.3676096e-22               0               0               0    0.0002163887       0.9250678    0.0060581662   3.5930713e-06
  0.00023491035      0.39347445   2.6387454e-06   9.8483392e-23               0               0               0   0.00021639885      0.82562854    0.0060475478   4.0122056e-06
  0.00026546084      0.40694966   3.0823937e-06               0               0               0               0   0.00021641054      0.73524258    0.0060298757   4.4796689e-06
   0.0002999673      0.42051601   3.5988242e-06               0               0               0               0     0.000216424      0.65338985    0.0060057759    5.001201e-06
  0.00033894396      0.43416526   4.1998826e-06  -1.4148961e-22               0               0               0   0.00021643951      0.57952047     0.005975828   5.5831872e-06
  0.00038297165      0.44788921   4.8993343e-06  -2.8297923e-22               0               0               0   0.00021645739      0.51306966    0.0059405663   6.2327259e-06
  0.00043270649      0.46167977    5.713176e-06   4.9801426e-22               0               0               0     0.000216478       0.4534705    0.0059004809   6.9577002e-06
  0.00048888965      0.47552908   6.6599991e-06   1.0211382e-21               0               0               0   0.00021650177       0.4001642    0.0058560191   7.7668546e-06
  0.00055235838      0.48942966    7.761413e-06   3.8163435e-22               0               0               0   0.00021652917      0.35260838    0.0058075865   8.6698751e-06
   0.0006240585       0.5033744   9.0425398e-06               0               0               0               0   0.00021656076      0.31028329    0.0057555487   9.6774715e-06
  0.00070505852      0.51735675   1.0532592e-05   2.1315717e-22               0               0               0   0.00021659717      0.27269624    0.0057002321   1.0801459e-05
  0.00079656552      0.53137068   1.2265549e-05   4.2631435e-22               0               0               0   0.00021663913      0.23938466    0.0056419249   1.2054838e-05
  0.00089994316      0.54541084   1.4280954e-05   2.1315718e-22               0               0               0   0.00021668747      0.20991773    0.0055808779    1.345186e-05
    0.001016732      0.55947254    1.662485e-05               0               0               0               0   0.00021674314      0.18389713     0.005517304   1.5008084e-05
   0.0011486725      0.57355191   1.9350889e-05   7.6094534e-22               0               0               0    0.0002168072      0.16095688    0.0054513782   1.6740398e-05
   0.0012977308      0.58764591    2.252165e-05  -6.0020056e-22               0               0               0   0.00021688089      0.14076257    0.0053832358    1.866701e-05
   0.0014661282      0.60175249   2.6210209e-05  -2.7099801e-21               0               0               0   0.00021696558      0.12301019    0.0053129706   2.0807369e-05
   0.0016563743      0.61587066   3.0502034e-05  -2.3745451e-21               0               0               0   0.00021706283      0.10742452    0.0052406314   2.3182002e-05
   0.0018713042      0.63000065   3.5497275e-05  -1.5730565e-21               0               0               0   0.00021717439     0.093757378    0.0051662175   2.5812237e-05
   0.0021141207      0.64414408   4.1313545e-05  -5.4734559e-22               0               0               0   0.00021730222     0.081785757    0.0050896726    2.871975e-05
   0.0023884425      0.65830416   4.8089353e-05  -4.1049447e-22               0               0               0   0.00021744848     0.071309835    0.0050108763   3.1925901e-05
   0.0026983575      0.67248593    5.598834e-05     6.71696e-22               0               0               0   0.00021761556      0.06215105     0.004929634   3.5450764e-05
   0.0030484842      0.68669657   6.5204554e-05  -1.8318454e-21               0               0               0   0.00021780605     0.054150191    0.0048456628   3.9311774e-05
   0.0034440402       0.7009457   7.5969074e-05   -4.086783e-21               0               0               0   0.00021802269     0.047165557    0.0047585745   4.3521884e-05
   0.0038909203      0.71524583   8.8558352e-05   -1.172747e-21               0               0               0   0.00021826837     0.041071217     0.004667853   4.8087097e-05
    0.004395784      0.72961275   0.00010330479   3.2621974e-21               0               0               0   0.00021854592      0.03575536    0.0045728265   5.3003221e-05
   0.0049661549      0.74406612   0.00012061014  -2.2928394e-21               0               0               0   0.00021885799     0.031118755    0.0044726314   5.8251716e-05
   0.0056105328         0.75863   0.00014096261  -1.0431508e-20               0               0               0   0.00021920666     0.027073315    0.0043661675   6.3794443e-05
   0.0063385204      0.77333348   0.00016495874   3.1574999e-21               0               0               0   0.00021959302     0.023540759    0.0042520403   6.9567185e-05
   0.0071609664      0.78821137   0.00019333116   1.3683212e-20               0               0               0   0.00022001627     0.020451366    0.0041284883    7.547183e-05
   0.0080901272      0.80330484   0.00022698239   1.9405018e-20               0               0               0   0.00022047221     0.017742809    0.0039932906   8.1367152e-05
   0.0091398493      0.81866194   0.00026702799   2.1385787e-20               0               0               0   0.00022095128     0.015359055    0.0038436515   8.7058249e-05
    0.010325776      0.83433799   0.00031483312   1.1491213e-20               0               0               0   0.00022143676     0.013249318    0.0036760554   9.2284811e-05
     0.01166558      0.85039525     0.000372144   3.8612042e-21               0               0               0   0.00022190193     0.011367078     0.003486091   9.6708602e-05
    0.013179228      0.86690162   0.00044110317   1.0167617e-20               0               0               0   0.00022230443    0.0096691774    0.0032682489   9.9900843e-05
    0.014889277      0.88392692   0.00052427285   6.7834156e-21               0               0               0   0.00022257785    0.0081151079    0.0030157144   0.00010133073
    0.016821209      0.90153448   0.00062478663   2.5313578e-20               0               0               0   0.00022262132    0.0066667539    0.0027202314   0.00010035776
    0.019003816      0.91976189    0.0007462615    4.197094e-20               0               0               0   0.00022228492    0.0052893392     0.002372266   9.6235032e-05
    0.021469624        0.938575   0.00089224829   1.6639474e-20               0               0               0   0.00022135374     0.003955711    0.0019621994   8.8148476e-05
    0.024255377      0.95773887    0.0010659366  -2.9136292e-22               0               0               0   0.00021961822    0.0026612775    0.0014854458   7.5404689e-05
    0.027402591      0.97637699    0.0012660978  -3.6577033e-21               0               0               0   0.00021686438    0.0014755813   0.00096451309   5.8219064e-05
    0.030958166      0.99180974    0.0014533827               0               0               0               0   0.00021216808    0.0005963168     0.000502854   4.1895849e-05
    0.034975088       1.0009131    0.0015650444               0               0               0               0   0.00020515644   0.00016198948   0.00022937098   3.8834284e-05
    0.039513219       1.0042431    0.0015996753   1.4857759e-20               0               0               0   0.00019740122   3.9039316e-05   0.00013597136   5.3752295e-05
    0.044640187       1.0050343    0.0016016722   2.0381917e-20               0               0               0   0.00019017372   1.7686589e-05    0.0001176217   7.4110508e-05
    0.050432395       1.0052227    0.0015957199   6.4413044e-22               0               0               0   0.00018336239   1.3570754e-05   0.00011466921   8.7799127e-05
    0.056976161        1.005276    0.0015879632  -7.8576181e-21               0               0               0   0.00017659008   1.2511295e-05   0.00011457385   9.4522052e-05
    0.064369002       1.0052925    0.0015788436  -2.9776175e-21               0               0               0   0.00016972432   1.2170112e-05   0.00011502955   9.7872539e-05
    0.072721087       1.0052933    0.0015676304               0               0               0               0   0.00016285319    1.202572e-05   0.00011548463   9.9818934e-05
    0.082156882       1.0052836    0.0015545023               0               0               0               0   0.00015616535   1.1945383e-05   0.00011582029   0.00010107102
    0.092817002        1.005266    0.0015399042               0               0               0               0   0.00014986524   1.1892868e-05   0.00011604935   0.00010191761
