#      distance             U_x             U_y             U_z wallShearStr... wallShearStr... wallShearStr...               p         epsilon               k             nut
    0.001215373      0.64045805   3.8093721e-05  -2.4243738e-20               0               0               0   0.00024696871      0.13705855    0.0042649432     1.57581e-05
   0.0020572852      0.69663571   6.0720879e-05  -5.3756338e-22               0               0               0   0.00024778234     0.067935583    0.0041769622   2.5507229e-05
   0.0029273097      0.73280803   9.1376095e-05   2.9072831e-21               0               0               0   0.00024859959     0.043797863    0.0040268359   3.4973212e-05
   0.0038263852      0.76030436    0.0001257849   1.2698132e-20               0               0               0   0.00024944303     0.031988252    0.0038981815   4.3967406e-05
   0.0047554818      0.78290943   0.00016358381   2.5711835e-20               0               0               0   0.00025033615     0.024988146    0.0037756348   5.2275889e-05
   0.0057156019      0.80241071   0.00020498175   1.9120664e-20               0               0               0   0.00025126762     0.020333361    0.0036520228    5.977325e-05
   0.0067077814       0.8197899   0.00025018697   9.6740132e-21               0               0               0   0.00025222234     0.016989407    0.0035236369   6.6374227e-05
   0.0077330908       0.8356425   0.00029940133    1.041555e-20               0               0               0   0.00025318965     0.014447633    0.0033882485   7.2013687e-05
   0.0087926364      0.85035571   0.00035285696  -8.1842136e-21               0               0               0   0.00025416145      0.01242902     0.003244316   7.6637782e-05
   0.0098875613      0.86419407   0.00041082343   -4.723612e-20               0               0               0   0.00025512829     0.010767716    0.0030906458   8.0199805e-05
    0.011019047      0.87734451   0.00047345573  -5.7193758e-20               0               0               0   0.00025607532    0.0093589231    0.0029262436   8.2658302e-05
    0.012188314      0.88994154   0.00054098081  -1.4795252e-20               0               0               0   0.00025698712    0.0081332367    0.0027502573   8.3976467e-05
    0.013396624       0.9020818   0.00061377709   2.1573132e-20               0               0               0   0.00025785241    0.0070430701     0.002561974   8.4122501e-05
    0.014645281      0.91383238    0.0006919653   1.3970993e-20               0               0               0   0.00025866121    0.0060551071    0.0023608615   8.3070999e-05
    0.015935632      0.92523493   0.00077555401  -7.1291968e-22               0               0               0   0.00025940032    0.0051460047    0.0021466578   8.0805767e-05
    0.017269069      0.93630647   0.00086454168  -2.7029884e-21               0               0               0    0.0002600516    0.0043000136    0.0019195296   7.7325022e-05
    0.018647031      0.94703666   0.00095867606               0               0               0               0   0.00026059559    0.0035078744    0.0016803407   7.2651007e-05
    0.020071004      0.95738054    0.0010573245  -3.5813853e-21               0               0               0   0.00026101396     0.002766721     0.001431109   6.6848466e-05
    0.021542526      0.96724398    0.0011592307  -3.5813856e-21               0               0               0   0.00026128984    0.0020809189    0.0011757991   6.0062098e-05
    0.023063183      0.97645695    0.0012620762    3.549482e-21               0               0               0   0.00026141009    0.0014637079   0.00092168078   5.2596756e-05
    0.024634616      0.98473138    0.0013616789   2.7273328e-20               0               0               0   0.00026136338   0.00093848978   0.00068136747   4.5091601e-05
    0.026258521      0.99163344    0.0014509557   4.7862545e-20               0               0               0   0.00026112614   0.00053467182   0.00047404899   3.8845515e-05
     0.02793665      0.99670989    0.0015203574   3.1049565e-20               0               0               0   0.00026063871   0.00026968529   0.00032001484   3.6082118e-05
    0.029670814      0.99985607    0.0015648726   6.9108664e-21               0               0               0   0.00025983683   0.00012703724   0.00022605414   3.9337693e-05
    0.031462883       1.0015094    0.0015887511   5.6463026e-21               0               0               0   0.00025874227   6.2636309e-05   0.00017874496   4.9836985e-05
    0.033314791       1.0023115    0.0016003897  -6.2768335e-22               0               0               0   0.00025745479   3.5460946e-05   0.00015735353   6.6662869e-05
    0.035228536       1.0027143    0.0016061495  -6.2739874e-21               0               0               0   0.00025605724   2.3200816e-05   0.00014759168    8.774038e-05
    0.037206184       1.0029362    0.0016090611  -2.1465554e-21               0               0               0   0.00025459372   1.6913095e-05   0.00014281277   0.00011113661
    0.039249867       1.0030702    0.0016105093  -1.9725903e-20               0               0               0   0.00025308622   1.3279148e-05   0.00014031224   0.00013549758
     0.04136179        1.003157    0.0016111328  -3.5047351e-20               0               0               0   0.00025153577   1.0976234e-05   0.00013895595   0.00015995645
    0.043544233       1.0032164    0.0016112588  -1.7468004e-20               0               0               0   0.00024993436   9.4130988e-06   0.00013822489   0.00018397419
     0.04579955       1.0032584    0.0016110618               0               0               0               0   0.00024827622   8.2956381e-06   0.00013785914   0.00020722559
    0.048130175        1.003289    0.0016106354  -1.4048579e-20               0               0               0   0.00024655948   7.4640377e-06   0.00013771793   0.00022952673
    0.050538621       1.0033115    0.0016100359  -2.6355559e-20               0               0               0   0.00024478321   6.8250269e-06   0.00013771999   0.00025078916
    0.053027488        1.003328    0.0016093016  -1.2306979e-20               0               0               0   0.00024294618   6.3209187e-06   0.00013781575   0.00027098966
    0.055599461         1.00334    0.0016084599  -1.1347259e-20               0               0               0   0.00024104727   5.9142889e-06   0.00013797366   0.00029015056
    0.058257315       1.0033485     0.001607531  -3.3849467e-20               0               0               0   0.00023908624    5.579872e-06   0.00013817295   0.00030832592
    0.061003917       1.0033544    0.0016065312  -2.6340969e-20               0               0               0   0.00023706459   5.3000292e-06   0.00013839945   0.00032559114
    0.063842231       1.0033583     0.001605466   7.1655163e-21               0               0               0   0.00023498476   5.0620906e-06   0.00013864331   0.00034203602
     0.06677532       1.0033605    0.0016043386   2.5698105e-20               0               0               0   0.00023284771   4.8567336e-06   0.00013889757   0.00035775918
    0.069806347       1.0033615    0.0016031499    2.548113e-20               0               0               0   0.00023065109   4.6769582e-06   0.00013915724   0.00037286394
    0.072938584       1.0033616    0.0016018956   1.4961911e-20               0               0               0   0.00022838906   4.5174193e-06   0.00013941872   0.00038745514
    0.076175409       1.0033608    0.0016005654    4.174611e-21               0               0               0   0.00022605452   4.3739801e-06   0.00013967945   0.00040163665
    0.079520315       1.0033594    0.0015991555               0               0               0               0   0.00022364512   4.2434063e-06   0.00013993761    0.0004155095
    0.082976911       1.0033573    0.0015976729   5.2186293e-21               0               0               0   0.00022117212   4.1231504e-06   0.00014019194   0.00042917046
    0.086548926       1.0033549    0.0015961169  -2.3613553e-21               0               0               0    0.0002186591   4.0111974e-06   0.00014044161   0.00044271097
    0.090240215       1.0033526    0.0015944566  -2.3490372e-21               0               0               0   0.00021612365   3.9059511e-06   0.00014068611   0.00045621646
     0.09405476        1.003351    0.0015926463   2.1672599e-20               0               0               0   0.00021356195   3.8061486e-06   0.00014092516   0.00046976588
