#      distance             U_x             U_y             U_z wallShearStr... wallShearStr... wallShearStr...               p         epsilon               k             nut
    0.001215373       0.6385213   3.9967965e-05   -2.330238e-20               0               0               0   0.00019983308      0.13591108    0.0042407331   1.5710615e-05
   0.0020572852      0.69454711   6.3677829e-05  -4.4666103e-22               0               0               0   0.00020069316     0.067367962    0.0041528899   2.5425255e-05
   0.0029273097      0.73062527   9.5711082e-05   2.2646816e-21               0               0               0   0.00020155502     0.043443428    0.0040037139   3.4850364e-05
   0.0038263852       0.7580612    0.0001315598   8.8061512e-21               0               0               0   0.00020243189     0.031747409    0.0038759915   4.3790639e-05
   0.0047554818      0.78063437   0.00017079024   1.9864366e-20               0               0               0   0.00020334665     0.024819971     0.003754262   5.2026415e-05
   0.0057156019      0.80013026    0.0002135814   1.6027938e-20               0               0               0   0.00020428946      0.02021589    0.0036312564   5.9428061e-05
   0.0067077814      0.81752949   0.00026015082   8.8126115e-21               0               0               0   0.00020524668     0.016908821    0.0035031982   6.5907939e-05
   0.0077330908      0.83342675   0.00031072414   9.3863681e-21               0               0               0   0.00020621012     0.014394388    0.0033678196   7.1399949e-05
   0.0087926364      0.84820861   0.00036557003  -6.9383124e-21               0               0               0   0.00020717496     0.012396148    0.0032235581    7.585003e-05
   0.0098875613       0.8621392   0.00042502477  -4.6864877e-20               0               0               0   0.00020813496      0.01074992    0.0030692054   7.9211418e-05
    0.011019047      0.87540531    0.0004892004  -6.1606491e-20               0               0               0   0.00020907709    0.0093520059    0.0029037476   8.1442306e-05
    0.012188314      0.88814159   0.00055833538  -1.7280696e-20               0               0               0   0.00020998664    0.0081336996    0.0027262979   8.2504862e-05
    0.013396624      0.90044516   0.00063298309   2.0495831e-20               0               0               0   0.00021085526    0.0070478127    0.0025360861   8.2365179e-05
    0.014645281      0.91238398   0.00071324558   1.2754301e-20               0               0               0   0.00021167759    0.0060612071    0.0023324938   8.0994004e-05
    0.015935632      0.92400121   0.00079906269   5.0096468e-22               0               0               0    0.0002124438    0.0051505637    0.0021151356   7.8368352e-05
    0.017269069      0.93531635   0.00089046079  -1.3875502e-21               0               0               0   0.00021313811    0.0043000557    0.0018840048   7.4474495e-05
    0.018647031      0.94632325   0.00098719651               0               0               0               0    0.0002137435    0.0035002757    0.0016397143   6.9313477e-05
    0.020071004      0.95698398    0.0010886647  -3.3079534e-21               0               0               0   0.00021424412    0.0027481466    0.0013839042   6.2911915e-05
    0.021542526       0.9672156    0.0011936779  -3.3079537e-21               0               0               0   0.00021462506       0.0020478    0.0011199591   5.5344845e-05
    0.023063183      0.97686318    0.0013000852   4.0204001e-21               0               0               0   0.00021487853    0.0014125907   0.00085435461    4.678894e-05
    0.024634616      0.98564362    0.0014041265   3.1694144e-20               0               0               0   0.00021501027   0.00086808905   0.00059926425   3.7659619e-05
    0.026258521      0.99305194    0.0014979286   5.5416807e-20               0               0               0   0.00021499242   0.00045171325   0.00037642792    2.897204e-05
     0.02793665      0.99841327    0.0015682197   3.5700425e-20               0               0               0   0.00021468749   0.00019219857   0.00021403415   2.2797375e-05
    0.029670814       1.0014571    0.0016087785    7.957363e-21               0               0               0   0.00021400467   7.1920042e-05   0.00012411885   2.1043374e-05
    0.031462883       1.0027738    0.0016257388   8.4007278e-21               0               0               0   0.00021305188   3.1729068e-05   8.7653635e-05   2.2777201e-05
    0.033314791       1.0032534    0.0016304661   1.9377396e-21               0               0               0   0.00021197778   2.0903024e-05   7.6038234e-05   2.5111249e-05
    0.035228536       1.0034266     0.001631403    -6.46299e-21               0               0               0   0.00021085875   1.8005233e-05   7.2937303e-05   2.6624831e-05
    0.037206184       1.0034914    0.0016307613  -4.9468531e-21               0               0               0   0.00020972259   1.7194798e-05   7.2580935e-05   2.7581351e-05
    0.039249867       1.0035152    0.0016294362  -4.3672084e-20               0               0               0   0.00020856631    1.696952e-05   7.3155509e-05   2.8387863e-05
     0.04136179       1.0035232    0.0016278817  -7.7717329e-20               0               0               0   0.00020737656   1.6909448e-05   7.4041967e-05   2.9182438e-05
    0.043544233       1.0035256    0.0016262458  -3.8992099e-20               0               0               0   0.00020614454   1.6892436e-05   7.5013468e-05   2.9983121e-05
     0.04579955       1.0035262    0.0016245489               0               0               0               0   0.00020486626   1.6883356e-05   7.5989167e-05   3.0784528e-05
    0.048130175       1.0035253    0.0016227824  -3.8080539e-20               0               0               0   0.00020353977   1.6872933e-05    7.694204e-05   3.1580745e-05
    0.050538621       1.0035231    0.0016209569  -6.9839886e-20               0               0               0   0.00020216378   1.6859052e-05   7.7863523e-05   3.2368174e-05
    0.053027488       1.0035201    0.0016191198  -3.1759345e-20               0               0               0   0.00020073723   1.6841552e-05   7.8751233e-05   3.3144666e-05
    0.055599461       1.0035169    0.0016172784  -3.0394258e-20               0               0               0   0.00019925935   1.6820751e-05   7.9604831e-05   3.3908794e-05
    0.058257315       1.0035136     0.001615412   -9.072015e-20               0               0               0   0.00019772983   1.6797062e-05   8.0424669e-05   3.4659477e-05
    0.061003917       1.0035102    0.0016135149  -7.6281086e-20               0               0               0   0.00019614834   1.6770901e-05   8.1211365e-05    3.539582e-05
    0.063842231       1.0035076    0.0016115816   1.3516268e-20               0               0               0   0.00019451379   1.6742659e-05    8.196569e-05   3.6117077e-05
     0.06677532       1.0035082    0.0016096238   7.4651815e-20               0               0               0   0.00019282604   1.6712697e-05   8.2688565e-05   3.6822675e-05
    0.069806347        1.003516    0.0016074336   7.3736378e-20               0               0               0   0.00019108402   1.6681341e-05   8.3381109e-05   3.7512293e-05
    0.072938584       1.0035283    0.0016048167   4.6282583e-20               0               0               0   0.00018928601   1.6648867e-05   8.4044785e-05    3.818603e-05
    0.076175409       1.0035388    0.0016017033   1.7726565e-20               0               0               0   0.00018743141   1.6615504e-05   8.4681753e-05   3.8844755e-05
    0.079520315       1.0035456    0.0015980522               0               0               0               0   0.00018551342   1.6581393e-05   8.5295424e-05   3.9490764e-05
    0.082976911       1.0035503    0.0015939734   5.8269302e-21               0               0               0   0.00018352256   1.6546501e-05   8.5891419e-05    4.012895e-05
    0.086548926       1.0035543    0.0015894956  -6.5100664e-21               0               0               0   0.00018145753   1.6510477e-05   8.6479175e-05   4.0768802e-05
    0.090240215       1.0035584    0.0015845624  -1.2564413e-20               0               0               0   0.00017932429   1.6472397e-05   8.7074365e-05     4.14276e-05
     0.09405476       1.0035623    0.0015791224   8.1168434e-21               0               0               0   0.00017713281   1.6430349e-05   8.7702195e-05     4.21351e-05
