#      distance             U_x             U_y             U_z wallShearStr... wallShearStr... wallShearStr...               p         epsilon               k             nut
  5.5511169e-17       0.9995809   2.5032895e-22               0               0               0               0    0.0042115327   3.3910886e-05   0.00014168706   5.3280903e-05
   0.0021021021      0.99956924   2.5032895e-22               0               0               0               0    0.0042231485   3.3903247e-05    0.0001416056   5.3231651e-05
   0.0042042042      0.99955758   2.5032895e-22               0               0               0               0    0.0042347643   3.3895608e-05   0.00014152414   5.3182398e-05
   0.0063063063      0.99954592   2.5032895e-22               0               0               0               0    0.0042463801    3.388797e-05   0.00014144268   5.3133146e-05
   0.0084084084      0.99953425   2.5032895e-22               0               0               0               0    0.0042579958   3.3880331e-05   0.00014136122   5.3083894e-05
    0.010510511      0.99952259   2.5032895e-22               0               0               0               0    0.0042696116   3.3872692e-05   0.00014127976   5.3034641e-05
    0.012612613      0.99951093   2.5032895e-22               0               0               0               0    0.0042812274   3.3865053e-05    0.0001411983   5.2985389e-05
    0.014714715      0.99949927   2.5032895e-22               0               0               0               0    0.0042928432   3.3857414e-05   0.00014111684   5.2936137e-05
    0.016816817       0.9994876   2.5032895e-22               0               0               0               0     0.004304459   3.3849775e-05   0.00014103538   5.2886884e-05
    0.018918919      0.99947594   2.5032895e-22               0               0               0               0    0.0043160748   3.3842137e-05   0.00014095392   5.2837632e-05
    0.021021021      0.99946428   2.5032895e-22               0               0               0               0    0.0043276906   3.3834498e-05   0.00014087247    5.278838e-05
    0.023123123       0.9994466   3.8215595e-22               0               0               0               0    0.0043453966   3.3828361e-05   0.00014078929   5.2735711e-05
    0.025225225      0.99942872   3.8215595e-22               0               0               0               0    0.0043633017   3.3822273e-05   0.00014070605    5.268293e-05
    0.027327327      0.99941085   3.8215595e-22               0               0               0               0    0.0043812068   3.3816185e-05   0.00014062282   5.2630149e-05
    0.029429429      0.99939297   3.8215595e-22               0               0               0               0    0.0043991118   3.3810098e-05   0.00014053959   5.2577368e-05
    0.031531532       0.9993751   3.8215595e-22               0               0               0               0    0.0044170169    3.380401e-05   0.00014045635   5.2524588e-05
    0.033633634      0.99935722   3.8215595e-22               0               0               0               0     0.004434922   3.3797922e-05   0.00014037312   5.2471807e-05
    0.035735736      0.99933935   3.8215595e-22               0               0               0               0    0.0044528271   3.3791835e-05   0.00014028988   5.2419026e-05
    0.037837838      0.99932147   3.8215595e-22               0               0               0               0    0.0044707322   3.3785747e-05   0.00014020665   5.2366245e-05
     0.03993994      0.99930359   3.8215595e-22               0               0               0               0    0.0044886373   3.3779659e-05   0.00014012342   5.2313465e-05
    0.042042042      0.99928572   3.8215595e-22               0               0               0               0    0.0045065424   3.3773571e-05   0.00014004018   5.2260684e-05
    0.044144144      0.99926784   3.8215595e-22               0               0               0               0    0.0045244475   3.3767484e-05   0.00013995695   5.2207903e-05
    0.046246246      0.99924997   3.8215595e-22               0               0               0               0    0.0045423526   3.3761396e-05   0.00013987371   5.2155122e-05
    0.048348348      0.99922596   5.7819796e-22               0               0               0               0    0.0045661574   3.3757627e-05   0.00013978913   5.2097925e-05
     0.05045045      0.99919895   5.7819796e-22               0               0               0               0    0.0045928589   3.3754998e-05   0.00013970389    5.203856e-05
    0.052552553      0.99917193   5.7819796e-22               0               0               0               0    0.0046195604   3.3752368e-05   0.00013961866   5.1979195e-05
    0.054654655      0.99914492   5.7819796e-22               0               0               0               0    0.0046462619   3.3749738e-05   0.00013953342    5.191983e-05
    0.056756757       0.9991179   5.7819796e-22               0               0               0               0    0.0046729633   3.3747108e-05   0.00013944818   5.1860465e-05
    0.058858859      0.99909089   5.7819796e-22               0               0               0               0    0.0046996648   3.3744478e-05   0.00013936294     5.18011e-05
    0.060960961      0.99906387   5.7819796e-22               0               0               0               0    0.0047263663   3.3741848e-05    0.0001392777   5.1741735e-05
    0.063063063      0.99903686   5.7819796e-22               0               0               0               0    0.0047530678   3.3739218e-05   0.00013919246    5.168237e-05
    0.065165165      0.99900984   5.7819796e-22               0               0               0               0    0.0047797693   3.3736588e-05   0.00013910722   5.1623005e-05
    0.067267267      0.99897246   8.3065758e-22               0               0               0               0    0.0048176535   3.3738473e-05   0.00013901964    5.155524e-05
    0.069369369      0.99893332   8.3065758e-22               0               0               0               0    0.0048574361   3.3741123e-05   0.00013893166    5.148605e-05
    0.071471471      0.99889418   8.3065758e-22               0               0               0               0    0.0048972186   3.3743774e-05   0.00013884369    5.141686e-05
    0.073573574      0.99885504   8.3065758e-22               0               0               0               0    0.0049370012   3.3746424e-05   0.00013875571   5.1347669e-05
    0.075675676       0.9988159   8.3065758e-22               0               0               0               0    0.0049767837   3.3749075e-05   0.00013866774   5.1278479e-05
    0.077777778      0.99877676   8.3065758e-22               0               0               0               0    0.0050165663   3.3751725e-05   0.00013857976   5.1209289e-05
     0.07987988      0.99872307   1.4354398e-21               0               0               0               0    0.0050671662   3.3757666e-05   0.00013849041   5.1134286e-05
    0.081981982      0.99865674   1.4354398e-21               0               0               0               0    0.0051271654   3.3766466e-05   0.00013839986   5.1054232e-05
    0.084084084      0.99859041   1.4354398e-21               0               0               0               0    0.0051871646   3.3775266e-05   0.00013830931   5.0974178e-05
    0.086186186      0.99852408   1.4354398e-21               0               0               0               0    0.0052471638   3.3784066e-05   0.00013821875   5.0894124e-05
    0.088288288      0.99845764   1.9672632e-21               0               0               0               0    0.0053073775   3.3795668e-05   0.00013812818   5.0810316e-05
     0.09039039      0.99836598   1.9672632e-21               0               0               0               0    0.0054141588   3.4415694e-05   0.00013803309   4.9911459e-05
    0.092492492      0.99827432   1.9672632e-21               0               0               0               0    0.0055209401   3.5035721e-05     0.000137938   4.9012603e-05
    0.094594595      0.99818266   1.9672632e-21               0               0               0               0    0.0056277214   3.5655748e-05    0.0001378429   4.8113746e-05
    0.096696697      0.83591104   1.0404447e-20               0   -9.906368e-05  -5.4728952e-08   5.8838594e-23    0.0057613233   0.00043687981   0.00014535215   3.9670721e-05
    0.098798799       0.6215248   1.0404447e-20               0  -0.00022996031  -1.2704441e-07   1.3658428e-22    0.0059035437   0.00096683328   0.00015530496   2.8803466e-05
      0.1009009      0.35550763   3.2904131e-20               0  -0.00040647953  -2.3489592e-07   1.8341007e-22    0.0060257595    0.0018972993   0.00017982461   1.6114729e-05
       0.103003     0.020649218   3.2904131e-20               0  -0.00064382888  -3.9012884e-07   1.8900935e-22    0.0061213027    0.0033617822   0.00022376673   9.9734844e-07
     0.10510511   1.1035483e-16   3.5826859e-20  -2.6035798e-36  -0.00072450827  -5.3042305e-07   7.8778181e-23    0.0061262751    0.0050989021   0.00029127966   9.2229583e-08
     0.10720721     1.10024e-16    5.428355e-20               0  -0.00079857574   -7.023772e-07   4.6036221e-22    0.0061195338    0.0073514598   0.00037179435    1.227213e-07
     0.10930931     1.10024e-16    5.428355e-20               0  -0.00087811645  -9.2282453e-07   1.5839062e-21    0.0061042327     0.010343145   0.00046932344   1.5560238e-07
     0.11141141   1.0961817e-16   7.3351858e-20               0  -0.00096291389  -1.1907795e-06   1.1770634e-20    0.0061037131     0.014856744   0.00059467154    1.909381e-07
     0.11351351   1.0912799e-16   9.3466892e-20               0   -0.0010497662  -1.4758226e-06   1.9131553e-20    0.0061079818     0.020211045   0.00073369249   2.2727449e-07
     0.11561562   1.0912799e-16   9.3466892e-20               0   -0.0011404987  -1.7894957e-06   5.5396851e-21    0.0061188644     0.027755469   0.00090539262   2.6560122e-07
     0.11771772   1.0854566e-16   1.0785047e-19  -1.7686625e-33   -0.0012326101  -2.1029134e-06   -6.917808e-21     0.006127023     0.037154638    0.0010997919   3.0481038e-07
     0.11981982   1.0854566e-16   1.0785047e-19  -1.7686625e-33   -0.0013260717  -2.4160809e-06  -1.8264575e-20    0.0061325144     0.048369886    0.0013164171   3.4488359e-07
     0.12192192   1.0785988e-16   1.1668789e-19  -3.2891849e-35   -0.0014196146  -2.8089484e-06   1.6061812e-20    0.0061274823     0.063148725    0.0015686676   3.8557352e-07
     0.12402402   1.0785988e-16   1.1668789e-19  -3.2891849e-35   -0.0015131816  -3.2254069e-06   6.3907305e-20    0.0061193353     0.078982377    0.0018314632     4.26446e-07
     0.12612613   1.0706756e-16   1.4216716e-19               0   -0.0016038306  -3.7824184e-06   6.4523494e-20    0.0060914679      0.10000402     0.002135883   4.6697322e-07
     0.12822823   1.0616229e-16   1.6922024e-19               0   -0.0016935478  -4.3493198e-06   7.3761197e-20    0.0060612457      0.12186342    0.0024455567   5.0726499e-07
     0.13033033   1.0616229e-16   1.6922024e-19               0   -0.0017779467  -4.9624409e-06   1.3913232e-19     0.006018736      0.14826495    0.0027828674   5.4617633e-07
     0.13243243   1.0514157e-16   1.9543738e-19               0     -0.00186008  -5.5795178e-06   1.8852295e-19    0.0059737329       0.1757509    0.0031241423   5.8438641e-07
     0.13453453   1.0514157e-16   1.9543738e-19               0   -0.0019352108  -6.2088208e-06     1.88523e-19    0.0059210235      0.20658845    0.0034776692   6.2042914e-07
     0.13663664   1.0400884e-16   2.2005946e-19               0   -0.0020069733  -6.8324172e-06   1.1826772e-19    0.0058649679      0.23819107    0.0038301621   6.5533571e-07
     0.13873874   1.0400884e-16   2.2005946e-19               0   -0.0020703975  -7.4418868e-06  -1.2590434e-19     0.005800629      0.27168762     0.004180095   6.8742971e-07
     0.14084084   1.0277196e-16   2.4208235e-19               0   -0.0021302566  -8.0355403e-06  -3.0393416e-19    0.0057336909      0.30525507    0.0045236287   7.1825151e-07
     0.14294294   1.0277196e-16   2.4208235e-19               0   -0.0021805196  -8.5866225e-06  -3.0393425e-19    0.0056597568      0.33901335    0.0048499383   7.4564899e-07
     0.14504505   1.0144252e-16   2.6043718e-19               0     -0.00222818  -9.1196458e-06  -2.2304181e-19    0.0055846075      0.37233622    0.0051684652   7.7207454e-07
     0.14714715   1.0144252e-16   2.6043718e-19               0   -0.0022648933  -9.5767085e-06   1.9810526e-19    0.0055043473      0.40382762    0.0054542556   7.9441193e-07
     0.14924925   1.0003521e-16   2.7408513e-19               0    -0.002300966  -1.0027982e-05   5.9844581e-19    0.0054239266      0.43510115    0.0057374827   8.1649972e-07
     0.15135135   1.0003521e-16   2.7408513e-19               0   -0.0023247131  -1.0367865e-05   5.9843766e-19    0.0053404176      0.46218267    0.0059713882   8.3378504e-07
     0.15345345   1.0003521e-16   2.7408513e-19               0   -0.0023484602  -1.0707748e-05   5.9842952e-19    0.0052569087      0.48926419    0.0062052937   8.5107036e-07
     0.15555556   9.8566889e-17   2.8277266e-19               0   -0.0023624791  -1.0934912e-05   6.3176586e-19    0.0051730552      0.51151504    0.0063918113   8.6439885e-07
     0.15765766   9.8566889e-17   2.8277266e-19               0   -0.0023746575   -1.114075e-05   6.7141094e-19    0.0050891366      0.53285192    0.0065693631   8.7697871e-07
     0.15975976   9.7054799e-17   2.8517607e-19               0    -0.002381218  -1.1272131e-05   6.8867878e-19    0.0050063732      0.55056604    0.0067149605   8.8715398e-07
     0.16186186   9.7054799e-17   2.8517607e-19               0   -0.0023834455  -1.1346083e-05   6.8868658e-19    0.0049245009      0.56548585    0.0068359109   8.9547455e-07
     0.16396396   9.5518043e-17   2.8264288e-19               0   -0.0023842001  -1.1396022e-05   6.2653645e-19    0.0048433278      0.57930306    0.0069476033   9.0313412e-07
     0.16606607   9.5518043e-17   2.8264288e-19               0   -0.0023796795  -1.1359957e-05   3.4176068e-19     0.004764659      0.58917115    0.0070261376    9.084262e-07
     0.16816817   9.5518043e-17   2.8264288e-19               0   -0.0023751589  -1.1323892e-05   5.6984913e-20    0.0046859903      0.59903924    0.0071046719   9.1371828e-07
     0.17027027   9.3969234e-17   2.7490961e-19               0   -0.0023653562  -1.1201619e-05   6.3285977e-20    0.0046104661      0.60417727    0.0071453612    9.164454e-07
     0.17237237   9.3969234e-17   2.7490961e-19               0   -0.0023542321  -1.1057779e-05   1.4240473e-19    0.0045357285        0.608132    0.0071765828   9.1853085e-07
     0.17447447   9.2429193e-17   2.6215402e-19               0   -0.0023416025  -1.0888202e-05   2.1885448e-19    0.0044626797      0.61057462    0.0071958726   9.1982005e-07
     0.17657658   9.2429193e-17   2.6215402e-19               0   -0.0023255779   -1.066059e-05   2.8928581e-19    0.0043934386      0.60960753    0.0071882566   9.1931376e-07
     0.17867868   9.2429193e-17   2.6215402e-19               0   -0.0023095532  -1.0432978e-05   3.5971714e-19    0.0043241976      0.60864044    0.0071806407   9.1880748e-07
     0.18078078   9.0910688e-17   2.4579697e-19               0   -0.0022925004  -1.0167706e-05   4.1410925e-19    0.0042592919      0.60619292    0.0071613256   9.1751939e-07
     0.18288288   9.0910688e-17   2.4579697e-19               0   -0.0022750824  -9.8890636e-06    4.628065e-19    0.0041959254      0.60321977    0.0071378566   9.1595372e-07
     0.18498498   8.9427477e-17    2.260507e-19               0   -0.0022575622  -9.6066337e-06   5.0117824e-19    0.0041330063       0.6000761     0.007113023   9.1429554e-07
     0.18708709   8.9427477e-17    2.260507e-19               0   -0.0022390064  -9.2858155e-06   4.3488311e-19    0.0040746229      0.59520399    0.0070743556   9.1169949e-07
     0.18918919   8.9427477e-17    2.260507e-19               0   -0.0022204505  -8.9649973e-06   3.6858797e-19    0.0040162396      0.59033189    0.0070356883   9.0910345e-07
     0.19129129   8.7994557e-17   2.0330294e-19               0   -0.0022018254  -8.6353369e-06   2.5726606e-19    0.0039597485      0.58505889    0.0069936974   9.0627336e-07
     0.19339339   8.7994557e-17   2.0330294e-19               0   -0.0021830775  -8.2899742e-06   6.5983906e-20    0.0039066179        0.579074    0.0069458045   9.0302763e-07
      0.1954955   8.7994557e-17   2.0330294e-19               0   -0.0021643296  -7.9446115e-06  -1.2529824e-19    0.0038534873       0.5730891    0.0068979115   8.9978191e-07
      0.1975976   8.6629478e-17   1.7877055e-19               0    -0.002145892  -7.5973662e-06  -2.1197735e-19    0.0038036516      0.56685041    0.0068476996   8.9635677e-07
      0.1996997   8.6629478e-17   1.7877055e-19               0   -0.0021277116   -7.248561e-06  -2.1197744e-19    0.0037565461      0.56040141     0.006795566   8.9278296e-07
      0.2018018   8.6629478e-17   1.7877055e-19               0   -0.0021095312  -6.8997559e-06  -2.1197752e-19    0.0037094406       0.5539524    0.0067434325   8.8920915e-07
      0.2039039   8.5346684e-17   1.5373713e-19               0   -0.0020920799  -6.5584199e-06   -1.538172e-19    0.0036662091      0.54752402     0.006691086   8.8559111e-07
     0.20600601   8.5346684e-17   1.5373713e-19               0   -0.0020750263  -6.2211587e-06  -6.3927421e-20    0.0036250912      0.54110689    0.0066386234   8.8194894e-07
     0.20810811   8.5346684e-17   1.5373713e-19               0   -0.0020579727  -5.8838976e-06   2.5962355e-20    0.0035839733      0.53468975    0.0065861608   8.7830677e-07
     0.21021021   8.4157628e-17   1.2883236e-19               0   -0.0020419237  -5.5601972e-06   5.6696145e-20    0.0035466316      0.52853358    0.0065354528   8.7475649e-07
     0.21231231   8.4157628e-17   1.2883236e-19               0   -0.0020263965  -5.2435422e-06   5.6696169e-20    0.0035112518        0.522513    0.0064856565   8.7125394e-07
     0.21441441   8.4157628e-17   1.2883236e-19               0   -0.0020108693  -4.9268872e-06   5.6696192e-20    0.0034758719      0.51649242    0.0064358601   8.6775139e-07
     0.21651652   8.3071356e-17   1.0474738e-19               0   -0.0019963796  -4.6258766e-06   4.6387818e-20    0.0034437369      0.51084969    0.0063888959    8.644246e-07
     0.21861862   8.3071356e-17   1.0474738e-19               0   -0.0019826493  -4.3363187e-06   2.8532988e-20    0.0034139773      0.50548359    0.0063440051   8.6122648e-07
     0.22072072   8.3071356e-17   1.0474738e-19               0    -0.001968919  -4.0467609e-06   1.0678158e-20    0.0033842178      0.50011749    0.0062991143   8.5802837e-07
     0.22282282   8.2093606e-17   8.1981951e-20               0   -0.0019559745  -3.7702066e-06               0     0.003356635      0.49508237    0.0062568304   8.5500286e-07
     0.22492492   8.2093606e-17   8.1981951e-20               0   -0.0019441993  -3.5130003e-06               0     0.003332291      0.49053972    0.0062184251   8.5223416e-07
     0.22702703   8.2093606e-17   8.1981951e-20               0    -0.001932424   -3.255794e-06               0     0.003307947      0.48599707    0.0061800199   8.4946546e-07
     0.22912913   8.1226874e-17    6.128286e-20               0   -0.0019209081  -3.0034969e-06  -2.7144485e-23    0.0032842537      0.48157252    0.0061425763   8.4676309e-07
     0.23123123   8.1226874e-17    6.128286e-20               0   -0.0019111433  -2.7843493e-06  -2.3758131e-22    0.0032649538      0.47794538    0.0061116263   8.4450855e-07
     0.23333333   8.1226874e-17    6.128286e-20               0   -0.0019013786  -2.5652016e-06  -4.4801814e-22    0.0032456539      0.47431824    0.0060806762   8.4225401e-07
     0.23543544   8.1226874e-17    6.128286e-20               0   -0.0018916139   -2.346054e-06  -6.5845497e-22     0.003226354       0.4706911    0.0060497262   8.3999947e-07
     0.23753754   8.0469826e-17    4.347729e-20               0   -0.0018833261  -2.1591977e-06  -5.3997409e-21    0.0032103576      0.46776988    0.0060246677    8.381632e-07
     0.23963964   8.0469826e-17    4.347729e-20               0   -0.0018755163  -1.9827926e-06  -1.1607461e-20    0.0031954303      0.46507714     0.006001516   8.3646231e-07
     0.24174174   8.0469826e-17    4.347729e-20               0   -0.0018677065  -1.8063876e-06  -1.7815182e-20    0.0031805031       0.4623844    0.0059783644   8.3476141e-07
     0.24384384   7.9815068e-17   2.9267575e-20               0   -0.0018603898  -1.6427266e-06  -2.2239955e-20    0.0031665798      0.45993435    0.0059572744   8.3320989e-07
     0.24594595   7.9815068e-17   2.9267575e-20               0   -0.0018543515  -1.5121083e-06  -2.2041886e-20    0.0031552595      0.45811357    0.0059415298   8.3204569e-07
     0.24804805   7.9815068e-17   2.9267575e-20               0   -0.0018483132  -1.3814901e-06  -2.1843817e-20    0.0031439392      0.45629279    0.0059257852   8.3088148e-07
     0.25015015   7.9815068e-17   2.9267575e-20               0   -0.0018422749  -1.2508718e-06  -2.1645748e-20    0.0031326189      0.45447201    0.0059100406   8.2971728e-07
     0.25225225   7.9249352e-17   1.9283403e-20               0   -0.0018372532  -1.1515851e-06  -1.1042425e-20    0.0031231872       0.4531539    0.0058986168   8.2887039e-07
     0.25435435   7.9249352e-17   1.9283403e-20               0   -0.0018326791  -1.0660898e-06   4.1410873e-21    0.0031145869      0.45205705    0.0058890949   8.2816317e-07
     0.25645646   7.9249352e-17   1.9283403e-20               0    -0.001828105  -9.8059455e-07     1.93246e-20    0.0031059867      0.45096021     0.005879573   8.2745596e-07
     0.25855856   7.8755705e-17   1.3502439e-20               0   -0.0018235312  -8.9510992e-07   3.4501834e-20    0.0030973867       0.4498635    0.0058700523   8.2674883e-07
     0.26066066   7.8755705e-17   1.3502439e-20               0   -0.0018200251  -8.4853452e-07   2.6672844e-20    0.0030901874       0.4492732    0.0058649153   8.2636624e-07
     0.26276276   7.8755705e-17   1.3502439e-20               0   -0.0018165191  -8.0195912e-07   1.8843854e-20    0.0030829881      0.44868291    0.0058597783   8.2598364e-07
     0.26486486   7.8755705e-17   1.3502439e-20               0   -0.0018130131  -7.5538372e-07   1.1014864e-20    0.0030757888      0.44809261    0.0058546413   8.2560105e-07
     0.26696697   7.8315393e-17   1.1243917e-20               0   -0.0018096324  -7.1436562e-07   3.0003326e-21    0.0030686247      0.44755274    0.0058499424   8.2525101e-07
     0.26906907   7.8315393e-17   1.1243917e-20               0   -0.0018067765   -6.966298e-07  -5.7915202e-21    0.0030616082      0.44722415    0.0058470786   8.2503736e-07
     0.27117117   7.8315393e-17   1.1243917e-20               0   -0.0018039205  -6.7889397e-07  -1.4583373e-20    0.0030545917      0.44689555    0.0058442148   8.2482371e-07
     0.27327327   7.8315393e-17   1.1243917e-20               0   -0.0018010646  -6.6115815e-07  -2.3375226e-20    0.0030475751      0.44656696     0.005841351   8.2461007e-07
     0.27537538   7.7910761e-17    1.143189e-20               0    -0.001798288  -6.4804343e-07  -2.7833583e-20    0.0030404274       0.4462511    0.0058385974   8.2440459e-07
     0.27747748   7.7910761e-17    1.143189e-20               0   -0.0017957279  -6.4754128e-07  -2.0464318e-20    0.0030329216      0.44596999    0.0058361446   8.2422139e-07
     0.27957958   7.7910761e-17    1.143189e-20               0   -0.0017931677  -6.4703912e-07  -1.3095053e-20    0.0030254157      0.44568888    0.0058336919    8.240382e-07
     0.28168168   7.7910761e-17    1.143189e-20               0   -0.0017906076  -6.4653697e-07  -5.7257873e-21    0.0030179099      0.44540777    0.0058312391     8.23855e-07
     0.28378378    7.752835e-17   1.2824057e-20               0   -0.0017880622  -6.4752283e-07   2.5793039e-22    0.0030102511       0.4451066    0.0058286105    8.236586e-07
     0.28588589    7.752835e-17   1.2824057e-20               0   -0.0017855687  -6.5369281e-07   1.4144761e-21    0.0030020594      0.44473553     0.005825369   8.2341621e-07
     0.28798799    7.752835e-17   1.2824057e-20               0   -0.0017830751  -6.5986279e-07   2.5710218e-21    0.0029938676      0.44436446    0.0058221276   8.2317381e-07
     0.29009009    7.752835e-17   1.2824057e-20               0   -0.0017805815  -6.6603277e-07   3.7275675e-21    0.0029856759      0.44399339    0.0058188862   8.2293141e-07
     0.29219219   7.7159864e-17   1.4363435e-20               0   -0.0017780863  -6.7216948e-07   4.8221035e-21    0.0029774614      0.44361486    0.0058155792   8.2268409e-07
     0.29429429   7.7159864e-17   1.4363435e-20               0   -0.0017755628  -6.7771912e-07   4.8221062e-21    0.0029688454      0.44310462    0.0058111157   8.2234977e-07
      0.2963964   7.7159864e-17   1.4363435e-20               0   -0.0017730394  -6.8326875e-07    4.822109e-21    0.0029602295      0.44259438    0.0058066521   8.2201545e-07
      0.2984985   7.7159864e-17   1.4363435e-20               0   -0.0017705159  -6.8881838e-07   4.8221118e-21    0.0029516135      0.44208413    0.0058021885   8.2168113e-07
      0.3006006   7.7159864e-17   1.4363435e-20               0   -0.0017679925  -6.9436801e-07   4.8221146e-21    0.0029429976      0.44157389     0.005797725   8.2134681e-07
      0.3027027   7.6801234e-17   1.5400606e-20               0   -0.0017654465  -6.9684464e-07   3.9989789e-21    0.0029344237      0.44097165    0.0057924489   8.2095097e-07
      0.3048048   7.6801234e-17   1.5400606e-20               0   -0.0017628933   -6.983301e-07   2.9103486e-21    0.0029258634      0.44033973    0.0057869107   8.2053529e-07
     0.30690691   7.6801234e-17   1.5400606e-20               0   -0.0017603401  -6.9981556e-07   1.8217182e-21     0.002917303      0.43970782    0.0057813725   8.2011961e-07
     0.30900901   7.6801234e-17   1.5400606e-20               0   -0.0017577869  -7.0130103e-07   7.3308789e-22    0.0029087427       0.4390759    0.0057758343   8.1970394e-07
     0.31111111   7.6450964e-17     1.57061e-20               0   -0.0017552381   -7.014444e-07               0    0.0029002782      0.43841968    0.0057700785   8.1927154e-07
     0.31321321   7.6450964e-17     1.57061e-20               0   -0.0017526984  -6.9882055e-07               0     0.002892011      0.43771333    0.0057638741   8.1880468e-07
     0.31531532   7.6450964e-17     1.57061e-20               0   -0.0017501586  -6.9619669e-07               0    0.0028837438      0.43700699    0.0057576697   8.1833783e-07
     0.31741742   7.6450964e-17     1.57061e-20               0   -0.0017476189  -6.9357283e-07               0    0.0028754767      0.43630064    0.0057514653   8.1787097e-07
     0.31951952   7.6450964e-17     1.57061e-20               0   -0.0017450791  -6.9094898e-07               0    0.0028672095       0.4355943    0.0057452609   8.1740411e-07
     0.32162162   7.6108282e-17   1.5460897e-20               0   -0.0017425807  -6.8670841e-07               0    0.0028591118      0.43486509    0.0057388432   8.1692014e-07
     0.32372372   7.6108282e-17   1.5460897e-20               0   -0.0017400952  -6.8196005e-07               0    0.0028510672      0.43412869    0.0057323585    8.164308e-07
     0.32582583   7.6108282e-17   1.5460897e-20               0   -0.0017376098  -6.7721169e-07               0    0.0028430227      0.43339229    0.0057258737   8.1594146e-07
     0.32792793   7.6108282e-17   1.5460897e-20               0   -0.0017351243  -6.7246334e-07               0    0.0028349781       0.4326559     0.005719389   8.1545212e-07
     0.33003003   7.5771895e-17   1.5007052e-20               0   -0.0017326428  -6.6771335e-07               0      0.00282694      0.43191927    0.0057129012   8.1496247e-07
     0.33213213   7.5771895e-17   1.5007052e-20               0   -0.0017302296  -6.6293542e-07               0    0.0028190116      0.43117866    0.0057063617   8.1446749e-07
     0.33423423   7.5771895e-17   1.5007052e-20               0   -0.0017278164   -6.581575e-07               0    0.0028110832      0.43043806    0.0056998222   8.1397251e-07
     0.33633634   7.5771895e-17   1.5007052e-20               0   -0.0017254032  -6.5337957e-07               0    0.0028031548      0.42969745    0.0056932827   8.1347753e-07
     0.33843844   7.5771895e-17   1.5007052e-20               0     -0.00172299  -6.4860165e-07               0    0.0027952264      0.42895684    0.0056867432   8.1298255e-07
     0.34054054   7.5439979e-17   1.4613963e-20               0   -0.0017205912  -6.4403884e-07               0    0.0027873139      0.42821713    0.0056802078   8.1248755e-07
     0.34264264   7.5439979e-17   1.4613963e-20               0   -0.0017182485  -6.4031204e-07               0    0.0027794632      0.42748085    0.0056736882    8.119925e-07
     0.34474474   7.5439979e-17   1.4613963e-20               0   -0.0017159058  -6.3658525e-07               0    0.0027716125      0.42674458    0.0056671685   8.1149746e-07
     0.34684685   7.5439979e-17   1.4613963e-20               0   -0.0017135632  -6.3285845e-07               0    0.0027637618      0.42600831    0.0056606489   8.1100241e-07
     0.34894895   7.5439979e-17   1.4613963e-20               0   -0.0017112205  -6.2913165e-07               0     0.002755911      0.42527203    0.0056541292   8.1050736e-07
     0.35105105   7.5110831e-17   1.4377425e-20               0   -0.0017088908  -6.2560814e-07               0    0.0027480945      0.42453684    0.0056476153   8.1001241e-07
     0.35315315   7.5110831e-17   1.4377425e-20               0   -0.0017066114   -6.228721e-07               0    0.0027404105      0.42380582    0.0056411232   8.0951784e-07