/*--------------------------------*- C++ -*----------------------------------*\
  =========                 |
  \\      /  F ield         | OpenFOAM: The Open Source CFD Toolbox
   \\    /   O peration     | Website:  https://openfoam.org
    \\  /    A nd           | Version:  12
     \\/     M anipulation  |
\*---------------------------------------------------------------------------*/
FoamFile
{
    format      ascii;
    class       volScalarField;
    location    "500";
    object      k;
}
// * * * * * * * * * * * * * * * * * * * * * * * * * * * * * * * * * * * * * //

dimensions      [0 2 -2 0 0 0 0];

internalField   nonuniform List<scalar> 
7480
(
6.2533614e-07
6.1023623e-07
5.9557939e-07
5.8311192e-07
5.7432084e-07
5.7038073e-07
5.7269541e-07
5.7919331e-07
5.9096425e-07
6.0528315e-07
6.3379699e-07
6.1748381e-07
5.4540394e-05
0.0014640113
0.0037595494
0.0058282097
0.0072547437
0.0080449887
0.0084669462
0.0084518361
0.0083615414
0.0081941523
0.0079884696
0.0077713284
0.0075517292
0.0073341261
0.0071225868
0.0069226186
0.0067396252
0.0065709832
0.006416445
0.0062765371
0.006151461
0.0060407912
0.0059435228
0.0058583211
0.0057835985
0.0057178725
0.0056601408
0.00560965
0.0055654058
0.0055262394
0.0054911243
0.0054590433
0.005429557
0.0054013693
0.0053742173
0.0053476608
0.0053212691
0.0052947598
0.0052678263
0.0052401041
0.0052113574
0.0051815793
0.0051509413
0.0051196768
0.0050880104
0.0050561701
0.0050243585
0.0049927076
0.0049612809
0.0049301099
0.0048992367
0.0048687329
0.0048386684
0.0048090802
0.0047800039
0.0047514651
0.0047234327
0.0046958299
0.0046685997
0.0046417343
0.0046152463
0.0045891422
0.0045634419
0.0045381683
0.0045132964
0.0044887706
0.0044645564
0.0044406539
0.0044170729
0.0043938327
0.0043709477
0.004348391
0.0043261182
0.0043041162
0.004282384
0.0042609355
0.0042397855
0.0042189096
0.0041982724
0.0041778629
0.0041576876
0.0041377348
0.0041180274
0.0040983755
0.0040791656
0.0040588633
0.0040416853
0.0040102999
6.2555531e-07
6.2178426e-07
6.1788217e-07
6.1383331e-07
6.0962839e-07
6.0527254e-07
6.0078366e-07
5.9623216e-07
5.9140493e-07
5.8731811e-07
5.7961396e-07
6.1931312e-07
3.4655964e-07
1.4029606e-05
8.5208632e-05
0.000283607
0.00060129467
0.00096867966
0.0013226134
0.0016042279
0.0018121716
0.0019678974
0.0020992318
0.0022249489
0.0023816524
0.0025549945
0.0027521297
0.0030002672
0.0032669903
0.0035413878
0.0038140609
0.0040763192
0.0043204421
0.0045405556
0.004733005
0.0048968446
0.0050317182
0.0051411311
0.0052319478
0.0053079754
0.0053685989
0.0054143884
0.0054472909
0.0054678265
0.0054800142
0.0054781887
0.0054708468
0.0054571841
0.005438136
0.0054146386
0.0053873239
0.0053566761
0.0053238369
0.0052902064
0.0052569131
0.0052245609
0.0051934377
0.0051636914
0.0051349126
0.0051068211
0.0050793569
0.0050525548
0.0050264229
0.0050009543
0.0049761442
0.0049519609
0.0049283858
0.004905168
0.0048819442
0.0048585734
0.0048351481
0.0048118259
0.0047887276
0.0047659211
0.004743473
0.0047213198
0.0046992598
0.0046771848
0.0046551492
0.0046332731
0.0046116397
0.0045903203
0.004569259
0.0045483112
0.0045274177
0.0045066324
0.0044860337
0.0044657042
0.0044456066
0.0044256365
0.0044057564
0.0043860054
0.0043664558
0.0043471171
0.0043279203
0.0043088067
0.004289823
0.00427059
0.0042534874
0.0042233297
6.2522168e-07
6.2150863e-07
6.1774129e-07
6.1389627e-07
6.0996786e-07
6.0595488e-07
6.0185476e-07
5.9767563e-07
5.9338106e-07
5.8908438e-07
5.8428432e-07
5.8122419e-07
5.7056737e-07
5.8664428e-07
9.5661552e-07
3.2582834e-06
1.1932963e-05
3.0546923e-05
6.1005989e-05
0.00010249581
0.00015219598
0.00020664056
0.00026311962
0.00031959103
0.00037855372
0.00044190457
0.00051169967
0.00059448997
0.00069383044
0.00081666905
0.00097710573
0.0011595804
0.0013580739
0.0015708385
0.0017966021
0.0020333203
0.0022793085
0.0025333608
0.002786018
0.0030296481
0.003258104
0.0034643264
0.0036443931
0.0038001939
0.0039354869
0.0040541398
0.0041555829
0.0042395965
0.0043075607
0.0043616574
0.0043997761
0.0044265754
0.0044458553
0.0044597634
0.0044693255
0.0044751707
0.0044782017
0.0044793312
0.0044790845
0.0044775945
0.0044750442
0.0044716266
0.0044674745
0.0044627548
0.0044576006
0.004452052
0.0044461256
0.0044394863
0.0044318782
0.0044234104
0.0044142956
0.0044046867
0.0043946901
0.0043843891
0.0043738878
0.0043630636
0.0043516943
0.0043397817
0.0043274812
0.0043149459
0.004302262
0.0042895258
0.0042766326
0.0042634303
0.0042499171
0.0042362057
0.0042224006
0.004208608
0.004194753
0.0041807201
0.0041665095
0.0041522005
0.004137895
0.0041235979
0.0041092122
0.0040947403
0.0040801439
0.0040654721
0.0040520446
0.0040284842
6.4068973e-07
6.3684753e-07
6.3294385e-07
6.2895968e-07
6.2489092e-07
6.2073667e-07
6.1649688e-07
6.1217175e-07
6.077617e-07
6.0326548e-07
5.9868995e-07
5.94013e-07
5.8927249e-07
5.8442699e-07
5.7942097e-07
5.7744782e-07
5.9149862e-07
6.6937187e-07
9.932123e-07
1.8351489e-06
3.4300414e-06
5.9262012e-06
9.414641e-06
1.3960966e-05
1.9672269e-05
2.6813795e-05
3.5719383e-05
4.6936046e-05
6.1204256e-05
7.9488015e-05
0.00010350493
0.00013523217
0.00017772841
0.00023335997
0.00030484544
0.00039569656
0.00051146747
0.00065865556
0.00082652742
0.0010121398
0.0012183843
0.0014463336
0.0016918304
0.0019406882
0.0021846612
0.002418013
0.0026350496
0.0028300841
0.003003857
0.0031569668
0.0032906565
0.0034086029
0.0035087911
0.0035930721
0.0036637255
0.0037230509
0.0037738133
0.0038176284
0.0038539479
0.0038845755
0.0039108325
0.0039337114
0.0039539518
0.0039720337
0.0039881302
0.0040023417
0.0040147871
0.004025534
0.0040345761
0.0040420417
0.00404809
0.0040528549
0.0040564777
0.0040590865
0.0040608064
0.0040614977
0.0040610301
0.004059543
0.0040572327
0.0040542379
0.0040506416
0.004046562
0.0040418533
0.0040364055
0.0040303027
0.0040236976
0.0040166972
0.0040094173
0.0040017412
0.0039935753
0.0039849743
0.0039760486
0.0039669142
0.0039575566
0.0039478697
0.0039379061
0.0039276077
0.0039172456
0.0039074309
0.0038900176
6.5068989e-07
6.4680169e-07
6.4285473e-07
6.3882764e-07
6.347155e-07
6.305172e-07
6.2623262e-07
6.2186191e-07
6.1740538e-07
6.12863e-07
6.0823613e-07
6.0352046e-07
5.9872907e-07
5.9382771e-07
5.8877354e-07
5.8363937e-07
5.7855626e-07
5.7352455e-07
5.6872504e-07
5.6478848e-07
5.633177e-07
5.6738146e-07
5.8241554e-07
6.1734514e-07
6.8555634e-07
8.055592e-07
1.0015397e-06
1.3058615e-06
1.7639143e-06
2.4394626e-06
3.4314124e-06
4.8916709e-06
7.0595462e-06
1.0328312e-05
1.5308548e-05
2.2891301e-05
3.4484852e-05
5.1898828e-05
7.881388e-05
0.00011870101
0.0001750947
0.0002528979
0.00035904929
0.00050157373
0.00066949863
0.00085644453
0.0010630279
0.0012898816
0.0015227801
0.0017539421
0.0019763765
0.0021846825
0.0023731416
0.0025425167
0.0026936674
0.0028283019
0.0029501194
0.0030569161
0.0031491369
0.0032288087
0.0032984471
0.0033603072
0.0034157342
0.0034653097
0.0035095232
0.0035491264
0.0035849281
0.0036167504
0.0036449165
0.0036701016
0.0036926815
0.0037129621
0.0037311913
0.0037475352
0.0037621156
0.0037749916
0.0037862043
0.0037958898
0.0038042052
0.0038112757
0.0038172074
0.0038221399
0.0038259341
0.0038285774
0.0038302241
0.0038310307
0.0038310942
0.0038305348
0.0038292061
0.0038270747
0.0038242526
0.0038208656
0.0038170305
0.0038127076
0.0038078024
0.00380242
0.0037965028
0.0037904631
0.0037843085
0.0037729871
6.5069175e-07
6.4682159e-07
6.4289529e-07
6.3889057e-07
6.3480207e-07
6.3062861e-07
6.2637009e-07
6.220267e-07
6.1759886e-07
6.1308713e-07
6.0849233e-07
6.0381577e-07
5.9905976e-07
5.942283e-07
5.8932199e-07
5.8434529e-07
5.7923783e-07
5.7401588e-07
5.6871522e-07
5.6340652e-07
5.5805642e-07
5.5269099e-07
5.4731912e-07
5.4194137e-07
5.3659867e-07
5.3136918e-07
5.2638176e-07
5.2184233e-07
5.1813825e-07
5.1587592e-07
5.1610125e-07
5.206965e-07
5.332361e-07
5.6061311e-07
6.1649005e-07
7.2653236e-07
9.4216398e-07
1.350413e-06
2.1289134e-06
3.5863157e-06
6.2355474e-06
1.0953152e-05
1.9376882e-05
3.3846935e-05
5.9501085e-05
0.00010107935
0.00016307243
0.00025194112
0.00037554324
0.00052886477
0.0007050911
0.00089859844
0.0011110684
0.0013299797
0.0015449832
0.0017497135
0.0019405678
0.0021141828
0.0022730094
0.002417736
0.0025495186
0.002668969
0.0027749704
0.0028690923
0.002953211
0.0030292648
0.0030983718
0.0031605205
0.0032159438
0.0032656181
0.0033105345
0.0033513408
0.003388388
0.0034219789
0.0034524906
0.0034798945
0.0035044497
0.0035266287
0.0035466728
0.0035647682
0.0035810826
0.0035957652
0.0036088544
0.0036204029
0.0036305502
0.0036394291
0.0036471382
0.0036538057
0.0036593108
0.0036637036
0.0036671274
0.0036697032
0.0036715418
0.0036725893
0.0036727909
0.0036723004
0.0036710621
0.0036695854
0.0036673153
0.0036623634
6.4930822e-07
6.4544636e-07
6.4152813e-07
6.3753149e-07
6.3345119e-07
6.2928607e-07
6.2503604e-07
6.2070131e-07
6.1628227e-07
6.1177947e-07
6.0719366e-07
6.0252595e-07
5.9777825e-07
5.929534e-07
5.8805379e-07
5.8308096e-07
5.7803455e-07
5.7291401e-07
5.6771887e-07
5.6244815e-07
5.5709832e-07
5.5164376e-07
5.4609146e-07
5.4047043e-07
5.3479215e-07
5.2906615e-07
5.2330466e-07
5.1752658e-07
5.1171432e-07
5.0587268e-07
5.0001881e-07
4.9417487e-07
4.8832492e-07
4.8248716e-07
4.7670864e-07
4.7108291e-07
4.6580351e-07
4.6128528e-07
4.5851226e-07
4.5971231e-07
4.7057916e-07
5.0447911e-07
5.9907489e-07
8.3492065e-07
1.4253991e-06
2.8110094e-06
5.7227274e-06
1.1610561e-05
2.2811979e-05
4.4323893e-05
8.224358e-05
0.00014136131
0.00022872841
0.0003519546
0.00050169278
0.00067346798
0.00086090046
0.0010644335
0.0012701282
0.0014680373
0.0016539474
0.0018259269
0.0019834021
0.0021308221
0.0022676649
0.0023946126
0.0025092076
0.0026122987
0.0027051761
0.002789451
0.0028660809
0.0029354993
0.0029982154
0.0030550323
0.0031068458
0.0031538915
0.0031963784
0.0032348549
0.0032698549
0.003301768
0.0033308698
0.0033574164
0.003381297
0.0034028765
0.00342247
0.0034402406
0.0034563259
0.0034708673
0.0034839099
0.0034955155
0.0035058102
0.0035149053
0.0035229092
0.003529794
0.0035355657
0.0035404055
0.0035442492
0.003547687
0.003549613
0.0035514854
6.4925851e-07
6.4539414e-07
6.4147292e-07
6.3747296e-07
6.3338907e-07
6.2922013e-07
6.2496604e-07
6.2062701e-07
6.1620341e-07
6.1169572e-07
6.0710457e-07
6.0243079e-07
5.9767556e-07
5.9284026e-07
5.8792623e-07
5.8293468e-07
5.7786709e-07
5.727252e-07
5.6751074e-07
5.6222503e-07
5.5686946e-07
5.5144485e-07
5.4595184e-07
5.4039168e-07
5.3476591e-07
5.2907615e-07
5.2332376e-07
5.1751004e-07
5.1163448e-07
5.0569443e-07
4.9968212e-07
4.935898e-07
4.8745159e-07
4.8127938e-07
4.7508133e-07
4.6886634e-07
4.6265556e-07
4.5646081e-07
4.5026721e-07
4.4409686e-07
4.3798926e-07
4.3194027e-07
4.2604594e-07
4.2055761e-07
4.1618285e-07
4.1537e-07
4.2469868e-07
4.6659757e-07
6.0340531e-07
1.0194821e-06
2.1971259e-06
4.9428896e-06
1.0994362e-05
2.2993868e-05
4.7617949e-05
9.0993635e-05
0.00015798678
0.00025935838
0.0003917316
0.00054785135
0.00072217927
0.00090980995
0.0011066322
0.0012965393
0.0014752033
0.0016420122
0.0017964237
0.0019428308
0.002080668
0.0022096008
0.002326822
0.0024331688
0.0025300379
0.0026187218
0.0026999712
0.0027738329
0.0028406356
0.0029012152
0.0029563617
0.0030065815
0.0030523206
0.0030941061
0.0031320554
0.0031665298
0.0031979452
0.0032266368
0.0032528677
0.0032768544
0.0032984949
0.0033181409
0.0033360217
0.0033522691
0.0033670023
0.003380307
0.003392229
0.0034029277
0.0034123261
0.0034211032
0.0034276072
0.0034368894
6.4962672e-07
6.4575978e-07
6.4183593e-07
6.3783325e-07
6.3374655e-07
6.2957472e-07
6.2531766e-07
6.2097558e-07
6.1654885e-07
6.1203794e-07
6.0744345e-07
6.0276617e-07
5.9800718e-07
5.9316773e-07
5.8824911e-07
5.8325248e-07
5.7817916e-07
5.7303064e-07
5.6780849e-07
5.6251433e-07
5.5714976e-07
5.5171659e-07
5.4621672e-07
5.4065206e-07
5.3502453e-07
5.2933608e-07
5.235887e-07
5.1778432e-07
5.11925e-07
5.0601277e-07
5.0004958e-07
4.9403684e-07
4.8797673e-07
4.8187187e-07
4.7572499e-07
4.6953869e-07
4.6331537e-07
4.5705629e-07
4.5075959e-07
4.4441173e-07
4.379982e-07
4.3156635e-07
4.2513566e-07
4.1873249e-07
4.1239873e-07
4.0609865e-07
3.9992161e-07
3.9384027e-07
3.8803296e-07
3.8287433e-07
3.8070993e-07
3.872719e-07
4.3021678e-07
5.7923708e-07
1.115821e-06
2.6735866e-06
6.4808511e-06
1.4827309e-05
3.3323082e-05
6.8975056e-05
0.00012773771
0.00021795136
0.0003426083
0.0004913568
0.00065844475
0.00083720543
0.0010248198
0.0012065719
0.0013774221
0.0015376249
0.0016871916
0.0018301976
0.0019657949
0.0020928305
0.0022092897
0.0023159944
0.0024139711
0.0025039069
0.002586075
0.0026608297
0.0027289202
0.0027911986
0.0028479303
0.0028994445
0.0029463159
0.0029891063
0.0030282277
0.0030640424
0.003096583
0.0031262398
0.0031533556
0.0031781722
0.0032008965
0.0032215477
0.0032403043
0.0032574488
0.0032729193
0.0032875197
0.003299057
0.0033164483
6.4997954e-07
6.4611066e-07
6.4218487e-07
6.3818021e-07
6.340915e-07
6.2991763e-07
6.2565848e-07
6.213143e-07
6.1688544e-07
6.1237239e-07
6.0777578e-07
6.0309639e-07
5.9833529e-07
5.9349375e-07
5.885731e-07
5.8357458e-07
5.7849948e-07
5.7334924e-07
5.6812538e-07
5.6282946e-07
5.5746304e-07
5.5202782e-07
5.4652555e-07
5.4095812e-07
5.3532754e-07
5.2963586e-07
5.2388526e-07
5.1807797e-07
5.1221633e-07
5.0630279e-07
5.0033989e-07
4.9433033e-07
4.8827672e-07
4.821817e-07
4.7604794e-07
4.6987815e-07
4.6367501e-07
4.5744117e-07
4.5117933e-07
4.4489189e-07
4.3858032e-07
4.3224705e-07
4.2589473e-07
4.1952611e-07
4.1314093e-07
4.0673969e-07
4.0025293e-07
3.9376277e-07
3.8728766e-07
3.8092801e-07
3.7462798e-07
3.6844613e-07
3.6242513e-07
3.5667701e-07
3.5198061e-07
3.5119001e-07
3.6765102e-07
4.4206687e-07
7.6005767e-07
1.8617348e-06
4.9439663e-06
1.2029327e-05
2.8956527e-05
6.3295034e-05
0.00012151971
0.00021284683
0.00033712227
0.00048538673
0.00065065193
0.00082542516
0.0010056761
0.0011781468
0.0013399259
0.0014922992
0.0016360998
0.0017747503
0.0019067007
0.0020296404
0.0021428458
0.0022471238
0.0023433709
0.0024319819
0.0025129849
0.0025868233
0.002654244
0.0027157765
0.002771877
0.0028231432
0.002869858
0.0029124091
0.0029512452
0.0029867834
0.0030193801
0.0030491252
0.0030762444
0.0031011193
0.0031237711
0.0031451852
0.0031623456
0.0031886441
6.5036481e-07
6.4649362e-07
6.4256545e-07
6.3855836e-07
6.3446716e-07
6.3029072e-07
6.2602896e-07
6.2168211e-07
6.1725053e-07
6.1273472e-07
6.0813529e-07
6.0345304e-07
5.9868896e-07
5.9384429e-07
5.8892034e-07
5.839184e-07
5.788398e-07
5.7368599e-07
5.684585e-07
5.6315891e-07
5.5778881e-07
5.5234989e-07
5.4684393e-07
5.4127279e-07
5.3563846e-07
5.29943e-07
5.2418856e-07
5.1837737e-07
5.1251176e-07
5.0659416e-07
5.0062708e-07
4.946131e-07
4.8855492e-07
4.8245527e-07
4.7631698e-07
4.7014294e-07
4.639361e-07
4.5769947e-07
4.5143612e-07
4.451492e-07
4.38842e-07
4.3251768e-07
4.2617926e-07
4.1982976e-07
4.1347167e-07
4.0710823e-07
4.0073966e-07
3.9436805e-07
3.8799502e-07
3.8162357e-07
3.7525422e-07
3.6882906e-07
3.6238592e-07
3.5597689e-07
3.497107e-07
3.4351794e-07
3.3752206e-07
3.3169923e-07
3.2652367e-07
3.2356559e-07
3.3359273e-07
3.873753e-07
6.5709275e-07
1.6995194e-06
4.8768883e-06
1.2433382e-05
3.1670099e-05
7.0280725e-05
0.00013612968
0.00023618252
0.00036817096
0.0005215686
0.00068840356
0.0008607595
0.0010329531
0.0011945771
0.0013469815
0.0014914457
0.0016302184
0.0017634653
0.0018896424
0.0020066801
0.0021150887
0.0022155922
0.0023084047
0.0023934622
0.0024712272
0.0025425125
0.0026076828
0.0026670573
0.0027211918
0.002770647
0.0028159077
0.0028572217
0.0028948957
0.0029294002
0.0029608701
0.0029905441
0.0030146307
0.0030514719
6.5084266e-07
6.4696851e-07
6.4303733e-07
6.3902713e-07
6.3493274e-07
6.3075303e-07
6.2648793e-07
6.2213765e-07
6.1770257e-07
6.131832e-07
6.0858013e-07
6.0389413e-07
5.9912618e-07
5.9427744e-07
5.893492e-07
5.8434275e-07
5.7925947e-07
5.741008e-07
5.688683e-07
5.6356355e-07
5.5818818e-07
5.527439e-07
5.4723249e-07
5.4165585e-07
5.3601596e-07
5.303149e-07
5.2455482e-07
5.1873798e-07
5.1286669e-07
5.069434e-07
5.0097061e-07
4.949509e-07
4.8888694e-07
4.8278146e-07
4.7663728e-07
4.7045727e-07
4.642444e-07
4.5800165e-07
4.517321e-07
4.4543886e-07
4.391251e-07
4.3279401e-07
4.2644885e-07
4.2009286e-07
4.1372932e-07
4.0736146e-07
4.0099286e-07
3.9462677e-07
3.8826634e-07
3.8191399e-07
3.7557267e-07
3.6924307e-07
3.6292582e-07
3.5662261e-07
3.5033442e-07
3.4406004e-07
3.3771365e-07
3.3138989e-07
3.2518879e-07
3.1909271e-07
3.1320195e-07
3.0749545e-07
3.0229593e-07
2.9937339e-07
3.0880318e-07
3.7544744e-07
7.1229976e-07
2.075753e-06
6.159043e-06
1.6785361e-05
4.3039991e-05
9.2852758e-05
0.0001769741
0.0002929435
0.00043745511
0.00059799233
0.00076497941
0.00093224731
0.0010924076
0.0012434186
0.0013871408
0.0015244832
0.0016574934
0.0017847629
0.0019034765
0.0020138987
0.0021166035
0.0022118277
0.0022994236
0.0023796903
0.0024532748
0.0025205826
0.0025820863
0.0026382622
0.0026895147
0.0027363498
0.0027790139
0.0028190449
0.0028518109
0.0029016078
6.5136962e-07
6.4749231e-07
6.435579e-07
6.3954442e-07
6.3544666e-07
6.3126351e-07
6.2699489e-07
6.2264102e-07
6.182023e-07
6.136792e-07
6.0907236e-07
6.0438252e-07
5.9961065e-07
5.9475786e-07
5.8982543e-07
5.8481467e-07
5.7972695e-07
5.7456373e-07
5.6932654e-07
5.6401699e-07
5.5863671e-07
5.5318741e-07
5.4767089e-07
5.4208904e-07
5.3644385e-07
5.3073742e-07
5.2497189e-07
5.1914953e-07
5.1327267e-07
5.0734374e-07
5.0136526e-07
4.9533982e-07
4.8927009e-07
4.8315881e-07
4.7700878e-07
4.7082291e-07
4.6460412e-07
4.5835543e-07
4.520799e-07
4.4578063e-07
4.3946076e-07
4.3312349e-07
4.2677201e-07
4.2040956e-07
4.140394e-07
4.0766479e-07
4.01289e-07
3.9491533e-07
3.8854705e-07
3.8218744e-07
3.7583966e-07
3.6950717e-07
3.6319321e-07
3.5690085e-07
3.5063203e-07
3.4438971e-07
3.3817235e-07
3.3198116e-07
3.2581503e-07
3.1968702e-07
3.1349546e-07
3.073165e-07
3.0126424e-07
2.9533659e-07
2.8962867e-07
2.8411197e-07
2.7935089e-07
2.7727015e-07
2.9712244e-07
4.2312525e-07
1.0311209e-06
3.4515594e-06
1.0152184e-05
2.9103265e-05
6.9594951e-05
0.00014240155
0.00024946415
0.00038631435
0.00054282579
0.00070651963
0.00086912606
0.0010264587
0.0011747812
0.0013164554
0.001451635
0.0015833372
0.0017099266
0.0018287329
0.0019396979
0.0020432377
0.0021393917
0.0022279153
0.0023092296
0.002383908
0.0024522435
0.0025147157
0.0025716374
0.002624803
0.002668553
0.0027346748
6.5188185e-07
6.4800156e-07
6.4406414e-07
6.4004758e-07
6.3594667e-07
6.3176031e-07
6.2748842e-07
6.2313122e-07
6.1868912e-07
6.141626e-07
6.0955229e-07
6.0485896e-07
6.0008354e-07
5.9522715e-07
5.9029105e-07
5.8527656e-07
5.8018505e-07
5.7501798e-07
5.6977687e-07
5.644633e-07
5.5907894e-07
5.5362547e-07
5.4810471e-07
5.4251856e-07
5.36869e-07
5.3115812e-07
5.2538808e-07
5.1956114e-07
5.1367964e-07
5.0774602e-07
5.0176279e-07
4.9573255e-07
4.8965796e-07
4.8354178e-07
4.7738681e-07
4.7119594e-07
4.6497213e-07
4.5871838e-07
4.5243776e-07
4.4613336e-07
4.3980833e-07
4.3346587e-07
4.2710918e-07
4.2074149e-07
4.1436604e-07
4.0798611e-07
4.0160493e-07
3.9522577e-07
3.8885185e-07
3.824864e-07
3.7613263e-07
3.6979373e-07
3.6347285e-07
3.5717315e-07
3.5089773e-07
3.4464952e-07
3.3843191e-07
3.3224794e-07
3.2609936e-07
3.1998923e-07
3.1391566e-07
3.0787852e-07
3.0187714e-07
2.9592351e-07
2.8991593e-07
2.8392788e-07
2.7810793e-07
2.7240903e-07
2.6692945e-07
2.6188327e-07
2.5754714e-07
2.6255503e-07
3.2015535e-07
6.6994416e-07
2.234228e-06
7.212501e-06
2.2667566e-05
5.8417768e-05
0.0001261819
0.00022958597
0.00036269894
0.00051758796
0.0006787019
0.00083692264
0.00099024161
0.0011350247
0.0012737275
0.0014065297
0.0015361474
0.0016611084
0.0017787479
0.0018889219
0.0019919656
0.0020877092
0.0021759782
0.0022572453
0.0023316824
0.00240116
0.0024586131
0.0025452763
6.5236149e-07
6.4847843e-07
6.445382e-07
6.4051878e-07
6.3641495e-07
6.3222561e-07
6.2795068e-07
6.235904e-07
6.1914516e-07
6.1461547e-07
6.1000196e-07
6.0530539e-07
6.005267e-07
5.9566699e-07
5.9072751e-07
5.8570958e-07
5.8061458e-07
5.7544396e-07
5.7019923e-07
5.6488199e-07
5.5949388e-07
5.5403661e-07
5.4851199e-07
5.4292192e-07
5.3726839e-07
5.3155349e-07
5.2577938e-07
5.1994833e-07
5.1406267e-07
5.0812485e-07
5.0213738e-07
4.9610286e-07
4.9002396e-07
4.8390343e-07
4.7774409e-07
4.7154882e-07
4.6532058e-07
4.5906237e-07
4.5277727e-07
4.4646837e-07
4.4013883e-07
4.3379184e-07
4.274306e-07
4.2105836e-07
4.1467835e-07
4.0829385e-07
4.019081e-07
3.9552436e-07
3.8914586e-07
3.8277583e-07
3.7641746e-07
3.7007393e-07
3.6374835e-07
3.5744381e-07
3.5116335e-07
3.4490996e-07
3.386866e-07
3.3249618e-07
3.2634159e-07
3.2022546e-07
3.1415092e-07
3.0812082e-07
3.0213666e-07
2.9620112e-07
2.9031167e-07
2.844676e-07
2.786677e-07
2.7292175e-07
2.6711641e-07
2.6136283e-07
2.5581973e-07
2.5034581e-07
2.4564372e-07
2.3958961e-07
2.4069356e-07
2.7449031e-07
5.2857811e-07
1.748219e-06
6.0469071e-06
2.060132e-05
5.5563975e-05
0.0001241575
0.00022885839
0.00036249288
0.0005174878
0.00067620453
0.0008299106
0.00097809953
0.001118873
0.0012541987
0.0013842015
0.0015114252
0.0016340657
0.0017495794
0.0018580406
0.0019596573
0.0020537566
0.0021421516
0.0022158618
0.002327537
6.5280987e-07
6.4892423e-07
6.4498137e-07
6.4095927e-07
6.3685271e-07
6.3266059e-07
6.2838282e-07
6.2401965e-07
6.1957148e-07
6.1503883e-07
6.1042232e-07
6.0572273e-07
6.0094097e-07
5.9607815e-07
5.911355e-07
5.8611433e-07
5.8101603e-07
5.7584205e-07
5.7059388e-07
5.6527314e-07
5.5988146e-07
5.5442056e-07
5.4889225e-07
5.4329844e-07
5.3764112e-07
5.3192238e-07
5.2614439e-07
5.2030941e-07
5.1441979e-07
5.0847797e-07
5.0248647e-07
4.9644788e-07
4.9036489e-07
4.8424024e-07
4.7807675e-07
4.7187732e-07
4.656449e-07
4.593825e-07
4.5309318e-07
4.4678006e-07
4.4044629e-07
4.3409505e-07
4.2772957e-07
4.2135307e-07
4.1496882e-07
4.0858006e-07
4.0219006e-07
3.9580207e-07
3.8941933e-07
3.8304508e-07
3.766825e-07
3.7033476e-07
3.64005e-07
3.576963e-07
3.514117e-07
3.4515418e-07
3.3892665e-07
3.3273198e-07
3.2657296e-07
3.2045231e-07
3.143727e-07
3.0833677e-07
3.023471e-07
2.9640602e-07
2.905163e-07
2.8468053e-07
2.7889957e-07
2.7317555e-07
2.6750583e-07
2.6188431e-07
2.5632671e-07
2.5077156e-07
2.4516427e-07
2.3976568e-07
2.3451497e-07
2.2954022e-07
2.2500518e-07
2.2350152e-07
2.5011164e-07
4.8513271e-07
1.6644006e-06
6.0704953e-06
2.1999924e-05
6.0208615e-05
0.00013537837
0.00024566885
0.00038326835
0.0005383124
0.00069372127
0.00084239463
0.000985628
0.001122217
0.0012538366
0.0013811335
0.0015056051
0.0016252277
0.0017377763
0.0018455407
0.0019366165
0.0020765771
6.5322941e-07
6.4934135e-07
6.4539604e-07
6.4137144e-07
6.3726233e-07
6.3306761e-07
6.2878719e-07
6.2442133e-07
6.1997043e-07
6.1543501e-07
6.108157e-07
6.0611328e-07
6.0132867e-07
5.9646295e-07
5.9151733e-07
5.8649313e-07
5.8139173e-07
5.7621457e-07
5.7096317e-07
5.6563912e-07
5.6024406e-07
5.5477972e-07
5.4924792e-07
5.4365056e-07
5.3798965e-07
5.3226726e-07
5.2648558e-07
5.2064687e-07
5.1475348e-07
5.0880786e-07
5.0281252e-07
4.9677007e-07
4.9068319e-07
4.8455462e-07
4.783872e-07
4.7218381e-07
4.6594741e-07
4.5968102e-07
4.533877e-07
4.4707057e-07
4.4073277e-07
4.3437751e-07
4.2800799e-07
4.2162745e-07
4.1523915e-07
4.0884635e-07
4.0245231e-07
3.9606029e-07
3.8967352e-07
3.8329525e-07
3.7692866e-07
3.7057692e-07
3.6424318e-07
3.5793052e-07
3.5164197e-07
3.4538052e-07
3.391491e-07
3.3295057e-07
3.2678771e-07
3.2066325e-07
3.1457983e-07
3.0854001e-07
3.0254627e-07
2.9660102e-07
2.907066e-07
2.8486529e-07
2.7907935e-07
2.7335066e-07
2.6768187e-07
2.6207483e-07
2.565299e-07
2.5104949e-07
2.4561851e-07
2.4026066e-07
2.3494694e-07
2.2957585e-07
2.2438048e-07
2.1930003e-07
2.1461432e-07
2.0971806e-07
2.0881452e-07
2.3818925e-07
5.2053122e-07
1.9416917e-06
7.4257253e-06
2.7270242e-05
7.3834162e-05
0.00015941607
0.00027894422
0.00042219576
0.00057703992
0.00072771964
0.00087084734
0.0010088891
0.0011413795
0.001269329
0.0013937492
0.001517322
0.0016232572
0.001791214
6.5362203e-07
6.4973171e-07
6.4578412e-07
6.4175719e-07
6.376457e-07
6.3344854e-07
6.2916565e-07
6.2479728e-07
6.2034383e-07
6.1580583e-07
6.1118392e-07
6.0647887e-07
6.0169159e-07
5.9682316e-07
5.9187477e-07
5.8684773e-07
5.8174343e-07
5.765633e-07
5.7130885e-07
5.6598169e-07
5.6058345e-07
5.5511587e-07
5.4958078e-07
5.4398007e-07
5.3831576e-07
5.3258993e-07
5.2680476e-07
5.2096253e-07
5.1506558e-07
5.0911636e-07
5.031174e-07
4.970713e-07
4.9098074e-07
4.8484847e-07
4.7867733e-07
4.7247021e-07
4.6623006e-07
4.599599e-07
4.536628e-07
4.4734188e-07
4.4100028e-07
4.3464121e-07
4.2826788e-07
4.2188353e-07
4.1549142e-07
4.090948e-07
4.0269695e-07
3.9630111e-07
3.8991054e-07
3.8352846e-07
3.7715808e-07
3.7080257e-07
3.6446505e-07
3.5814863e-07
3.5185634e-07
3.4559117e-07
3.3935605e-07
3.3315383e-07
3.2698732e-07
3.2085923e-07
3.147722e-07
3.0872882e-07
3.0273155e-07
2.967828e-07
2.9088487e-07
2.8503998e-07
2.7925025e-07
2.7351771e-07
2.6784433e-07
2.622321e-07
2.5668268e-07
2.5119805e-07
2.4578028e-07
2.4043005e-07
2.351484e-07
2.2992911e-07
2.2477102e-07
2.1968455e-07
2.1451741e-07
2.0954941e-07
2.0461985e-07
2.004235e-07
1.9491736e-07
1.9655228e-07
2.4246978e-07
6.7272688e-07
2.7509492e-06
1.1508829e-05
3.8944201e-05
9.966188e-05
0.00019916323
0.00032925828
0.00047719671
0.00062934431
0.00077424921
0.00091238266
0.0010451588
0.0011757861
0.0012885181
0.00147781
6.5398951e-07
6.5009708e-07
6.4614735e-07
6.4211824e-07
6.3800453e-07
6.3380511e-07
6.2951991e-07
6.251492e-07
6.2069338e-07
6.1615297e-07
6.1152863e-07
6.0682112e-07
6.0203136e-07
5.9716039e-07
5.9220941e-07
5.8717973e-07
5.820727e-07
5.7688978e-07
5.7163248e-07
5.6630238e-07
5.6090115e-07
5.5543052e-07
5.4989232e-07
5.4428846e-07
5.3862094e-07
5.3289186e-07
5.271034e-07
5.2125784e-07
5.1535753e-07
5.0940492e-07
5.0340254e-07
4.9735299e-07
4.9125896e-07
4.851232e-07
4.7894855e-07
4.727379e-07
4.6649421e-07
4.602205e-07
4.5391985e-07
4.4759535e-07
4.4125018e-07
4.3488753e-07
4.2851061e-07
4.2212267e-07
4.1572696e-07
4.0932675e-07
4.0292531e-07
3.9652589e-07
3.9013174e-07
3.8374608e-07
3.7737213e-07
3.7101306e-07
3.64672e-07
3.5835204e-07
3.5205623e-07
3.4578756e-07
3.3954894e-07
3.3334326e-07
3.2717329e-07
3.2104177e-07
3.1495135e-07
3.0890459e-07
3.0290397e-07
2.9695191e-07
2.9105069e-07
2.8520256e-07
2.7940961e-07
2.736739e-07
2.6799733e-07
2.6238175e-07
2.5682891e-07
2.513404e-07
2.4591794e-07
2.4056298e-07
2.3527678e-07
2.3006166e-07
2.2491732e-07
2.1984624e-07
2.1483898e-07
2.0990004e-07
2.0503417e-07
2.0006823e-07
1.9531018e-07
1.9066687e-07
1.8653714e-07
1.8215584e-07
1.8864101e-07
2.9665763e-07
1.1010284e-06
4.6529622e-06
1.9766964e-05
6.0618421e-05
0.00014053745
0.00025623521
0.00039630407
0.00054619669
0.00069226273
0.00083313706
0.00095403944
0.0011534314
6.5433349e-07
6.5043909e-07
6.4648737e-07
6.4245623e-07
6.3834044e-07
6.3413891e-07
6.2985156e-07
6.2547867e-07
6.2102063e-07
6.1647798e-07
6.1185137e-07
6.0714157e-07
6.0234948e-07
5.9747615e-07
5.9252276e-07
5.874906e-07
5.8238103e-07
5.7719549e-07
5.719355e-07
5.6660265e-07
5.611986e-07
5.557251e-07
5.5018397e-07
5.4457712e-07
5.3890657e-07
5.3317443e-07
5.2738286e-07
5.2153416e-07
5.1563067e-07
5.0967486e-07
5.0366924e-07
4.9761644e-07
4.9151913e-07
4.8538008e-07
4.7920212e-07
4.7298815e-07
4.6674112e-07
4.6046406e-07
4.5416005e-07
4.4783219e-07
4.4148365e-07
4.3511762e-07
4.2873732e-07
4.22346e-07
4.1594691e-07
4.0954333e-07
4.031385e-07
3.967357e-07
3.9033818e-07
3.8394916e-07
3.7757186e-07
3.7120944e-07
3.6486504e-07
3.5854176e-07
3.5224264e-07
3.4597067e-07
3.3972877e-07
3.3351983e-07
3.2734662e-07
3.2121188e-07
3.1511826e-07
3.0906832e-07
3.0306455e-07
2.9710936e-07
2.9120505e-07
2.8535385e-07
2.7955787e-07
2.7381916e-07
2.6813963e-07
2.6252113e-07
2.5696539e-07
2.5147404e-07
2.4604861e-07
2.4069053e-07
2.3540113e-07
2.3018171e-07
2.2503355e-07
2.1995745e-07
2.1495572e-07
2.1002704e-07
2.0517662e-07
2.0038496e-07
1.9567772e-07
1.9101515e-07
1.8630185e-07
1.8177391e-07
1.7748754e-07
1.7340843e-07
1.7108748e-07
1.9332545e-07
4.8211434e-07
2.2187088e-06
9.8878324e-06
3.6613703e-05
9.8965602e-05
0.00019999471
0.00033062552
0.00047907007
0.00061314213
0.00082811854
6.5465556e-07
6.5075933e-07
6.4680574e-07
6.427727e-07
6.3865499e-07
6.3445148e-07
6.3016213e-07
6.257872e-07
6.2132709e-07
6.1678236e-07
6.1215363e-07
6.0744169e-07
6.0264743e-07
5.977719e-07
5.9281625e-07
5.8778176e-07
5.8266981e-07
5.7748182e-07
5.7221931e-07
5.6688387e-07
5.6147717e-07
5.5600096e-07
5.5045706e-07
5.448474e-07
5.39174e-07
5.3343895e-07
5.2764446e-07
5.2179278e-07
5.158863e-07
5.0992745e-07
5.0391879e-07
4.9786291e-07
4.917625e-07
4.8562034e-07
4.7943926e-07
4.7322214e-07
4.6697197e-07
4.6069175e-07
4.5438457e-07
4.4805354e-07
4.4170182e-07
4.3533261e-07
4.2894913e-07
4.2255462e-07
4.1615235e-07
4.0974558e-07
4.0333757e-07
3.9693159e-07
3.905309e-07
3.8413871e-07
3.7775825e-07
3.7139267e-07
3.6504514e-07
3.5871873e-07
3.5241649e-07
3.4614142e-07
3.3989644e-07
3.3368442e-07
3.2750817e-07
3.213704e-07
3.1527377e-07
3.0922084e-07
3.0321412e-07
2.9725599e-07
2.9134877e-07
2.8549468e-07
2.7969585e-07
2.7395431e-07
2.6827198e-07
2.6265072e-07
2.5709225e-07
2.5159821e-07
2.4617013e-07
2.4080944e-07
2.3551747e-07
2.3029544e-07
2.251445e-07
2.2006564e-07
2.1505991e-07
2.1012821e-07
2.0527122e-07
2.0049063e-07
1.9578596e-07
1.9115968e-07
1.865938e-07
1.8212165e-07
1.7762192e-07
1.7320967e-07
1.6888439e-07
1.6512612e-07
1.6066742e-07
1.6526321e-07
2.5913299e-07
1.0767957e-06
5.0558141e-06
2.2411815e-05
6.9054729e-05
0.00016032149
0.00026727885
0.00049178588
6.5495722e-07
6.5105927e-07
6.4710395e-07
6.4306914e-07
6.3894962e-07
6.3474427e-07
6.3045305e-07
6.2607622e-07
6.2161419e-07
6.170675e-07
6.1243681e-07
6.0772287e-07
6.0292659e-07
5.9804899e-07
5.9309123e-07
5.8805458e-07
5.8294039e-07
5.7775011e-07
5.7248523e-07
5.6714736e-07
5.6173817e-07
5.5625941e-07
5.5071291e-07
5.4510061e-07
5.3942451e-07
5.3368673e-07
5.2788946e-07
5.2203498e-07
5.1612566e-07
5.1016396e-07
5.0415241e-07
4.9809363e-07
4.919903e-07
4.858452e-07
4.7966116e-07
4.7344109e-07
4.6718794e-07
4.6090474e-07
4.5459457e-07
4.4826055e-07
4.4190584e-07
4.3553362e-07
4.2914714e-07
4.2274963e-07
4.1634436e-07
4.0993458e-07
4.0352358e-07
3.9711461e-07
3.9071092e-07
3.8431576e-07
3.7793231e-07
3.7156377e-07
3.6521328e-07
3.5888392e-07
3.5257875e-07
3.4630076e-07
3.4005287e-07
3.3383797e-07
3.2765884e-07