/*--------------------------------*- C++ -*----------------------------------*\
  =========                 |
  \\      /  F ield         | OpenFOAM: The Open Source CFD Toolbox
   \\    /   O peration     | Website:  https://openfoam.org
    \\  /    A nd           | Version:  12
     \\/     M anipulation  |
\*---------------------------------------------------------------------------*/
FoamFile
{
    format      ascii;
    class       volScalarField;
    location    "500";
    object      k;
}
// * * * * * * * * * * * * * * * * * * * * * * * * * * * * * * * * * * * * * //

dimensions      [0 2 -2 0 0 0 0];

internalField   nonuniform List<scalar> 
13056
(
7.9686312e-05
3.2084301e-05
2.7861963e-05
2.6480939e-05
2.5981992e-05
2.5761057e-05
2.5638327e-05
2.555891e-05
2.5503797e-05
2.5464579e-05
2.5436547e-05
2.5416723e-05
2.5403127e-05
2.5394405e-05
2.5389604e-05
2.5388056e-05
2.5389224e-05
2.5393044e-05
2.539807e-05
2.5410097e-05
2.5403627e-05
2.5490542e-05
2.5195385e-05
2.8881732e-05
3.6071256e-09
1.6904877e-08
3.1134333e-08
3.4834248e-08
3.3862264e-08
3.1892145e-08
3.0107067e-08
2.8600382e-08
2.729762e-08
2.6158554e-08
2.5156217e-08
2.4265596e-08
2.3444654e-08
2.2692767e-08
2.2003467e-08
2.137144e-08
2.0790545e-08
2.0253121e-08
1.9753796e-08
1.9288588e-08
1.8852636e-08
1.8443234e-08
1.8057662e-08
1.7693705e-08
1.7349517e-08
1.7022856e-08
1.6712713e-08
1.6417271e-08
1.6134926e-08
1.5865147e-08
1.5606743e-08
1.535853e-08
1.5120117e-08
1.4890686e-08
1.4669242e-08
1.4455469e-08
1.424893e-08
1.4048896e-08
1.3854886e-08
1.3666754e-08
1.3482987e-08
1.3303419e-08
1.3128521e-08
1.2958191e-08
1.2792096e-08
1.2629882e-08
1.2471389e-08
1.2316464e-08
1.2164808e-08
1.2016155e-08
1.187041e-08
1.1727478e-08
1.1587101e-08
1.1449078e-08
1.1313322e-08
1.1179812e-08
1.1048366e-08
1.0918754e-08
1.0790877e-08
1.0664778e-08
1.0540346e-08
1.0417332e-08
1.0295636e-08
1.0175293e-08
1.0056268e-08
9.9383847e-09
9.8214883e-09
9.7055612e-09
9.5906529e-09
9.4766158e-09
9.363238e-09
9.2504731e-09
9.1384176e-09
9.0269576e-09
8.9157694e-09
8.804874e-09
8.6943943e-09
8.5842236e-09
8.4741362e-09
8.3640616e-09
8.2540932e-09
8.1440797e-09
8.033778e-09
7.9231899e-09
7.8123321e-09
7.7009958e-09
7.589026e-09
7.4764795e-09
7.3631899e-09
7.2513383e-09
7.1445788e-09
7.0436494e-09
6.9473349e-09
6.855961e-09
6.7692358e-09
6.686724e-09
6.6080027e-09
6.5328044e-09
6.4609548e-09
6.3921981e-09
6.3262309e-09
6.2628324e-09
6.2018859e-09
6.1432667e-09
6.0867968e-09
6.0322288e-09
5.9794687e-09
5.9280756e-09
5.8786635e-09
5.8284029e-09
5.7837595e-09
5.7115229e-09
7.9686504e-05
3.2078444e-05
2.7852764e-05
2.6470714e-05
2.597139e-05
2.5750277e-05
2.5627443e-05
2.5547957e-05
2.5492793e-05
2.5453536e-05
2.5425472e-05
2.5405623e-05
2.5392005e-05
2.5383265e-05
2.5378447e-05
2.5376885e-05
2.5378039e-05
2.5381846e-05
2.5386861e-05
2.5398872e-05
2.5392378e-05
2.5479458e-05
2.5183329e-05
2.8855556e-05
3.3797417e-08
5.0738154e-07
9.3447342e-07
1.0455262e-06
1.0163537e-06
9.5722252e-07
9.0364497e-07
8.5842309e-07
8.1932174e-07
7.8513358e-07
7.550492e-07
7.2831789e-07
7.0367792e-07
6.8111058e-07
6.6042172e-07
6.4145187e-07
6.2401673e-07
6.078863e-07
5.928994e-07
5.7893651e-07
5.6585169e-07
5.5356376e-07
5.4199105e-07
5.3106714e-07
5.2073653e-07
5.1093202e-07
5.0162329e-07
4.9275577e-07
4.8428136e-07
4.7618412e-07
4.6842829e-07
4.6097831e-07
4.538225e-07
4.4693627e-07
4.4028975e-07
4.338735e-07
4.2767435e-07
4.2167044e-07
4.1584734e-07
4.1020069e-07
4.0468501e-07
3.992954e-07
3.9404595e-07
3.8893358e-07
3.8394833e-07
3.7907958e-07
3.743225e-07
3.6967252e-07
3.6512065e-07
3.6065893e-07
3.5628446e-07
3.5199443e-07
3.477811e-07
3.4363841e-07
3.3956379e-07
3.3555656e-07
3.3161129e-07
3.2772106e-07
3.2388287e-07
3.200981e-07
3.1636334e-07
3.1267112e-07
3.0901851e-07
3.0540646e-07
3.01834e-07
2.9829579e-07
2.9478721e-07
2.9130772e-07
2.8785881e-07
2.8443605e-07
2.8103307e-07
2.7764849e-07
2.742852e-07
2.7093979e-07
2.6760254e-07
2.6427407e-07
2.6095808e-07
2.5765137e-07
2.5434715e-07
2.5104332e-07
2.4774268e-07
2.4444068e-07
2.4113004e-07
2.378108e-07
2.3448346e-07
2.3114176e-07
2.2778105e-07
2.2440303e-07
2.210027e-07
2.1764554e-07
2.1444121e-07
2.1141187e-07
2.0852105e-07
2.0577851e-07
2.031755e-07
2.0069896e-07
1.9833618e-07
1.9607914e-07
1.9392262e-07
1.9185892e-07
1.8987895e-07
1.8797608e-07
1.861468e-07
1.8438738e-07
1.8269246e-07
1.8105463e-07
1.7947107e-07
1.7792853e-07
1.7644545e-07
1.749369e-07
1.7359695e-07
1.714288e-07
7.9687148e-05
3.2056071e-05
2.7820305e-05
2.6435065e-05
2.5934551e-05
2.5712875e-05
2.5589715e-05
2.5510012e-05
2.5454688e-05
2.5415307e-05
2.5387145e-05
2.5367213e-05
2.5353527e-05
2.5344726e-05
2.5339855e-05
2.5338244e-05
2.5339352e-05
2.5343116e-05
2.5348089e-05
2.5360052e-05
2.5353514e-05
2.5440787e-05
2.5142985e-05
2.8786954e-05
1.5808757e-07
3.620592e-06
6.667731e-06
7.4600595e-06
7.2519422e-06
6.8300713e-06
6.4478171e-06
6.1251725e-06
5.846193e-06
5.6022661e-06
5.3876175e-06
5.1968916e-06
5.0210862e-06
4.8600682e-06
4.7124525e-06
4.5771015e-06
4.4527004e-06
4.337608e-06
4.2306745e-06
4.1310472e-06
4.0376848e-06
3.9500082e-06
3.8674345e-06
3.7894901e-06
3.7157788e-06
3.6458212e-06
3.579401e-06
3.5161288e-06
3.4556615e-06
3.3978853e-06
3.3425451e-06
3.2893871e-06
3.2383281e-06
3.1891925e-06
3.1417673e-06
3.095985e-06
3.0517519e-06
3.0089117e-06
2.9673617e-06
2.9270707e-06
2.8877141e-06
2.849257e-06
2.8118e-06
2.7753212e-06
2.7397493e-06
2.7050086e-06
2.6710648e-06
2.6378851e-06
2.6054054e-06
2.573569e-06
2.5423551e-06
2.5117437e-06
2.4816796e-06
2.4521195e-06
2.4230451e-06
2.3944515e-06
2.3663e-06
2.3385412e-06
2.3111538e-06
2.2841475e-06
2.257498e-06
2.2311521e-06
2.2050887e-06
2.1793148e-06
2.1538234e-06
2.1285763e-06
2.1035406e-06
2.0787125e-06
2.0541025e-06
2.0296792e-06
2.005397e-06
1.981246e-06
1.957247e-06
1.9333755e-06
1.9095622e-06
1.8858116e-06
1.86215e-06
1.8385546e-06
1.814977e-06
1.7914021e-06
1.76785e-06
1.7442882e-06
1.7206646e-06
1.6969797e-06
1.673237e-06
1.6493919e-06
1.625411e-06
1.6013067e-06
1.5770431e-06
1.5530875e-06
1.5302225e-06
1.5086062e-06
1.4879782e-06
1.4684083e-06
1.4498341e-06
1.4321622e-06
1.4153022e-06
1.3991967e-06
1.3838083e-06
1.3690824e-06
1.3549539e-06
1.3413756e-06
1.3283224e-06
1.3157677e-06
1.3036732e-06
1.2919861e-06
1.2806862e-06
1.2696791e-06
1.2590962e-06
1.2483316e-06
1.23877e-06
1.2232987e-06
7.9688255e-05
3.2016737e-05
2.7763776e-05
2.6373072e-05
2.5870517e-05
2.5647874e-05
2.5524154e-05
2.5444077e-05
2.538848e-05
2.5348887e-05
2.5320554e-05
2.5300482e-05
2.5286677e-05
2.5277772e-05
2.5272808e-05
2.5271113e-05
2.5272142e-05
2.527583e-05
2.5280729e-05
2.5292608e-05
2.5286007e-05
2.5373429e-05
2.5073412e-05
2.867585e-05
4.8725622e-07
1.348695e-05
2.4830222e-05
2.7779558e-05
2.700531e-05
2.5435328e-05
2.4012662e-05
2.2811755e-05
2.1773305e-05
2.0865286e-05
2.0066223e-05
1.9356189e-05
1.8701677e-05
1.8102201e-05
1.7552607e-05
1.7048665e-05
1.6585481e-05
1.6156948e-05
1.5758786e-05
1.5387822e-05
1.5040179e-05
1.4713703e-05
1.4406225e-05
1.411598e-05
1.3841494e-05
1.3580984e-05
1.3333643e-05
1.3098023e-05
1.2872845e-05
1.2657687e-05
1.2451599e-05
1.2253635e-05
1.2063486e-05
1.1880499e-05
1.170388e-05
1.1533379e-05
1.1368645e-05
1.1209097e-05
1.1054354e-05
1.0904298e-05
1.0757721e-05
1.0614494e-05
1.047499e-05
1.0339128e-05
1.0206643e-05
1.0077253e-05
9.9508307e-06
9.8272532e-06
9.7062824e-06
9.5877065e-06
9.4714489e-06
9.3574347e-06
9.245458e-06
9.1353581e-06
9.0270666e-06
8.9205656e-06
8.8157106e-06
8.7123178e-06
8.6103078e-06
8.5097167e-06
8.4104544e-06
8.3123222e-06
8.2152421e-06
8.1192396e-06
8.0242888e-06
7.9302478e-06
7.8369938e-06
7.7445125e-06
7.6528435e-06
7.5618692e-06
7.4714202e-06
7.3814598e-06
7.2920648e-06
7.2031445e-06
7.1144406e-06
7.0259699e-06
6.9378303e-06
6.8499369e-06
6.7621094e-06
6.6742918e-06
6.5865585e-06
6.4987889e-06
6.4107888e-06
6.3225599e-06
6.2341153e-06
6.1452886e-06
6.055956e-06
5.9661629e-06
5.8757765e-06
5.7865369e-06
5.7013595e-06
5.6208334e-06
5.5439888e-06
5.4710856e-06
5.4018912e-06
5.3360583e-06
5.2732494e-06
5.2132511e-06
5.1559244e-06
5.1010652e-06
5.0484316e-06
4.9978473e-06
4.9492192e-06
4.9024479e-06
4.8573912e-06
4.813852e-06
4.7717552e-06
4.7307489e-06
4.6913231e-06
4.6512203e-06
4.6155992e-06
4.5579613e-06
7.9689841e-05
3.195976e-05
2.768192e-05
2.6283306e-05
2.5777794e-05
2.5553751e-05
2.542922e-05
2.5348601e-05
2.5292608e-05
2.5252707e-05
2.5224128e-05
2.5203851e-05
2.5189873e-05
2.5180818e-05
2.5175719e-05
2.51739e-05
2.5174814e-05
2.5178391e-05
2.5183183e-05
2.5194941e-05
2.5188254e-05
2.5275735e-05
2.4973045e-05
2.8520613e-05
1.1795149e-06
3.6316383e-05
6.6812707e-05
7.4738874e-05
7.2662764e-05
6.8447999e-05
6.4627658e-05
6.1401975e-05
5.8612015e-05
5.6172039e-05
5.4024523e-05
5.2116031e-05
5.0356541e-05
4.8744834e-05
4.7267099e-05
4.5911996e-05
4.4666395e-05
4.3513893e-05
4.2443e-05
4.1445196e-05
4.0510066e-05
3.9631824e-05
3.8804645e-05
3.8023789e-05
3.7285299e-05
3.6584377e-05
3.5918862e-05
3.5284857e-05
3.4678929e-05
3.4099941e-05
3.3545341e-05
3.3012588e-05
3.2500849e-05
3.200837e-05
3.1533015e-05
3.1074111e-05
3.063072e-05
3.0201276e-05
2.9784752e-05
2.9380836e-05
2.8986274e-05
2.8600718e-05
2.8225177e-05
2.7859431e-05
2.7502769e-05
2.7154432e-05
2.6814075e-05
2.6481371e-05
2.6155679e-05
2.5836427e-05
2.5523412e-05
2.5216431e-05
2.491493e-05
2.4618476e-05
2.4326887e-05
2.4040114e-05
2.3757768e-05
2.3479354e-05
2.3204659e-05
2.293378e-05
2.2666476e-05
2.2402209e-05
2.2140772e-05
2.1882233e-05
2.1626521e-05
2.1373256e-05
2.1122106e-05
2.0873034e-05
2.0626145e-05
2.0381123e-05
2.0137512e-05
1.9895213e-05
1.9654434e-05
1.941493e-05
1.9176004e-05
1.8937703e-05
1.8700291e-05
1.8463537e-05
1.8226958e-05
1.7990402e-05
1.7754069e-05
1.7517635e-05
1.7280577e-05
1.7042898e-05
1.6804634e-05
1.6565338e-05
1.6324675e-05
1.6082767e-05
1.5839257e-05
1.5598833e-05
1.5369349e-05
1.5152394e-05
1.4945354e-05
1.4748931e-05
1.4562498e-05
1.4385119e-05
1.4215887e-05
1.4054225e-05
1.3899761e-05
1.3751943e-05
1.3610121e-05
1.3473819e-05
1.3342788e-05
1.3216758e-05
1.3095348e-05
1.2978025e-05
1.2864589e-05
1.275409e-05
1.2647849e-05
1.2539784e-05
1.2443794e-05
1.2288473e-05
7.9691922e-05
3.1884279e-05
2.7573085e-05
2.6163879e-05
2.5654408e-05
2.5428489e-05
2.530287e-05
2.5221526e-05
2.5165e-05
2.5124687e-05
2.5095776e-05
2.5075227e-05
2.5061016e-05
2.5051759e-05
2.504648e-05
2.5044495e-05
2.5045254e-05
2.5048682e-05
2.5053331e-05
2.5064927e-05
2.5058132e-05
2.5145574e-05
2.4839741e-05
2.8318418e-05
2.4507473e-06
8.1037392e-05
0.00014886306
0.00016646901
0.00016188629
0.0001525533
0.00014408746
0.00013693452
0.00013074404
0.00012532749
0.00012055826
0.00011631837
0.00011240812
0.00010882529
0.00010553944
0.00010252558
9.9754675e-05
9.7190363e-05
9.4807193e-05
9.2586303e-05
9.0504577e-05
8.8549205e-05
8.6707264e-05
8.4968244e-05
8.3323372e-05
8.1761992e-05
8.0279319e-05
7.8866696e-05
7.7516492e-05
7.6226194e-05
7.4990128e-05
7.3802648e-05
7.2661911e-05
7.1564012e-05
7.0504205e-05
6.9480997e-05
6.8492302e-05
6.7534638e-05
6.660572e-05
6.570486e-05
6.4824797e-05
6.396476e-05
6.3127012e-05
6.2311066e-05
6.1515334e-05
6.0738129e-05
5.9978687e-05
5.923628e-05
5.8509476e-05
5.7797008e-05
5.7098418e-05
5.6413261e-05
5.5740301e-05
5.5078572e-05
5.4427669e-05
5.3787485e-05
5.3157153e-05
5.2535571e-05
5.1922261e-05
5.1317444e-05
5.072058e-05
5.0130473e-05
4.9546657e-05
4.8969285e-05
4.8398205e-05
4.7832563e-05
4.727162e-05
4.6715292e-05
4.6163819e-05
4.5616492e-05
4.5072295e-05
4.4531005e-05
4.3993087e-05
4.3457994e-05
4.2924173e-05
4.2391724e-05
4.1861238e-05
4.1332204e-05
4.0803537e-05
4.0274898e-05
3.9746737e-05
3.9218327e-05
3.8688499e-05
3.8157262e-05
3.7624697e-05
3.7089798e-05
3.6551823e-05
3.6011042e-05
3.5466654e-05
3.4929143e-05
3.4416068e-05
3.3930985e-05
3.3468051e-05
3.3028839e-05
3.2611951e-05
3.2215297e-05
3.1836847e-05
3.1475317e-05
3.1129871e-05
3.0799282e-05
3.0482092e-05
3.0177242e-05
2.988417e-05
2.960228e-05
2.9330716e-05
2.906829e-05
2.8814549e-05
2.8567375e-05
2.8329721e-05
2.8087982e-05
2.7873251e-05
2.7525784e-05
7.9694509e-05
3.1789325e-05
2.7435289e-05
2.6012506e-05
2.5497964e-05
2.5269642e-05
2.5142627e-05
2.5060351e-05
2.5003143e-05
2.4962301e-05
2.4932964e-05
2.4912063e-05
2.4897554e-05
2.4888038e-05
2.4882527e-05
2.4880331e-05
2.4880891e-05
2.4884129e-05
2.4888593e-05
2.4899984e-05
2.4893055e-05
2.4980356e-05
2.4670905e-05
2.8065434e-05
4.5688041e-06
0.00015990161
0.0002928339
0.00032723374
0.00031840776
0.00030030451
0.00028385611
0.00026993787
0.00025787617
0.00024731087
0.00023799974
0.0002297155
0.00022206925
0.00021505877
0.00020862564
0.00020272192
0.00019729149
0.00019226366
0.00018758904
0.00018323104
0.00017914463
0.00017530495
0.00017168685
0.00016826987
0.00016503697
0.00016196733
0.00015905167
0.00015627308
0.00015361664
0.00015107749
0.00014864454
0.00014630674
0.00014406051
0.00014189822
0.00013981056
0.00013779464
0.00013584637
0.00013395893
0.00013212785
0.00013035181
0.00012861646
0.00012692034
0.00012526793
0.00012365829
0.00012208831
0.00012055467
0.00011905588
0.00011759052
0.00011615577
0.00011474914
0.00011336974
0.0001120167
0.00011068758
0.0001093805
0.00010809464
0.00010682982
0.00010558433
0.00010435598
0.00010314385
0.00010194837
0.00010076849
9.9601839e-05
9.8447502e-05
9.730579e-05
9.6176403e-05
9.5057656e-05
9.394809e-05
9.284754e-05
9.1756485e-05
9.0673527e-05
8.9596653e-05
8.8525425e-05
8.7460765e-05
8.6401596e-05
8.5344837e-05
8.4290692e-05
8.3240332e-05
8.2192743e-05
8.1145779e-05
8.0098769e-05
7.9052601e-05
7.800584e-05
7.6956165e-05
7.5903595e-05
7.4848287e-05
7.3788251e-05
7.2722009e-05
7.1650098e-05
7.0570928e-05
6.9505279e-05
6.8487977e-05
6.7526082e-05
6.6608016e-05
6.5736919e-05
6.4910029e-05
6.4123213e-05
6.337245e-05
6.2655201e-05
6.1969816e-05
6.1313864e-05
6.068446e-05
6.0079504e-05
5.9497889e-05
5.8938432e-05
5.839944e-05
5.7878557e-05
5.7374889e-05
5.6884234e-05
5.641245e-05
5.5932545e-05
5.5506233e-05
5.4816345e-05
7.9697597e-05
3.1673914e-05
2.7266299e-05
2.5826587e-05
2.5305729e-05
2.507441e-05
2.4945654e-05
2.4862214e-05
2.4804153e-05
2.4762649e-05
2.4732781e-05
2.4711441e-05
2.469656e-05
2.468672e-05
2.4680921e-05
2.4678461e-05
2.4678773e-05
2.4681775e-05
2.4686009e-05
2.4697146e-05
2.4690057e-05
2.4777103e-05
2.4463587e-05
2.7756903e-05
7.8148752e-06
0.00028805668
0.00052445045
0.00058524078
0.00057008278
0.00053855467
0.0005098179
0.00048543295
0.00046424625
0.00044564879
0.00042923004
0.00041459943
0.00040107463
0.00038865871
0.00037725228
0.00036677369
0.00035712588
0.00034818532
0.00033986593
0.00033210406
0.00032482058
0.00031797222
0.00031151493
0.00030541287
0.00029963623
0.00029414832
0.00028893298
0.00028396035
0.00027920407
0.00027465573
0.0002702957
0.00026610445
0.00026207575
0.00025819605
0.00025444887
0.00025082916
0.00024732966
0.00024393826
0.00024064705
0.00023745374
0.00023433253
0.00023128086
0.00022830696
0.0002254092
0.00022258199
0.00021981945
0.00021711895
0.00021447798
0.00021189149
0.00020935502
0.00020686702
0.00020442597
0.0002020275
0.00019966818
0.00019734664
0.00019506255
0.00019281283
0.00019059357
0.0001884031
0.00018624226
0.00018410913
0.00018199946
0.0001799116
0.00017784612
0.00017580251
0.00017377773
0.00017176913
0.00016977644
0.00016780053
0.00016583888
0.00016388785
0.00016194664
0.00016001694
0.00015809681
0.00015618065
0.00015426885
0.00015236352
0.00015046283
0.00014856289
0.00014666247
0.0001447632
0.00014286247
0.00014095605
0.00013904397
0.00013712653
0.0001352001
0.00013326197
0.00013131313
0.00012935067
0.00012741238
0.00012556164
0.00012381136
0.00012214047
0.00012055478
0.00011904931
0.00011761656
0.00011624925
0.00011494277
0.00011369416
0.00011249901
0.00011135208
0.00011024955
0.00010918944
0.00010816959
0.00010718694
0.0001062372
0.00010531875
0.00010442395
0.00010356346
0.00010268812
0.00010191043
0.00010065174
7.9701194e-05
3.1537104e-05
2.7063723e-05
2.5603294e-05
2.5074714e-05
2.4839732e-05
2.4708841e-05
2.4623973e-05
2.4564864e-05
2.4522548e-05
2.4492029e-05
2.4470151e-05
2.4454815e-05
2.4444578e-05
2.4438426e-05
2.4435643e-05
2.4435653e-05
2.4438366e-05
2.4442322e-05
2.445315e-05
2.4445871e-05
2.4532532e-05
2.4214595e-05
2.7387136e-05
1.2391104e-05
0.00048046978
0.00086601093
0.00096408879
0.00094081809
0.00089123384
0.00084580736
0.00080708429
0.0007732981
0.00074353737
0.00071718603
0.00069364391
0.00067182443
0.0006517511
0.00063327414
0.00061627021
0.0006005888
0.00058603454
0.00057247213
0.00055980178
0.00054789731
0.00053669083
0.0005261125
0.0005161055
0.00050662268
0.0004976052
0.00048902778
0.00048084236
0.00047300654
0.00046550726
0.00045831291
0.00045139191
0.00044473457
0.00043831898
0.00043211837
0.00042612482
0.00042032665
0.00041470409
0.00040924444
0.00040394414
0.00039876031
0.00039368898
0.00038874426
0.00038392358
0.00037921779
0.00037461725
0.00037011785
0.00036571549
0.00036140184
0.0003571696
0.00035301633
0.0003489396
0.00034493216
0.00034098837
0.00033710601
0.00033328467
0.00032951924
0.00032580321
0.00032213384
0.00031851261
0.0003149364
0.00031139808
0.00030789489
0.0003044279
0.00030099628
0.00029759493
0.00029421944
0.00029086937
0.00028754626
0.00028424586
0.00028096206
0.00027769354
0.00027444318
0.0002712077
0.00026797769
0.00026475377
0.00026153956
0.00025833198
0.00025512443
0.00025191485
0.00024870598
0.0002454934
0.00024226997
0.00023903571
0.00023579111
0.00023253002
0.00022924783
0.00022594617
0.00022262009
0.00021933365
0.00021619441
0.00021322443
0.00021038806
0.00020769539
0.0002051381
0.00020270359
0.00020037958
0.00019815834
0.0001960349
0.00019400185
0.00019205033
0.00019017391
0.00018836926
0.00018663276
0.00018495924
0.00018334143
0.0001817766
0.00018025177
0.00017878513
0.00017729298
0.00017596699
0.00017382032
7.9705308e-05
3.1378113e-05
2.6825112e-05
2.5339673e-05
2.480178e-05
2.4562376e-05
2.4428905e-05
2.4342306e-05
2.4281929e-05
2.423863e-05
2.4207321e-05
2.4184792e-05
2.4168904e-05
2.4158189e-05
2.415161e-05
2.4148438e-05
2.4148085e-05
2.4150451e-05
2.4154073e-05
2.4164533e-05
2.4157033e-05
2.4243157e-05
2.3920639e-05
2.6949409e-05
1.827594e-05
0.00074504108
0.0013230619
0.0014678335
0.0014360102
0.0013656416
0.0013007261
0.0012450472
0.0011961836
0.001152933
0.0011144804
0.0010800026
0.001047929
0.0010183326
0.00099101443
0.00096581063
0.00094251221
0.0009208401
0.00090060283
0.00088165987
0.00086382882
0.00084701411
0.00083111565
0.00081605209
0.00080175625
0.00078814244
0.00077517522
0.0007627843
0.00075090758
0.0007395271
0.00072859651
0.00071806933
0.00070793212
0.00069815254
0.0006886909
0.00067953621
0.00067067122
0.00066206648
0.00065370343
0.00064557726
0.00063762194
0.00062983211
0.00062223038
0.0006148132
0.00060756677
0.0006004767
0.00059353711
0.00058674201
0.0005800787
0.00057353617
0.00056711104
0.0005607998
0.00055459136
0.00054847712
0.00054245391
0.00053652134
0.00053067158
0.00052489459
0.00051918628
0.00051354916
0.00050797848
0.0005024632
0.00049699908
0.00049158791
0.00048622857
0.0004809131
0.00047563467
0.00047039265
0.00046518954
0.00046001878
0.00045487076
0.00044974345
0.00044464144
0.00043955965
0.00043448323
0.0004294132
0.00042435526
0.00041930458
0.00041425076
0.00040919049
0.00040412812
0.00039905667
0.0003939648
0.00038885249
0.00038372047
0.00037855896
0.00037336058
0.00036812783
0.00036285279
0.00035763703
0.00035265155
0.00034793181
0.00034342139
0.00033913698
0.00033506571
0.00033118786
0.00032748414
0.00032394248
0.00032055518
0.0003173106
0.00031419481
0.00031119768
0.00030831401
0.00030553819
0.00030286203
0.00030027404
0.00029776993
0.00029532903
0.00029298045
0.00029059052
0.00028846589
0.00028502472
7.970994e-05
3.1196445e-05
2.6548085e-05
2.5032758e-05
2.4483749e-05
2.4239062e-05
2.4102499e-05
2.4013825e-05
2.3951925e-05
2.3907446e-05
2.387519e-05
2.3851881e-05
2.3835332e-05
2.3824044e-05
2.3816955e-05
2.3813319e-05
2.3812534e-05
2.3814487e-05
2.3817713e-05
2.3827738e-05
2.3819984e-05
2.3905387e-05
2.3578504e-05
2.6435657e-05
2.5068083e-05
0.0010740341
0.00187337
0.0020698774
0.0020310093
0.0019405136
0.0018563808
0.0017837098
0.0017194997
0.0016623447
0.001611289
0.0015653174
0.0015223619
0.0014825821
0.0014457441
0.0014116553
0.0013800547
0.0013505806
0.0013229883
0.0012970997
0.001272675
0.0012495934
0.0012277249
0.0012069642
0.0011872249
0.0011683936
0.0011504258
0.0011332279
0.0011167172
0.001100872
0.0010856302
0.0010709297
0.0010567539
0.0010430593
0.0010297922
0.0010169391
0.0010044768
0.0009923652
0.00098057975
0.00096911479
0.00095787641
0.00094685837
0.00093609444
0.0009255803
0.00091529681
0.00090522433
0.00089535542
0.00088568207
0.0008761865
0.00086685351
0.00085767891
0.00084865821
0.00083977578
0.0008310195
0.00082238534
0.00081387323
0.00080547208
0.00079716758
0.00078895417
0.00078083582
0.00077280592
0.00076484861
0.00075695786
0.00074913657
0.00074138333
0.00073368671
0.0007260368
0.00071843286
0.00071087872
0.00070336492
0.00069587747
0.00068841343
0.00068097964
0.00067356876
0.00066615906
0.00065875195
0.00065135588
0.00064396379
0.00063656032
0.00062914057
0.00062171091
0.00061426103
0.00060677411
0.00059924997
0.00059168963
0.00058407849
0.00057640543
0.00056867397
0.00056087219
0.00055315023
0.0005457619
0.00053876063
0.00053206322
0.00052569581
0.00051964014
0.0005138676
0.00050835006
0.00050307006
0.00049801662
0.00049317286
0.00048851832
0.00048403823
0.0004797251
0.00047557085
0.0004715635
0.00046768607
0.00046393228
0.00046027145
0.00045674718
0.00045315969
0.00044996853
0.00044479636
7.9715079e-05
3.099202e-05
2.6230458e-05
2.4679706e-05
2.4117532e-05
2.3866582e-05
2.3726345e-05
2.3635199e-05
2.3571483e-05
2.3525598e-05
2.3492216e-05
2.3467977e-05
2.3450644e-05
2.3438675e-05
2.3430982e-05
2.3426796e-05
2.34255e-05
2.3426967e-05
2.3429728e-05
2.3439243e-05
2.3431202e-05
2.3515654e-05
2.3185273e-05
2.584395e-05
3.2178834e-05
0.0014406557
0.0024708742
0.0027195154
0.0026765737
0.0025696074
0.0024694199
0.002382277
0.0023047444
0.002235341
0.0021730536
0.0021167353
0.0020638757
0.0020147505
0.0019691108
0.0019267522
0.001887375
0.0018505479
0.0018159844
0.0017834773
0.0017527371
0.0017236239
0.0016959832
0.0016696896
0.0016446415
0.0016207011
0.0015978175
0.0015758761
0.001554776
0.0015344933
0.0015149519
0.0014960755
0.0014778457
0.0014602084
0.0014430974
0.0014264975
0.0014103799
0.0013946945
0.0013794118
0.0013645259
0.0013499133
0.0013355678
0.001321536
0.0013078132
0.0012943749
0.0012811965
0.0012682695
0.0012555841
0.0012431173
0.0012308498
0.0012187771
0.0012068939
0.0011951799
0.0011836192
0.0011722073
0.0011609448
0.0011498172
0.0011388057
0.0011279031
0.0011171155
0.0011064342
0.0010958382
0.0010853196
0.0010748826
0.0010645257
0.0010542336
0.0010439931
0.0010338034
0.0010236698
0.0010135798
0.0010035144
0.00099346974
0.00098345513
0.00097346081
0.0009634572
0.00095344615
0.00094343913
0.00093342657
0.00092338743
0.00091331484
0.00090321741
0.00089308101
0.00088288238
0.00087262097
0.00086229799
0.00085189317
0.00084139081
0.00083079537
0.00082009005
0.0008094807
0.00079931699
0.00078967397
0.00078043766
0.00077164664
0.00076327713
0.0007552908
0.00074764977
0.00074033076
0.00073331945
0.00072659318
0.0007201242
0.00071389257
0.0007078884
0.00070210099
0.00069651412
0.0006911045
0.0006858637
0.00068074936
0.00067582229
0.00067080481
0.00066633805
0.0006590916
7.9720699e-05
3.0765311e-05
2.5870401e-05
2.4277946e-05
2.370028e-05
2.3441951e-05
2.3297373e-05
2.3203298e-05
2.3137432e-05
2.3089881e-05
2.3055164e-05
2.3029826e-05
2.3011564e-05
2.2998792e-05
2.2990386e-05
2.2985555e-05
2.2983659e-05
2.2984558e-05
2.2986776e-05
2.2995698e-05
2.2987335e-05
2.3070548e-05
2.2738611e-05
2.5188059e-05
3.900741e-05
0.0018143661
0.0030641495
0.0033629686
0.0033193266
0.003200745
0.003088961
0.0029911045
0.0029034598
0.0028245971
0.002753526
0.0026890301
0.0026282539
0.0025715974
0.0025188136
0.002469701
0.0024239353
0.002381032
0.0023406768
0.002302644
0.002266605
0.0022324089
0.002199883
0.0021688873
0.0021393103
0.0021109945
0.002083886
0.0020578532
0.002032781
0.0020086452
0.0019853583
0.0019628328
0.0019410497
0.0019199464
0.0018994461
0.0018795336
0.0018601752
0.0018413123
0.001822912
0.0018049688
0.0017873319
0.0017699954
0.0017530191
0.0017363979
0.0017201024
0.0017041039
0.0016883939
0.001672961
0.0016577773
0.00164282
0.0016280846
0.0016135656
0.0015992382
0.0015850831
0.0015710955
0.0015572773
0.0015436104
0.0015300718
0.0015166532
0.0015033626
0.0014901897
0.0014771085
0.0014641091
0.0014511973
0.0014383717
0.0014256132
0.0014129053
0.001400247
0.0013876456
0.0013750852
0.0013625422
0.0013500114
0.0013375049
0.0013250104
0.0013124906
0.0012999476
0.0012873958
0.0012748232
0.0012622028
0.0012495256
0.0012368026
0.0012240155
0.0012111344
0.0011981582
0.0011850881
0.0011718979
0.001158567
0.0011451003
0.0011314758
0.0011179552
0.0011049853
0.0010926638
0.0010808457
0.0010695838
0.0010588496
0.0010485956
0.0010387745
0.0010293577
0.0010203278
0.0010116567
0.0010033096
0.00099526156
0.00098750047
0.00098001329
0.00097277965
0.00096576998
0.00095897376
0.00095233681
0.00094593775
0.00093941867
0.00093360979
0.00092417558
7.9726754e-05
3.0517486e-05
2.5466612e-05
2.3825349e-05
2.3229553e-05
2.2962574e-05
2.281289e-05
2.2715362e-05
2.2646957e-05
2.2597442e-05
2.256115e-05
2.2534518e-05
2.2515164e-05
2.2501448e-05
2.2492207e-05
2.248662e-05
2.2484023e-05
2.248426e-05
2.2485851e-05
2.2494088e-05
2.248537e-05
2.2566972e-05
2.2237128e-05
2.4471262e-05
4.4943792e-05
0.0021707066
0.0036193116
0.0039611414
0.003919755
0.0037940531
0.0036748873
0.0035699216
0.0034752954
0.0033897423
0.0033123599
0.0032419149
0.0031753685
0.0031131759
0.0030551044
0.0030009654
0.0029504198
0.0029029453
0.002858212
0.0028159843
0.0027759051
0.0027378192
0.0027015413
0.0026669218
0.0026338433
0.0026021341
0.0025717394
0.0025425147
0.0025143352
0.0024871772
0.0024609447
0.0024355423
0.0024109513
0.0023871021
0.0023639103
0.0023413618
0.0023194185
0.0022980152
0.0022771174
0.0022567205
0.0022366511
0.0022169039
0.0021975495
0.0021785831
0.0021599706
0.0021416804
0.0021237046
0.0021060308
0.0020886265
0.002071466
0.0020545458
0.0020378604
0.0020213808
0.0020050846
0.0019889675
0.0019730325
0.0019572588
0.0019416192
0.0019261047
0.0019107255
0.0018954698
0.0018803071
0.0018652257
0.0018502332
0.0018353283
0.0018204885
0.0018056942
0.0017909446
0.0017762486
0.0017615876
0.0017469334
0.00173228
0.0017176418
0.0017030045
0.0016883236
0.0016736014
0.0016588549
0.0016440697
0.0016292138
0.001614276
0.001599269
0.0015841711
0.0015689462
0.0015535924
0.0015381108
0.0015224696
0.0015066433
0.0014906375
0.0014744249
0.0014583164
0.0014428455
0.0014281308
0.0014139996
0.0014005188
0.0013876563
0.0013753569
0.0013635653
0.0013522482
0.0013413863
0.001330947
0.0013208891
0.0013111833
0.001301816
0.0012927723
0.0012840282
0.0012755487
0.0012673212
0.0012592814
0.0012515238
0.0012436185
0.001236568
0.0012251041
7.9733175e-05
3.0250549e-05
2.5018501e-05
2.3320425e-05
2.2703505e-05
2.242643e-05
2.2270763e-05
2.2169179e-05
2.209779e-05
2.2045965e-05
2.2007825e-05
2.1979672e-05
2.1959037e-05
2.1944217e-05
2.1934e-05
2.1927532e-05
2.1924122e-05
2.1923593e-05
2.1924459e-05
2.1931908e-05
2.1922804e-05
2.2002329e-05
2.1679175e-05
2.3694329e-05
4.9417154e-05
0.002483327
0.0041128418
0.0044978399
0.004460244
0.0043301527
0.004206325
0.0040965842
0.0039970352
0.0039066484
0.003824638
0.0037497788
0.0036792632
0.0036132207
0.0035514406
0.0034937545
0.0034398156
0.003389075
0.0033411974
0.0032959439
0.0032529368
0.0032120224
0.003173007
0.0031357348
0.0031000861
0.0030658789
0.0030330592
0.003001473
0.0029709888
0.0029415849
0.0029131583
0.0028856085
0.0028589181
0.0028330114
0.0028077992
0.002783269
0.0027593788
0.0027360583
0.0027132731
0.0026910195
0.0026691163
0.0026475545
0.0026264079
0.0026056716
0.0025853076
0.0025652821
0.0025455886
0.002526214
0.0025071216
0.0024882839
0.0024696983
0.0024513596
0.0024332353
0.0024153005
0.0023975513
0.0023799924
0.0023626004
0.0023453445
0.0023282155
0.0023112253
0.0022943615
0.0022775894
0.0022608959
0.0022442901
0.0022277712
0.0022113138
0.0021948956
0.002178516
0.0021621854
0.002145883
0.0021295769
0.00211326
0.002096949
0.002080628
0.0020642464
0.0020478068
0.0020313281
0.0020147944
0.0019981689
0.0019814387
0.0019646181
0.0019476825
0.0019305904
0.0019133393
0.00189593
0.0018783263
0.0018604985
0.0018424522
0.0018241559
0.0018059596
0.0017884673
0.0017718149
0.001755808
0.0017405245
0.00172593
0.0017119632
0.0016985627
0.0016856917
0.0016733294
0.0016614397
0.0016499766
0.0016389073
0.0016282171
0.0016178896
0.0016078983
0.0015982034
0.0015887913
0.0015795891
0.001570704
0.0015616493
0.0015535672
0.0015404113
7.9739867e-05
2.9967466e-05
2.4526405e-05
2.2762532e-05
2.21211e-05
2.1832283e-05
2.1669632e-05
2.1563297e-05
2.1488409e-05
2.1433876e-05
2.139357e-05
2.1363638e-05
2.1341507e-05
2.1325397e-05
2.1314044e-05
2.1306553e-05
2.1302203e-05
2.1300789e-05
2.1300824e-05
2.130737e-05
2.1297853e-05
2.1374725e-05
2.1063159e-05
2.2859435e-05
5.1984721e-05
0.0027278965
0.0045243938
0.0049605725
0.0049300075
0.0047989042
0.0046735164
0.0045616301
0.0044594223
0.0043661951
0.0042813337
0.0042036623
0.0041303547
0.0040615685
0.0039971217
0.0039368691
0.0038804591
0.0038273234
0.0037771278
0.0037296342
0.0036844493
0.0036414244
0.0036003599
0.0035610963
0.003523513
0.0034874208
0.0034527674
0.0034193909
0.0033871561
0.0033560435
0.0033259442
0.0032967546
0.003268459
0.0032409762
0.0032142138
0.0031881618
0.0031627741
0.0031379768
0.0031137363
0.0030900498
0.0030667784
0.0030438898
0.0030214315
0.0029993986
0.0029777493
0.0029564487
0.0029354921
0.0029148657
0.0028945294
0.0028744538
0.0028546382
0.0028350777
0.0028157368
0.002796588
0.0027776287
0.0027588651
0.0027402713
0.0027218139
0.0027034833
0.0026852936
0.0026672313
0.0026492587
0.0026313612
0.0026135497
0.0025958238
0.0025781554
0.0025605204
0.0025429183
0.0025253609
0.0025078255
0.0024902772
0.0024727082
0.0024551372
0.0024375468
0.0024198819
0.0024021449
0.0023843568
0.0023665
0.0023485341
0.0023304448
0.0023122478
0.002293916
0.0022754039
0.0022567081
0.0022378298
0.0022187287
0.0021993719