/*--------------------------------*- C++ -*----------------------------------*\
  =========                 |
  \\      /  F ield         | OpenFOAM: The Open Source CFD Toolbox
   \\    /   O peration     | Website:  https://openfoam.org
    \\  /    A nd           | Version:  12
     \\/     M anipulation  |
\*---------------------------------------------------------------------------*/
FoamFile
{
    format      ascii;
    class       volScalarField;
    location    "500";
    object      nut;
}
// * * * * * * * * * * * * * * * * * * * * * * * * * * * * * * * * * * * * * //

dimensions      [0 2 -1 0 0 0 0];

internalField   nonuniform List<scalar> 
7480
(
6.2741648e-09
6.1226633e-09
5.9756073e-09
5.8505179e-09
5.7623146e-09
5.7227824e-09
5.157143e-09
4.4495561e-09
3.9430323e-09
3.5544247e-09
3.3178147e-09
2.8852909e-09
2.3516009e-07
3.4427008e-06
5.5168805e-06
6.8689959e-06
7.663668e-06
8.0702755e-06
8.2792128e-06
8.2718219e-06
8.2275175e-06
8.1447482e-06
7.8472332e-06
7.2040352e-06
6.6528309e-06
6.1834775e-06
5.7894441e-06
5.4748497e-06
5.2184901e-06
5.0091899e-06
4.841282e-06
4.7111925e-06
4.6153551e-06
4.5499197e-06
4.510814e-06
4.494022e-06
4.4954193e-06
4.5106235e-06
4.5386864e-06
4.5790936e-06
4.6297986e-06
4.6882084e-06
4.7518389e-06
4.8187981e-06
4.8885737e-06
4.9581743e-06
5.0267062e-06
5.0930375e-06
5.1558011e-06
5.213718e-06
5.2685246e-06
5.3187272e-06
5.362642e-06
5.3993442e-06
5.4287475e-06
5.4514292e-06
5.4682613e-06
5.4802944e-06
5.4894141e-06
5.4967137e-06
5.502491e-06
5.5067476e-06
5.5095769e-06
5.5112053e-06
5.5118599e-06
5.511714e-06
5.5109057e-06
5.5097761e-06
5.5086149e-06
5.5073664e-06
5.5058062e-06
5.5037818e-06
5.5012462e-06
5.4982165e-06
5.4947505e-06
5.4910111e-06
5.4871373e-06
5.4831002e-06
5.4787849e-06
5.4741235e-06
5.4691202e-06
5.4638212e-06
5.4583543e-06
5.452781e-06
5.4470511e-06
5.4411037e-06
5.4349051e-06
5.4284819e-06
5.4219402e-06
5.4153113e-06
5.4085483e-06
5.4016101e-06
5.3944868e-06
5.3872129e-06
5.3798693e-06
5.3722387e-06
5.3647677e-06
5.3555824e-06
5.3491835e-06
5.3333737e-06
2.5293988e-08
2.5098318e-08
2.4877048e-08
2.4643321e-08
2.4400378e-08
2.4149322e-08
2.3891704e-08
2.3630325e-08
2.3357706e-08
2.3107633e-08
2.2736487e-08
2.4089791e-08
1.3684099e-08
5.0461669e-07
2.1797496e-06
4.2010214e-06
5.1979194e-06
5.4065855e-06
5.2533682e-06
5.0703042e-06
4.98764e-06
4.9861355e-06
5.0533411e-06
5.1783409e-06
5.4314456e-06
5.7903635e-06
6.2651154e-06
6.9055714e-06
7.2474266e-06
7.6265811e-06
8.030023e-06
8.4452572e-06
8.8626358e-06
9.2748601e-06
9.6767879e-06
1.0066312e-05
1.0439791e-05
1.0799986e-05
1.1155858e-05
1.151032e-05
1.1856241e-05
1.2188216e-05
1.2504192e-05
1.2804551e-05
1.3095722e-05
1.3357393e-05
1.3605009e-05
1.3831372e-05
1.4035573e-05
1.4218503e-05
1.4379291e-05
1.4516337e-05
1.4630983e-05
1.4726004e-05
1.4804699e-05
1.4870318e-05
1.4925591e-05
1.4973482e-05
1.5018147e-05
1.5059183e-05
1.5096156e-05
1.5129219e-05
1.5158963e-05
1.5186011e-05
1.5210821e-05
1.5233684e-05
1.5254858e-05
1.5274798e-05
1.5293278e-05
1.530961e-05
1.5323485e-05
1.533505e-05
1.5344602e-05
1.535242e-05
1.5358806e-05
1.5364029e-05
1.5367955e-05
1.5370234e-05
1.5370758e-05
1.5369726e-05
1.5367408e-05
1.5364099e-05
1.5359972e-05
1.5354827e-05
1.5348431e-05
1.5340808e-05
1.5332133e-05
1.5322703e-05
1.5312668e-05
1.530185e-05
1.5290093e-05
1.527744e-05
1.5264088e-05
1.5250218e-05
1.5235742e-05
1.5220532e-05
1.5204573e-05
1.5186991e-05
1.5172714e-05
1.5139729e-05
2.5369738e-08
2.5373187e-08
2.5375857e-08
2.5377481e-08
2.5377997e-08
2.5377359e-08
2.5375423e-08
2.5372478e-08
2.5366921e-08
2.5363501e-08
2.5340581e-08
2.5395317e-08
2.5119004e-08
2.6026671e-08
4.2710263e-08
1.4431463e-07
5.0721673e-07
1.1762706e-06
1.9897465e-06
2.6429635e-06
2.9863756e-06
3.0922189e-06
3.0711673e-06
3.0004899e-06
2.9330075e-06
2.9552322e-06
3.0630128e-06
3.2676327e-06
3.5569723e-06
3.9260926e-06
4.3884006e-06
4.8932083e-06
5.4568786e-06
6.0842052e-06
6.7774483e-06
7.5386534e-06
8.3768906e-06
9.3126205e-06
1.0194283e-05
1.105376e-05
1.1931083e-05
1.2805892e-05
1.3661947e-05
1.4496183e-05
1.5310512e-05
1.6108235e-05
1.6873544e-05
1.75882e-05
1.8263166e-05
1.8900485e-05
1.9373201e-05
1.9798557e-05
2.0185546e-05
2.0539749e-05
2.0864684e-05
2.1163427e-05
2.1440006e-05
2.1698215e-05
2.1937502e-05
2.2158399e-05
2.2362732e-05
2.2552758e-05
2.2730513e-05
2.2897697e-05
2.3055458e-05
2.3204514e-05
2.3345635e-05
2.3478412e-05
2.3602143e-05
2.3717031e-05
2.3823811e-05
2.3923276e-05
2.4016139e-05
2.4103007e-05
2.4184546e-05
2.4260634e-05
2.4330662e-05
2.439469e-05
2.4453316e-05
2.4507202e-05
2.455683e-05
2.4602762e-05
2.4644807e-05
2.4682502e-05
2.4715926e-05
2.4745584e-05
2.4771954e-05
2.4795591e-05
2.4816336e-05
2.4833802e-05
2.4848075e-05
2.4859559e-05
2.4868731e-05
2.4875746e-05
2.4880175e-05
2.4882369e-05
2.4881304e-05
2.4879996e-05
2.4872668e-05
2.486029e-05
2.6003274e-08
2.6014853e-08
2.6026809e-08
2.6038511e-08
2.604977e-08
2.6060529e-08
2.6070761e-08
2.6080443e-08
2.6089563e-08
2.6098027e-08
2.6106092e-08
2.6112724e-08
2.6119537e-08
2.6124422e-08
2.6125033e-08
2.6264583e-08
2.7142364e-08
3.0980335e-08
4.630718e-08
8.589178e-08
1.6012461e-07
2.733554e-07
4.2405389e-07
6.0499023e-07
8.087571e-07
1.0148448e-06
1.2091649e-06
1.3886884e-06
1.556479e-06
1.7180186e-06
1.8829529e-06
2.0588487e-06
2.2527855e-06
2.5051188e-06
2.8222837e-06
3.2090495e-06
3.6799183e-06
4.2479255e-06
4.9110112e-06
5.6933317e-06
6.6169495e-06
7.6879337e-06
8.8522188e-06
9.8896631e-06
1.0980075e-05
1.2113305e-05
1.3275404e-05
1.4443087e-05
1.5609429e-05
1.6762782e-05
1.7888448e-05
1.8984539e-05
2.0009285e-05
2.0978379e-05
2.1903737e-05
2.2784404e-05
2.3621227e-05
2.4390222e-05
2.5002328e-05
2.5572181e-05
2.6107095e-05
2.6612945e-05
2.7093327e-05
2.7550091e-05
2.7984432e-05
2.8397942e-05
2.8792952e-05
2.9168464e-05
2.952293e-05
2.9857213e-05
3.0173117e-05
3.0472393e-05
3.0756455e-05
3.1026357e-05
3.1283237e-05
3.1526924e-05
3.1756756e-05
3.1973218e-05
3.2177354e-05
3.2370205e-05
3.2552601e-05
3.2725543e-05
3.2888701e-05
3.3041668e-05
3.3184906e-05
3.3319293e-05
3.3445556e-05
3.356458e-05
3.3676059e-05
3.3779661e-05
3.3875786e-05
3.3965146e-05
3.4048497e-05
3.4126012e-05
3.4197128e-05
3.4262686e-05
3.4320857e-05
3.4378624e-05
3.4415765e-05
3.4483935e-05
2.6409592e-08
2.6422534e-08
2.6436009e-08
2.6449307e-08
2.6462257e-08
2.6474811e-08
2.6486953e-08
2.649867e-08
2.6509953e-08
2.6520777e-08
2.6531175e-08
2.6540924e-08
2.6550562e-08
2.6558592e-08
2.6562824e-08
2.6567726e-08
2.6578956e-08
2.6595702e-08
2.6624046e-08
2.6695338e-08
2.6886696e-08
2.734784e-08
2.8351921e-08
3.0351613e-08
3.4036853e-08
4.0372102e-08
5.0626773e-08
6.6478244e-08
9.0215693e-08
1.248999e-07
1.7497037e-07
2.4651021e-07
3.4823178e-07
4.8694485e-07
6.6960211e-07
8.9926513e-07
1.1770774e-06
1.4892445e-06
1.8517685e-06
2.2306823e-06
2.6348979e-06
3.1212033e-06
3.722734e-06
4.4483986e-06
5.3021711e-06
6.3070371e-06
7.492264e-06
8.8493461e-06
9.9583911e-06
1.1152711e-05
1.2421654e-05
1.3751879e-05
1.5113174e-05
1.6494457e-05
1.7877499e-05
1.9244398e-05
2.0595791e-05
2.1880736e-05
2.3116276e-05
2.4315417e-05
2.5473679e-05
2.6583703e-05
2.7631304e-05
2.8623567e-05
2.9572999e-05
3.0486402e-05
3.1369638e-05
3.2138831e-05
3.2827557e-05
3.3482472e-05
3.4107634e-05
3.4705641e-05
3.5277929e-05
3.5825608e-05
3.6350624e-05
3.6852014e-05
3.7328263e-05
3.7780637e-05
3.8211125e-05
3.8621468e-05
3.9012953e-05
3.9387103e-05
3.9743195e-05
4.0080848e-05
4.0400991e-05
4.0704953e-05
4.0993817e-05
4.1268912e-05
4.1529702e-05
4.1776033e-05
4.2008708e-05
4.2228773e-05
4.2437303e-05
4.2634471e-05
4.2819664e-05
4.2994382e-05
4.3155747e-05
4.3316228e-05
4.3433881e-05
4.3644257e-05
2.6409704e-08
2.642345e-08
2.6437854e-08
2.6452164e-08
2.6466192e-08
2.6479889e-08
2.6493236e-08
2.6506228e-08
2.6518859e-08
2.6531131e-08
2.6543051e-08
2.6554642e-08
2.6565967e-08
2.657716e-08
2.6588189e-08
2.6599212e-08
2.6607415e-08
2.661345e-08
2.6618923e-08
2.6627365e-08
2.6637841e-08
2.6652535e-08
2.6670133e-08
2.66901e-08
2.6714029e-08
2.6745486e-08
2.6789664e-08
2.6858885e-08
2.6974146e-08
2.7168452e-08
2.7498476e-08
2.8071536e-08
2.9090595e-08
3.0948618e-08
3.442973e-08
4.1018806e-08
5.368731e-08
7.7422313e-08
1.2205857e-07
2.0378765e-07
3.4382662e-07
5.6471466e-07
8.9215022e-07
1.319434e-06
1.8695166e-06
2.4434788e-06
3.0113983e-06
3.6766181e-06
4.467766e-06
5.4086876e-06
6.5392422e-06
7.8717179e-06
9.4457863e-06
1.0752225e-05
1.203478e-05
1.3404836e-05
1.4851861e-05
1.6348619e-05
1.7895107e-05
1.9465751e-05
2.1036654e-05
2.2581352e-05
2.4055743e-05
2.552144e-05
2.6977397e-05
2.840949e-05
2.9790801e-05
3.1112572e-05
3.238052e-05
3.3602213e-05
3.478072e-05
3.5909094e-05
3.6987287e-05
3.8021691e-05
3.9023397e-05
3.9917614e-05
4.0720551e-05
4.1488516e-05
4.222467e-05
4.2931167e-05
4.3609333e-05
4.4261249e-05
4.4884434e-05
4.547841e-05
4.6045107e-05
4.6586622e-05
4.7104501e-05
4.7600603e-05
4.8073733e-05
4.8523869e-05
4.8952323e-05
4.9360575e-05
4.9750126e-05
5.0121097e-05
5.0472827e-05
5.0807538e-05
5.1121143e-05
5.1432958e-05
5.1672565e-05
5.2094151e-05
2.6353543e-08
2.6367273e-08
2.6381645e-08
2.6395918e-08
2.6409909e-08
2.6423567e-08
2.6436876e-08
2.644983e-08
2.6462424e-08
2.6474657e-08
2.6486533e-08
2.6498069e-08
2.6509305e-08
2.6520314e-08
2.653114e-08
2.6541785e-08
2.655216e-08
2.6562164e-08
2.6571708e-08
2.6580679e-08
2.6588845e-08
2.6594939e-08
2.6599194e-08
2.6602917e-08
2.6606593e-08
2.6610644e-08
2.6615643e-08
2.6622621e-08
2.6630901e-08
2.6640926e-08
2.6654703e-08
2.6671492e-08
2.6689759e-08
2.6710074e-08
2.6734632e-08
2.676759e-08
2.682001e-08
2.6917791e-08
2.7120182e-08
2.7562191e-08
2.8600069e-08
3.1075262e-08
3.7372897e-08
5.2646311e-08
9.0351793e-08
1.7738317e-07
3.5038802e-07
6.5780044e-07
1.1222812e-06
1.7710845e-06
2.4946706e-06
3.1729871e-06
3.950821e-06
4.8638332e-06
5.9698126e-06
7.3133551e-06
8.8933642e-06
1.0749226e-05
1.2211302e-05
1.3605363e-05
1.5103103e-05
1.6690335e-05
1.8340767e-05
2.0056243e-05
2.1798661e-05
2.3547903e-05
2.5233337e-05
2.6926427e-05
2.8638244e-05
3.0343606e-05
3.1999712e-05
3.360316e-05
3.5167376e-05
3.6697673e-05
3.8190883e-05
3.9626958e-05
4.0998409e-05
4.2315257e-05
4.3583915e-05
4.4803296e-05
4.5973673e-05
4.7104943e-05
4.8094834e-05
4.9012554e-05
4.9893287e-05
5.0739661e-05
5.1553371e-05
5.2336737e-05
5.308624e-05
5.3802373e-05
5.448749e-05
5.5143653e-05
5.577287e-05
5.6374837e-05
5.6948653e-05
5.7497364e-05
5.8015696e-05
5.853099e-05
5.8938016e-05
5.9645386e-05
2.635151e-08
2.6365123e-08
2.6379359e-08
2.639348e-08
2.6407306e-08
2.6420787e-08
2.6433907e-08
2.6446658e-08
2.6459033e-08
2.6471029e-08
2.6482643e-08
2.6493878e-08
2.6504742e-08
2.6515242e-08
2.6525372e-08
2.6535117e-08
2.654447e-08
2.6553432e-08
2.6562007e-08
2.6570178e-08
2.6577929e-08
2.6585208e-08
2.6591952e-08
2.6598127e-08
2.6603711e-08
2.6608681e-08
2.6613006e-08
2.6616644e-08
2.6619457e-08
2.6621184e-08
2.6621322e-08
2.6619298e-08
2.6616767e-08
2.6614231e-08
2.6612022e-08
2.6610545e-08
2.6610998e-08
2.6614311e-08
2.6620073e-08
2.6631232e-08
2.6647359e-08
2.666714e-08
2.6695455e-08
2.6745834e-08
2.6867104e-08
2.7221157e-08
2.8252745e-08
3.1498971e-08
4.128941e-08
7.0423974e-08
1.5181607e-07
3.3300521e-07
6.8514216e-07
1.2293225e-06
2.0273252e-06
2.8159909e-06
3.6225051e-06
4.5856489e-06
5.7454656e-06
7.1518481e-06
8.8347707e-06
1.0799402e-05
1.2912924e-05
1.4353571e-05
1.5913515e-05
1.7587305e-05
1.9344962e-05
2.1194157e-05
2.3097848e-05
2.5028548e-05
2.6906678e-05
2.8812177e-05
3.0751606e-05
3.269195e-05
3.4586641e-05
3.6450083e-05
3.8294115e-05
4.0109123e-05
4.1876997e-05
4.3588684e-05
4.5247905e-05
4.686453e-05
4.8419833e-05
4.9904781e-05
5.1328663e-05
5.2699803e-05
5.4019119e-05
5.5293612e-05
5.6396868e-05
5.7438501e-05
5.8440057e-05
5.9403784e-05
6.0332095e-05
6.1222954e-05
6.2075115e-05
6.2893039e-05
6.3670434e-05
6.4443506e-05
6.5066051e-05
6.6137396e-05
2.6366436e-08
2.638004e-08
2.6394264e-08
2.6408374e-08
2.6422185e-08
2.643565e-08
2.6448753e-08
2.6461484e-08
2.6473838e-08
2.6485809e-08
2.6497394e-08
2.6508592e-08
2.6519408e-08
2.6529843e-08
2.6539888e-08
2.6549525e-08
2.6558739e-08
2.6567523e-08
2.6575872e-08
2.6583782e-08
2.6591249e-08
2.6598272e-08
2.6604853e-08
2.6610987e-08
2.6616667e-08
2.6621883e-08
2.6626619e-08
2.6630856e-08
2.6634574e-08
2.6637746e-08
2.6640329e-08
2.6642255e-08
2.6643496e-08
2.6644042e-08
2.6643892e-08
2.6643034e-08
2.6641448e-08
2.6639049e-08
2.6635558e-08
2.6630053e-08
2.662144e-08
2.6612347e-08
2.6603852e-08
2.6597554e-08
2.6596542e-08
2.6599949e-08
2.6614327e-08
2.663472e-08
2.6669839e-08
2.6745084e-08
2.7030593e-08
2.7943936e-08
3.1535906e-08
4.3078989e-08
8.3720075e-08
2.0004001e-07
4.6375333e-07
9.4468047e-07
1.7394203e-06
2.6577342e-06
3.560319e-06
4.5773417e-06
5.8612709e-06
7.415535e-06
9.2817861e-06
1.14527e-05
1.3907081e-05
1.5609566e-05
1.727809e-05
1.907477e-05
2.0969429e-05
2.2971091e-05
2.5036104e-05
2.7123175e-05
2.917249e-05
3.1292362e-05
3.3465273e-05
3.5635147e-05
3.7775298e-05
3.9895251e-05
4.1996594e-05
4.4065552e-05
4.6094246e-05
4.8074631e-05
5.000733e-05
5.1883803e-05
5.3697036e-05
5.5456162e-05
5.7144506e-05
5.8758821e-05
6.030643e-05
6.1795979e-05
6.3235767e-05
6.4522449e-05
6.5706899e-05
6.6848445e-05
6.7939445e-05
6.9025169e-05
6.9912172e-05
7.1426857e-05
2.6380736e-08
2.6394351e-08
2.6408588e-08
2.6422712e-08
2.6436538e-08
2.6450018e-08
2.6463136e-08
2.6475884e-08
2.6488255e-08
2.6500244e-08
2.6511848e-08
2.6523068e-08
2.6533905e-08
2.6544362e-08
2.6554435e-08
2.6564109e-08
2.6573369e-08
2.6582206e-08
2.6590613e-08
2.6598584e-08
2.660611e-08
2.6613188e-08
2.6619812e-08
2.6625977e-08
2.6631679e-08
2.6636914e-08
2.6641677e-08
2.6645965e-08
2.6649772e-08
2.6653096e-08
2.6655935e-08
2.665829e-08
2.6660156e-08
2.6661522e-08
2.6662379e-08
2.6662713e-08
2.6662509e-08
2.666174e-08
2.6660381e-08
2.6658378e-08
2.6655623e-08
2.665207e-08
2.6647689e-08
2.6642468e-08
2.6636202e-08
2.6628759e-08
2.6615403e-08
2.6601303e-08
2.6587511e-08
2.6581231e-08
2.6579309e-08
2.6590071e-08
2.6611638e-08
2.6646875e-08
2.6755246e-08
2.7162305e-08
2.8924539e-08
3.535234e-08
6.1567442e-08
1.5133161e-07
3.8931952e-07
8.5471403e-07
1.6989183e-06
2.7138463e-06
3.7327962e-06
4.8817463e-06
6.3526829e-06
8.1556548e-06
1.0322304e-05
1.2803364e-05
1.5541802e-05
1.7403951e-05
1.9230138e-05
2.118473e-05
2.324395e-05
2.5412349e-05
2.764851e-05
2.9886025e-05
3.2164215e-05
3.4523362e-05
3.6920413e-05
3.9299404e-05
4.1675376e-05
4.4055854e-05
4.6422451e-05
4.8745355e-05
5.1018121e-05
5.3248139e-05
5.5438558e-05
5.7566657e-05
5.9629231e-05
6.1627387e-05
6.3562353e-05
6.5418446e-05
6.7192993e-05
6.8895029e-05
7.0528214e-05
7.2132095e-05
7.3349508e-05
7.5385174e-05
2.6396351e-08
2.640997e-08
2.6424212e-08
2.6438339e-08
2.6452168e-08
2.6465651e-08
2.6478771e-08
2.649152e-08
2.6503891e-08
2.651588e-08
2.6527483e-08
2.6538699e-08
2.6549528e-08
2.655997e-08
2.6570023e-08
2.6579672e-08
2.6588907e-08
2.6597719e-08
2.66061e-08
2.6614046e-08
2.662155e-08
2.6628607e-08
2.6635211e-08
2.6641357e-08
2.6647041e-08
2.6652258e-08
2.6657001e-08
2.6661268e-08
2.6665052e-08
2.6668351e-08
2.6671161e-08
2.6673479e-08
2.6675303e-08
2.6676631e-08
2.667746e-08
2.667779e-08
2.6677618e-08
2.6676944e-08
2.6675765e-08
2.6674085e-08
2.6671909e-08
2.6669235e-08
2.6666052e-08
2.6662344e-08
2.6658063e-08
2.6653198e-08
2.6647536e-08
2.6640991e-08
2.6633464e-08
2.6624973e-08
2.6615343e-08
2.6600361e-08
2.658249e-08
2.6565249e-08
2.6557231e-08
2.6554792e-08
2.6570858e-08
2.6597135e-08
2.6664819e-08
2.6912375e-08
2.8250111e-08
3.3381568e-08
5.7438904e-08
1.4929933e-07
4.1395422e-07
9.4127061e-07
1.9396348e-06
3.025433e-06
4.194491e-06
5.5739148e-06
7.3629422e-06
9.5435612e-06
1.213072e-05
1.5001489e-05
1.7919114e-05
1.9807848e-05
2.1830284e-05
2.3970305e-05
2.6227366e-05
2.8582223e-05
3.0990324e-05
3.3407096e-05
3.5937192e-05
3.8549215e-05
4.1164402e-05
4.3788704e-05
4.642864e-05
4.9063883e-05
5.1673138e-05
5.424698e-05
5.6784182e-05
5.9265972e-05
6.1680892e-05
6.404307e-05
6.6344466e-05
6.8570124e-05
7.071764e-05
7.2825076e-05
7.4654825e-05
7.7553454e-05
2.6415722e-08
2.6429344e-08
2.6443588e-08
2.6457716e-08
2.6471545e-08
2.6485027e-08
2.6498145e-08
2.6510891e-08
2.6523258e-08
2.6535241e-08
2.6546836e-08
2.6558039e-08
2.6568851e-08
2.6579268e-08
2.6589287e-08
2.6598896e-08
2.6608084e-08
2.6616843e-08
2.6625169e-08
2.6633055e-08
2.6640496e-08
2.6647487e-08
2.6654023e-08
2.6660099e-08
2.6665711e-08
2.6670853e-08
2.6675522e-08
2.6679712e-08
2.668342e-08
2.668664e-08
2.6689371e-08
2.6691607e-08
2.6693346e-08
2.6694585e-08
2.669532e-08
2.6695551e-08
2.6695275e-08
2.6694491e-08
2.6693199e-08
2.6691397e-08
2.6689087e-08
2.668627e-08
2.6682947e-08
2.6679122e-08
2.6674795e-08
2.6669967e-08
2.6664658e-08
2.6658869e-08
2.6652594e-08
2.6645779e-08
2.6638405e-08
2.663027e-08
2.6621182e-08
2.6611054e-08
2.6599773e-08
2.6587055e-08
2.6566164e-08
2.6544143e-08
2.6529223e-08
2.6520283e-08
2.653328e-08
2.6558617e-08
2.6614361e-08
2.6868587e-08
2.8240028e-08
3.4963036e-08
6.7251946e-08
1.9624969e-07
5.4984617e-07
1.2932211e-06
2.4939632e-06
3.739022e-06
5.1332547e-06
6.8825964e-06
9.1388811e-06
1.1884605e-05
1.4938986e-05
1.8184806e-05
2.0745756e-05
2.2876389e-05
2.5125748e-05
2.7479504e-05
2.9954991e-05
3.2521343e-05
3.5082067e-05
3.778918e-05
4.0608734e-05
4.3449797e-05
4.6317143e-05
4.9220618e-05
5.2135511e-05
5.5023595e-05
5.7875015e-05
6.0698991e-05
6.3478253e-05
6.6194891e-05
6.8840249e-05
7.1446802e-05
7.3768596e-05
7.7491493e-05
2.6437085e-08
2.6450714e-08
2.6464965e-08
2.64791e-08
2.6492936e-08
2.6506424e-08
2.6519548e-08
2.6532298e-08
2.6544669e-08
2.6556656e-08
2.6568252e-08
2.6579456e-08
2.6590265e-08
2.6600675e-08
2.6610683e-08
2.6620278e-08
2.6629451e-08
2.6638193e-08
2.6646499e-08
2.6654363e-08
2.6661781e-08
2.6668746e-08
2.6675254e-08
2.66813e-08
2.6686879e-08
2.6691986e-08
2.6696618e-08
2.6700769e-08
2.6704435e-08
2.6707612e-08
2.6710296e-08
2.6712485e-08
2.6714174e-08
2.671536e-08
2.6716042e-08
2.6716216e-08
2.671588e-08
2.6715034e-08
2.6713675e-08
2.6711802e-08
2.6709416e-08
2.6706514e-08
2.6703098e-08
2.6699167e-08
2.6694723e-08
2.6689767e-08
2.6684301e-08
2.667833e-08
2.6671859e-08
2.6664892e-08
2.665743e-08
2.6649496e-08
2.6641097e-08
2.6632234e-08
2.6622826e-08
2.6612865e-08
2.6601978e-08
2.6590015e-08
2.6576731e-08
2.6562943e-08
2.6540225e-08
2.6514609e-08
2.6496067e-08
2.6484467e-08
2.6497831e-08
2.6523325e-08
2.6605124e-08
2.6939672e-08
2.9435335e-08
4.2673178e-08
1.05193e-07
3.4454825e-07
9.1082062e-07
2.081772e-06
3.4207509e-06
4.9065136e-06
6.7350992e-06
9.0894358e-06
1.2042368e-05
1.5340009e-05
1.8821695e-05
2.2076449e-05
2.4346239e-05
2.6720237e-05
2.9184336e-05
3.1792114e-05
3.4509949e-05
3.7238963e-05
4.0131205e-05
4.3159752e-05
4.6227743e-05
4.9344443e-05
5.2511144e-05
5.5696144e-05
5.8866728e-05
6.2015724e-05
6.5123472e-05
6.821451e-05
7.097553e-05
7.5485856e-05
2.6457848e-08
2.6471488e-08
2.648575e-08
2.6499897e-08
2.6513745e-08
2.6527245e-08
2.6540379e-08
2.6553141e-08
2.6565524e-08
2.6577521e-08
2.6589129e-08
2.6600343e-08
2.6611161e-08
2.6621581e-08
2.6631596e-08
2.66412e-08
2.6650382e-08
2.6659135e-08
2.6667453e-08
2.6675329e-08
2.6682759e-08
2.6689736e-08
2.6696256e-08
2.6702314e-08
2.6707904e-08
2.6713022e-08
2.6717663e-08
2.6721822e-08
2.6725496e-08
2.6728679e-08
2.6731369e-08
2.6733562e-08
2.6735254e-08
2.6736442e-08
2.6737124e-08
2.6737296e-08
2.6736959e-08
2.6736108e-08
2.6734743e-08
2.6732864e-08
2.6730468e-08
2.6727555e-08
2.6724126e-08
2.672018e-08
2.6715717e-08
2.6710738e-08
2.6705245e-08
2.6699237e-08
2.6692717e-08
2.6685687e-08
2.6678149e-08
2.6670107e-08
2.6661567e-08
2.6652536e-08
2.6643022e-08
2.6633025e-08
2.6622582e-08
2.6611708e-08
2.6600322e-08
2.6588455e-08
2.6575691e-08
2.6561768e-08
2.6546497e-08
2.653067e-08
2.6505281e-08
2.6476594e-08
2.6458682e-08
2.6448313e-08
2.6463336e-08
2.651132e-08
2.6619541e-08
2.769652e-08
3.4439805e-08
7.3199276e-08
2.4313831e-07
7.2287374e-07
1.8689782e-06
3.2978966e-06
4.9070608e-06
6.8872673e-06
9.4173237e-06
1.2664937e-05
1.6263377e-05
2.0012087e-05
2.38065e-05
2.6244736e-05
2.8755868e-05
3.1352621e-05
3.4104216e-05
3.6979246e-05
3.9882341e-05
4.2988583e-05
4.6244771e-05
4.9555945e-05
5.2935959e-05
5.6379377e-05
5.9834537e-05
6.3332169e-05
6.6478923e-05
7.1719358e-05
2.6477287e-08
2.6490937e-08
2.6505211e-08
2.651937e-08
2.6533229e-08
2.654674e-08
2.6559886e-08
2.657266e-08
2.6585053e-08
2.6597062e-08
2.6608681e-08
2.6619907e-08
2.6630735e-08
2.6641165e-08
2.665119e-08
2.6660803e-08
2.6669996e-08
2.6678762e-08
2.6687093e-08
2.6694985e-08
2.670243e-08
2.6709423e-08
2.671596e-08
2.6722034e-08
2.6727642e-08
2.6732777e-08
2.6737436e-08
2.6741613e-08
2.6745305e-08
2.6748506e-08
2.6751214e-08
2.6753424e-08
2.6755133e-08
2.6756339e-08
2.6757038e-08
2.6757227e-08
2.6756906e-08
2.6756071e-08
2.6754723e-08
2.6752858e-08
2.6750478e-08
2.674758e-08
2.6744165e-08
2.6740233e-08
2.6735785e-08
2.673082e-08
2.672534e-08
2.6719345e-08
2.6712838e-08
2.6705819e-08
2.6698291e-08
2.6690256e-08
2.6681715e-08
2.6672673e-08
2.6663131e-08
2.6653093e-08
2.6642567e-08
2.6631559e-08
2.6620083e-08
2.6608135e-08
2.6595756e-08
2.6582975e-08
2.6569705e-08
2.6555982e-08
2.6541319e-08
2.6525419e-08
2.650805e-08
2.6489954e-08
2.64602e-08
2.6429566e-08
2.64135e-08
2.6406309e-08
2.6478361e-08
2.6384469e-08
2.7075863e-08
3.1518159e-08
6.176841e-08
2.0498911e-07
6.5956466e-07
1.8558261e-06
3.398954e-06
5.170752e-06
7.3763517e-06
1.0208546e-05
1.383143e-05
1.7776532e-05
2.1813285e-05
2.5866333e-05
2.8554889e-05
3.1221864e-05
3.3981713e-05
3.6910614e-05
3.9959765e-05
4.3079895e-05
4.6422973e-05
4.9911597e-05
5.3474397e-05
5.7195798e-05
6.0587972e-05
6.6403924e-05
2.6495455e-08
2.6509115e-08
2.65234e-08
2.6537569e-08
2.6551438e-08
2.656496e-08
2.6578116e-08
2.65909e-08
2.6603304e-08
2.6615323e-08
2.6626952e-08
2.6638187e-08
2.6649025e-08
2.6659462e-08
2.6669495e-08
2.6679115e-08
2.6688317e-08
2.6697091e-08
2.6705432e-08
2.6713334e-08
2.672079e-08
2.6727794e-08
2.6734342e-08
2.6740429e-08
2.6746048e-08
2.6751196e-08
2.6755867e-08
2.6760056e-08
2.676376e-08
2.6766974e-08
2.6769694e-08
2.6771917e-08
2.6773639e-08
2.6774857e-08
2.6775568e-08
2.677577e-08
2.6775461e-08
2.6774639e-08
2.6773303e-08
2.6771451e-08
2.6769083e-08
2.6766197e-08
2.6762795e-08
2.6758876e-08
2.675444e-08
2.6749488e-08
2.6744021e-08
2.673804e-08
2.6731546e-08
2.6724541e-08
2.6717028e-08
2.6709008e-08
2.6700483e-08
2.6691457e-08
2.6681931e-08
2.667191e-08
2.6661395e-08
2.6650391e-08
2.6638901e-08
2.662693e-08
2.6614484e-08
2.6601574e-08
2.6588214e-08
2.6574403e-08
2.6560186e-08
2.6545598e-08
2.6530521e-08
2.6514973e-08
2.6498437e-08
2.6480158e-08
2.6461517e-08
2.6436286e-08
2.6398541e-08
2.6375899e-08
2.6365027e-08
2.6389011e-08
2.6440411e-08
2.6856581e-08
3.0643716e-08
6.0965114e-08
2.0900075e-07
7.0542852e-07
2.0648077e-06
3.7749735e-06
5.7532862e-06
8.2665514e-06
1.1582815e-05
1.5627033e-05
1.9928016e-05
2.4251195e-05
2.8529435e-05
3.1338338e-05
3.4166181e-05
3.7109933e-05
4.0229552e-05
4.3457208e-05
4.6834231e-05
5.0515985e-05
5.3889658e-05
5.996641e-05
2.651245e-08
2.652612e-08
2.6540414e-08
2.6554593e-08
2.6568472e-08
2.6582003e-08
2.659517e-08
2.6607963e-08
2.6620376e-08
2.6632404e-08
2.6644042e-08
2.6655286e-08
2.6666132e-08
2.6676577e-08
2.6686616e-08
2.6696243e-08
2.670545e-08
2.6714232e-08
2.672258e-08
2.6730489e-08
2.6737953e-08
2.6744966e-08
2.6751522e-08
2.6757617e-08
2.6763245e-08
2.6768401e-08
2.6773081e-08
2.6777279e-08
2.6780991e-08
2.6784214e-08
2.6786942e-08
2.6789173e-08
2.6790904e-08
2.679213e-08
2.6792849e-08
2.6793059e-08
2.6792757e-08
2.6791943e-08
2.6790614e-08
2.6788769e-08
2.6786408e-08
2.678353e-08
2.6780135e-08
2.6776222e-08
2.6771793e-08
2.6766848e-08
2.6761387e-08
2.6755413e-08
2.6748926e-08
2.6741929e-08
2.6734423e-08
2.672641e-08
2.6717893e-08
2.6708874e-08
2.6699357e-08
2.6689344e-08
2.6678839e-08
2.6667845e-08
2.6656366e-08
2.6644405e-08
2.6631968e-08
2.6619057e-08
2.6605678e-08
2.6591836e-08
2.6577539e-08
2.6562801e-08
2.6547637e-08
2.6532042e-08
2.6516086e-08
2.649977e-08
2.6482971e-08
2.6465725e-08
2.6446223e-08
2.6426929e-08
2.6404579e-08
2.6367969e-08
2.6343494e-08
2.6324534e-08
2.6363451e-08
2.6351751e-08
2.6836757e-08
3.1275718e-08
6.9681931e-08
2.5878135e-07
9.0025026e-07
2.5204525e-06
4.4589876e-06
6.7720345e-06
9.7386508e-06
1.3625643e-05
1.8110347e-05
2.2751658e-05
2.7358774e-05
3.1577698e-05
3.4566771e-05
3.7589663e-05
4.0754196e-05
4.414837e-05
4.7213961e-05
5.312695e-05
2.6528352e-08
2.654203e-08
2.6556333e-08
2.6570521e-08
2.6584409e-08
2.6597949e-08
2.6611124e-08
2.6623926e-08
2.6636348e-08
2.6648385e-08
2.6660032e-08
2.6671283e-08
2.6682137e-08
2.6692588e-08
2.6702633e-08
2.6712265e-08
2.6721478e-08
2.6730265e-08
2.6738618e-08
2.6746533e-08
2.6754003e-08
2.6761023e-08
2.6767586e-08
2.6773687e-08
2.6779322e-08
2.6784484e-08
2.678917e-08
2.6793375e-08
2.6797094e-08
2.6800323e-08
2.6803057e-08
2.6805295e-08
2.6807031e-08
2.6808262e-08
2.6808987e-08
2.6809203e-08
2.6808906e-08
2.6808097e-08
2.6806773e-08
2.6804933e-08
2.6802576e-08
2.6799702e-08
2.6796311e-08
2.6792403e-08
2.6787977e-08
2.6783036e-08
2.6777579e-08
2.6771608e-08
2.6765124e-08
2.675813e-08
2.6750627e-08
2.6742617e-08
2.6734103e-08
2.6725087e-08
2.6715572e-08
2.6705563e-08
2.669506e-08
2.6684069e-08
2.6672593e-08
2.6660636e-08
2.6648203e-08
2.6635296e-08
2.6621923e-08
2.6608085e-08
2.659379e-08
2.6579042e-08
2.6563846e-08
2.6548209e-08
2.653214e-08
2.6515662e-08
2.6498772e-08
2.6481514e-08
2.6463943e-08
2.6445981e-08
2.6427606e-08
2.6407853e-08
2.6386667e-08
2.6364684e-08
2.6325242e-08
2.629967e-08
2.6271155e-08
2.6344149e-08
2.6218017e-08
2.7053157e-08
3.4092084e-08
9.6466525e-08
3.8393936e-07
1.4138699e-06
3.2726378e-06
5.4728374e-06
8.2383126e-06
1.1897945e-05
1.6422653e-05
2.1365634e-05
2.631646e-05
3.1210877e-05
3.5149645e-05
3.8351719e-05
4.1265621e-05
4.6699655e-05
2.654323e-08
2.6556916e-08
2.6571228e-08
2.6585424e-08
2.6599321e-08
2.6612869e-08
2.6626053e-08
2.6638863e-08
2.6651293e-08
2.6663337e-08
2.6674992e-08
2.6686251e-08
2.6697111e-08
2.6707568e-08
2.6717618e-08
2.6727254e-08
2.6736472e-08
2.6745263e-08
2.6753621e-08
2.6761541e-08
2.6769015e-08
2.6776039e-08
2.6782607e-08
2.6788713e-08
2.6794352e-08
2.679952e-08
2.6804211e-08
2.680842e-08
2.6812143e-08
2.6815376e-08
2.6818116e-08
2.6820357e-08
2.6822097e-08
2.6823333e-08
2.6824061e-08
2.6824281e-08
2.6823988e-08
2.6823182e-08
2.6821861e-08
2.6820024e-08
2.681767e-08
2.6814799e-08
2.681141e-08
2.6807503e-08
2.680308e-08
2.679814e-08
2.6792685e-08
2.6786715e-08
2.6780233e-08
2.6773239e-08
2.6765737e-08
2.6757728e-08
2.6749214e-08
2.6740199e-08
2.6730685e-08
2.6720675e-08
2.6710173e-08
2.6699182e-08
2.6687706e-08
2.6675749e-08
2.6663315e-08
2.6650408e-08
2.6637034e-08
2.6623197e-08
2.6608903e-08
2.6594155e-08
2.6578961e-08
2.6563325e-08
2.6547252e-08
2.6530749e-08
2.6513823e-08
2.6496479e-08
2.6478741e-08
2.6460617e-08
2.6442112e-08
2.6423342e-08
2.6404151e-08
2.6384718e-08
2.6363681e-08
2.6341546e-08
2.6318704e-08
2.6273641e-08
2.6245237e-08
2.6225874e-08
2.6280764e-08
2.6276637e-08
2.7847997e-08
4.4733472e-08
1.6847453e-07
6.6812785e-07
2.2704224e-06
4.4706615e-06
7.0800876e-06
1.0478144e-05
1.4969451e-05
2.0094315e-05
2.5390145e-05
3.0727984e-05
3.5398825e-05
4.0844429e-05
2.6557153e-08
2.6570846e-08
2.6585166e-08
2.659937e-08
2.6613275e-08
2.6626831e-08
2.6640022e-08
2.6652839e-08
2.6665277e-08
2.6677329e-08
2.668899e-08
2.6700256e-08
2.6711122e-08
2.6721584e-08
2.6731639e-08
2.6741279e-08
2.67505e-08
2.6759294e-08
2.6767655e-08
2.6775578e-08
2.6783056e-08
2.6790083e-08
2.6796654e-08
2.6802764e-08
2.6808406e-08
2.6813577e-08
2.6818271e-08
2.6822483e-08
2.6826209e-08
2.6829445e-08
2.6832187e-08
2.6834431e-08
2.6836174e-08
2.6837412e-08
2.6838143e-08
2.6838364e-08
2.6838073e-08
2.6837269e-08
2.6835949e-08
2.6834114e-08
2.6831761e-08
2.682889e-08
2.6825502e-08
2.6821596e-08
2.6817173e-08
2.6812234e-08
2.6806778e-08
2.6800808e-08
2.6794326e-08
2.6787331e-08
2.6779828e-08
2.6771818e-08
2.6763303e-08
2.6754287e-08
2.6744771e-08
2.6734759e-08
2.6724255e-08
2.6713262e-08
2.6701784e-08
2.6689825e-08
2.6677388e-08
2.6664479e-08
2.6651103e-08
2.6637263e-08
2.6622965e-08
2.6608215e-08
2.6593018e-08
2.6577379e-08
2.6561304e-08
2.65448e-08
2.6527872e-08
2.6510526e-08
2.6492768e-08
2.6474606e-08
2.6456045e-08
2.6437102e-08
2.6417799e-08
2.6398122e-08
2.6378227e-08
2.6357862e-08
2.6337602e-08
2.631472e-08
2.6292609e-08
2.6265743e-08
2.622221e-08
2.6191616e-08
2.6197937e-08
2.6224413e-08
2.6507244e-08
3.0626906e-08
7.8152359e-08
3.5352869e-07
1.4032038e-06
3.4847973e-06
6.0516525e-06
9.3212263e-06
1.3729562e-05
1.913083e-05
2.4210196e-05
3.2963614e-05
2.6570184e-08
2.6583884e-08
2.6598211e-08
2.6612423e-08
2.6626335e-08
2.6639898e-08
2.6653096e-08
2.666592e-08
2.6678365e-08
2.6690423e-08
2.6702091e-08
2.6713363e-08
2.6724235e-08
2.6734702e-08
2.674476e-08
2.6754403e-08
2.6763627e-08
2.6772423e-08
2.6780787e-08
2.6788712e-08
2.6796192e-08
2.6803221e-08
2.6809794e-08
2.6815906e-08
2.682155e-08
2.6826722e-08
2.6831418e-08
2.6835632e-08
2.6839359e-08
2.6842597e-08
2.684534e-08
2.6847585e-08
2.6849328e-08
2.6850567e-08
2.6851299e-08
2.6851521e-08
2.685123e-08
2.6850426e-08
2.6849107e-08
2.6847271e-08
2.6844918e-08
2.6842047e-08
2.6838658e-08
2.6834752e-08
2.6830327e-08
2.6825386e-08
2.6819929e-08
2.6813957e-08
2.6807473e-08
2.6800476e-08
2.679297e-08
2.6784958e-08
2.677644e-08
2.676742e-08
2.6757901e-08
2.6747886e-08
2.6737378e-08
2.6726382e-08
2.6714899e-08
2.6702936e-08
2.6690495e-08
2.6677581e-08
2.66642e-08
2.6650355e-08
2.6636053e-08
2.6621297e-08
2.6606095e-08
2.659045e-08
2.657437e-08
2.655786e-08
2.6540927e-08
2.6523576e-08
2.6505814e-08
2.6487648e-08
2.6469083e-08
2.6450127e-08
2.6430786e-08
2.6411066e-08
2.6390986e-08
2.6370563e-08
2.63498e-08
2.6328828e-08
2.6307525e-08
2.6286138e-08
2.6262083e-08
2.6239903e-08
2.6202424e-08
2.6167357e-08
2.6131287e-08
2.6194538e-08
2.6118055e-08
2.7515039e-08
4.4136407e-08
1.8594979e-07
8.1424661e-07
2.7408975e-06
5.2873679e-06
8.7150033e-06
1.2229698e-05
2.1142942e-05
2.6582384e-08
2.6596091e-08
2.6610425e-08
2.6624643e-08
2.6638562e-08
2.6652132e-08
2.6665336e-08
2.6678167e-08
2.6690618e-08
2.6702683e-08
2.6714356e-08