/*--------------------------------*- C++ -*----------------------------------*\
  =========                 |
  \\      /  F ield         | OpenFOAM: The Open Source CFD Toolbox
   \\    /   O peration     | Website:  https://openfoam.org
    \\  /    A nd           | Version:  12
     \\/     M anipulation  |
\*---------------------------------------------------------------------------*/
FoamFile
{
    format      ascii;
    class       volScalarField;
    location    "500";
    object      omega;
}
// * * * * * * * * * * * * * * * * * * * * * * * * * * * * * * * * * * * * * //

dimensions      [0 0 -1 0 0 0 0];

internalField   nonuniform List<scalar> 
13056
(
409.35773
188.56017
177.41495
175.28904
175.21204
175.50476
175.72214
175.85036
175.9367
176.00686
176.07041
176.13079
176.18966
176.2482
176.30725
176.36749
176.42918
176.49443
176.55544
176.65487
176.60806
177.20853
175.20317
243.80218
15925793
15925793
15925793
15925793
15925793
15925793
15925793
15925793
15925793
15925793
15925793
15925793
15925793
15925793
15925793
15925793
15925793
15925793
15925793
15925793
15925793
15925793
15925793
15925793
15925793
15925793
15925793
15925793
15925793
15925793
15925793
15925793
15925793
15925793
15925793
15925793
15925793
15925793
15925793
15925793
15925793
15925793
15925793
15925793
15925793
15925793
15925793
15925793
15925793
15925793
15925793
15925793
15925793
15925793
15925793
15925793
15925793
15925793
15925793
15925793
15925793
15925793
15925793
15925793
15925793
15925793
15925793
15925793
15925793
15925793
15925793
15925793
15925793
15925793
15925793
15925793
15925793
15925793
15925793
15925793
15925793
15925793
15925793
15925793
15925793
15925793
15925793
15925793
15925793
15925793
15925793
15925793
15925793
15925793
15925793
15925793
15925793
15925793
15925793
15925793
15925793
15925793
15925793
15925793
15925793
15925793
15925793
15925793
15925793
15925793
15925793
15925793
409.36394
188.52242
177.36055
175.23225
175.15397
175.44658
175.66394
175.7922
175.87857
175.94877
176.01234
176.07273
176.13162
176.19016
176.24922
176.30947
176.37115
176.43641
176.49741
176.59681
176.54985
177.15183
175.1392
240.68011
2727974.1
2723733
2723624.1
2723623.2
2723615.2
2723603.5
2723592.4
2723582.9
2723574.9
2723568
2723562
2723556.6
2723551.8
2723547.4
2723543.3
2723539.6
2723536.1
2723532.9
2723530
2723527.2
2723524.6
2723522.2
2723519.8
2723517.6
2723515.6
2723513.6
2723511.7
2723509.9
2723508.2
2723506.6
2723505
2723503.4
2723502
2723500.6
2723499.2
2723497.9
2723496.6
2723495.3
2723494.1
2723492.9
2723491.8
2723490.7
2723489.6
2723488.5
2723487.5
2723486.4
2723485.4
2723484.4
2723483.5
2723482.5
2723481.6
2723480.7
2723479.8
2723478.9
2723478
2723477.1
2723476.3
2723475.4
2723474.6
2723473.8
2723473
2723472.2
2723471.4
2723470.6
2723469.8
2723469
2723468.2
2723467.4
2723466.7
2723465.9
2723465.2
2723464.4
2723463.6
2723462.9
2723462.1
2723461.4
2723460.6
2723459.9
2723459.1
2723458.3
2723457.6
2723456.8
2723456.1
2723455.3
2723454.5
2723453.7
2723452.9
2723452.1
2723451.3
2723450.5
2723449.8
2723449.1
2723448.4
2723447.7
2723447.1
2723446.5
2723445.9
2723445.4
2723444.9
2723444.4
2723443.9
2723443.4
2723443
2723442.5
2723442.1
2723441.7
2723441.3
2723440.9
2723440.6
2723440.2
2723439.9
2723439.3
409.38428
188.37733
177.16467
175.0285
174.94618
175.23801
175.45523
175.58356
175.67002
175.74026
175.80386
175.86427
175.92316
175.98172
176.04077
176.101
176.16266
176.2279
176.28886
176.38821
176.34108
176.94528
174.91972
237.01899
912033.86
910431.67
910286.15
910282.88
910254.94
910219.36
910186.79
910159.27
910135.92
910115.75
910098.08
910082.42
910068.17
910055.12
910043.13
910032.1
910021.92
910012.48
910003.68
909995.46
909987.74
909980.46
909973.58
909967.07
909960.89
909955.01
909949.41
909944.06
909938.92
909934.01
909929.28
909924.73
909920.34
909916.11
909912.02
909908.05
909904.21
909900.48
909896.84
909893.31
909889.87
909886.5
909883.21
909879.99
909876.85
909873.77
909870.76
909867.8
909864.9
909862.06
909859.26
909856.5
909853.79
909851.11
909848.48
909845.88
909843.31
909840.77
909838.26
909835.78
909833.33
909830.89
909828.48
909826.09
909823.71
909821.35
909819.01
909816.68
909814.36
909812.06
909809.76
909807.47
909805.18
909802.9
909800.62
909798.34
909796.06
909793.78
909791.5
909789.21
909786.91
909784.6
909782.29
909779.96
909777.61
909775.25
909772.86
909770.46
909768.02
909765.62
909763.31
909761.12
909759.03
909757.05
909755.16
909753.35
909751.62
909749.97
909748.39
909746.87
909745.4
909743.99
909742.64
909741.33
909740.06
909738.84
909737.65
909736.49
909735.38
909734.23
909733.22
909731.57
409.4193
188.12184
176.82222
174.67232
174.58322
174.87346
175.09042
175.21887
175.30544
175.37575
175.43939
175.49981
175.55871
175.61727
175.6763
175.7365
175.79811
175.86331
175.9242
176.02344
175.97617
176.5829
174.53947
233.14041
424469.52
421884.25
421646.84
421635.04
421575.22
421501.43
421434.42
421377.84
421329.78
421288.24
421251.8
421219.48
421190.04
421163.09
421138.3
421115.47
421094.41
421074.87
421056.65
421039.61
421023.6
421008.5
420994.23
420980.72
420967.89
420955.67
420944.02
420932.9
420922.23
420912
420902.17
420892.69
420883.56
420874.75
420866.22
420857.96
420849.95
420842.17
420834.6
420827.24
420820.05
420813.02
420806.16
420799.45
420792.89
420786.47
420780.17
420774
420767.94
420761.99
420756.14
420750.38
420744.71
420739.12
420733.61
420728.17
420722.8
420717.49
420712.24
420707.05
420701.9
420696.81
420691.75
420686.74
420681.77
420676.83
420671.92
420667.03
420662.18
420657.34
420652.52
420647.71
420642.92
420638.14
420633.35
420628.57
420623.78
420619
420614.2
420609.39
420604.57
420599.72
420594.85
420589.95
420585.02
420580.05
420575.04
420569.98
420564.87
420559.8
420554.94
420550.34
420545.95
420541.76
420537.78
420533.98
420530.35
420526.86
420523.53
420520.32
420517.24
420514.27
420511.41
420508.65
420505.98
420503.4
420500.9
420498.45
420496.1
420493.68
420491.55
420488.08
409.46991
187.75125
176.32514
174.1551
174.05641
174.34411
174.56068
174.68929
174.776
174.8464
174.91008
174.97053
175.02943
175.08797
175.14697
175.20712
175.26867
175.33379
175.39458
175.49367
175.44627
176.0554
173.98976
229.09604
238287.76
234366.99
233986.94
233954.43
233850.91
233726.3
233613.62
233518.42
233437.45
233367.4
233305.92
233251.33
233201.58
233155.99
233114.05
233075.4
233039.71
233006.57
232975.66
232946.74
232919.54
232893.89
232869.63
232846.64
232824.81
232804.01
232784.18
232765.22
232747.03
232729.59
232712.82
232696.65
232681.06
232666.02
232651.44
232637.32
232623.63
232610.33
232597.39
232584.79
232572.49
232560.46
232548.7
232537.21
232525.97
232514.97
232504.18
232493.6
232483.21
232473.01
232462.96
232453.08
232443.35
232433.75
232424.28
232414.94
232405.71
232396.59
232387.56
232378.63
232369.79
232361.02
232352.33
232343.7
232335.14
232326.63
232318.17
232309.76
232301.39
232293.06
232284.75
232276.46
232268.2
232259.95
232251.69
232243.43
232235.17
232226.91
232218.63
232210.32
232201.98
232193.61
232185.19
232176.72
232168.2
232159.6
232150.92
232142.16
232133.31
232124.54
232116.13
232108.15
232100.54
232093.29
232086.39
232079.8
232073.49
232067.45
232061.66
232056.1
232050.75
232045.6
232040.63
232035.84
232031.21
232026.73
232022.38
232018.13
232014.04
232009.83
232006.13
232000.1
409.53729
187.25948
175.66274
173.46543
173.35406
173.63815
173.85415
173.98295
174.06985
174.14035
174.20409
174.26456
174.32346
174.38198
174.44093
174.50102
174.56247
174.6275
174.68815
174.78703
174.73952
175.35094
173.2583
224.88183
151093.2
146119.15
145533.08
145458.95
145301.86
145118.09
144952.41
144812.25
144692.87
144589.46
144498.62
144417.87
144344.24
144276.72
144214.53
144157.17
144104.15
144054.89
144008.9
143965.83
143925.3
143887.05
143850.85
143816.52
143783.9
143752.8
143723.14
143694.76
143667.52
143641.38
143616.25
143592
143568.61
143546.02
143524.13
143502.9
143482.32
143462.33
143442.85
143423.88
143405.36
143387.24
143369.53
143352.21
143335.27
143318.68
143302.4
143286.42
143270.74
143255.32
143240.15
143225.21
143210.49
143195.97
143181.65
143167.51
143153.54
143139.72
143126.04
143112.51
143099.1
143085.81
143072.62
143059.53
143046.53
143033.61
143020.76
143007.98
142995.26
142982.59
142969.95
142957.35
142944.77
142932.21
142919.64
142907.06
142894.48
142881.88
142869.25
142856.57
142843.86
142831.09
142818.23
142805.29
142792.27
142779.13
142765.86
142752.47
142738.93
142725.49
142712.62
142700.4
142688.74
142677.64
142667.06
142656.95
142647.28
142638.01
142629.13
142620.59
142612.38
142604.47
142596.84
142589.48
142582.37
142575.47
142568.79
142562.26
142555.98
142549.5
142543.8
142534.52
409.62283
186.63959
174.82193
172.58929
172.46178
172.74105
172.95627
173.08529
173.17241
173.24304
173.30683
173.36732
173.42622
173.48471
173.5436
173.6036
173.66493
173.72982
173.7903
173.88893
173.84133
174.45495
172.3299
220.48017
104687.61
99076.254
98204.188
98056.29
97839.189
97594.732
97375.035
97188.828
97029.949
96892.134
96770.911
96663.018
96564.564
96474.178
96390.829
96313.85
96242.616
96176.344
96114.413
96056.361
96001.669
95950.004
95901.062
95854.614
95810.437
95768.279
95728.042
95689.52
95652.515
95616.982
95582.786
95549.774
95517.911
95487.119
95457.261
95428.292
95400.19
95372.867
95346.239
95320.292
95294.943
95270.143
95245.879
95222.143
95198.919
95176.156
95153.814
95131.879
95110.332
95089.14
95068.275
95047.723
95027.46
95007.475
94987.743
94968.251
94948.984
94929.922
94911.049
94892.361
94873.843
94855.467
94837.23
94819.125
94801.14
94783.258
94765.464
94747.752
94730.122
94712.553
94695.021
94677.52
94660.057
94642.611
94625.141
94607.65
94590.151
94572.623
94555.036
94537.381
94519.665
94501.86
94483.931
94465.877
94447.694
94429.344
94410.805
94392.079
94373.134
94354.337
94336.308
94319.194
94302.857
94287.294
94272.46
94258.288
94244.715
94231.702
94219.223
94207.237
94195.698
94184.572
94173.843
94163.49
94153.485
94143.785
94134.381
94125.181
94116.33
94107.212
94099.171
94086.097
409.72811
185.88426
173.78767
171.51045
171.36287
171.6359
171.85007
171.97932
172.0667
172.13746
172.20132
172.26183
172.32072
172.37916
172.43797
172.49786
172.55905
172.62378
172.68405
172.78235
172.73468
173.35045
171.18695
215.87195
77714.073
71941.878
70680.248
70413.753
70134.823
69836.983
69570.465
69344.069
69150.536
68982.421
68834.326
68702.303
68581.767
68470.96
68368.613
68273.933
68186.182
68104.422
68027.912
67956.097
67888.353
67824.278
67763.507
67705.766
67650.787
67598.265
67548.083
67499.992
67453.751
67409.305
67366.493
67325.127
67285.165
67246.513
67209.004
67172.582
67137.221
67102.815
67069.259
67036.536
67004.553
66973.247
66942.598
66912.595
66883.218
66854.405
66826.107
66798.306
66770.979
66744.084
66717.589
66691.473
66665.71
66640.283
66615.164
66590.335
66565.778
66541.468
66517.385
66493.523
66469.864
66446.374
66423.046
66399.875
66376.844
66353.932
66331.119
66308.398
66285.769
66263.205
66240.675
66218.174
66195.707
66173.249
66150.747
66128.206
66105.64
66083.024
66060.318
66037.51
66014.609
65991.58
65968.375
65944.995
65921.432
65897.639
65873.584
65849.27
65824.655
65800.217
65776.761
65754.484
65733.21
65712.933
65693.595
65675.11
65657.397
65640.407
65624.106
65608.442
65593.356
65578.804
65564.765
65551.212
65538.11
65525.404
65513.08
65501.02
65489.412
65477.453
65466.899
65449.735
409.85474
184.98651
172.54337
170.21081
170.03864
170.30379
170.51655
170.64602
170.73369
170.8046
170.86852
170.92905
170.98791
171.0463
171.10501
171.16476
171.22577
171.29029
171.35031
171.44822
171.40052
172.01837
169.80986
211.04087
60897.528
55441.852
53669.588
53229.379
52890.948
52555.321
52257.158
52003.373
51786.104
51597.169
51430.511
51281.699
51145.845
51020.785
50905.061
50797.803
50698.209
50605.256
50518.129
50436.217
50358.829
50285.524
50215.897
50149.648
50086.483
50026.061
49968.254
49912.788
49859.393
49808.008
49758.456
49710.527
49664.171
49619.287
49575.689
49533.308
49492.121
49452.008
49412.849
49374.625
49337.246
49300.64
49264.771
49229.628
49195.187
49161.379
49128.147
49095.471
49063.324
49031.661
49000.444
48969.648
48939.243
48909.212
48879.521
48850.15
48821.078
48792.276
48763.721
48735.407
48707.312
48679.397
48651.653
48624.075
48596.643
48569.333
48542.119
48514.995
48487.961
48460.985
48434.028
48407.085
48380.163
48353.233
48326.228
48299.155
48272.032
48244.827
48217.494
48190.015
48162.403
48134.613
48106.59
48078.331
48049.827
48021.021
47991.873
47962.386
47932.508
47902.818
47874.296
47847.186
47821.289
47796.586
47773.01
47750.459
47728.834
47708.079
47688.153
47668.994
47650.531
47632.712
47615.512
47598.899
47582.83
47567.238
47552.109
47537.297
47523.033
47508.333
47495.353
47474.231
410.00426
183.94046
171.07141
168.67087
168.46888
168.7242
168.93509
169.06472
169.15269
169.22376
169.28774
169.34827
169.40709
169.4654
169.52398
169.58357
169.64436
169.70864
169.76836
169.86581
169.81811
170.43797
168.17762
205.97535
49694.601
44974.542
42579.244
41908.495
41514.142
41159.828
40849.113
40584.467
40357.855
40160.818
39986.926
39831.498
39689.824
39559.291
39438.303
39325.959
39221.447
39123.74
39032.003
38945.613
38863.866
38786.309
38712.531
38642.224
38575.089
38510.779
38449.161
38389.96
38332.894
38277.902
38224.804
38173.382
38123.584
38075.309
38028.364
37982.676
37938.221
37894.879
37852.523
37811.129
37770.637
37730.964
37692.053
37653.887
37616.445
37579.655
37543.457
37507.827
37472.74
37438.148
37404.01
37370.301
37336.987
37304.051
37271.46
37239.188
37207.214
37175.508
37144.045
37112.82
37081.806
37050.962
37020.281
36989.754
36959.362
36929.075
36898.869
36868.735
36838.673
36808.647
36778.616
36748.572
36718.524
36688.437
36658.239
36627.937
36597.55
36567.042
36536.359
36505.484
36474.428
36443.141
36411.56
36379.68
36347.491
36314.926
36281.939
36248.532
36214.645
36180.934
36148.514
36117.671
36088.196
36060.055
36033.173
36007.435
35982.735
35959.008
35936.211
35914.276
35893.121
35872.69
35852.954
35833.88
35815.418
35797.494
35780.09
35763.041
35746.614
35729.672
35714.706
35690.333
410.17793
182.74228
169.35369
166.87016
166.63231
166.87545
167.08385
167.21355
167.30181
167.37303
167.43705
167.49756
167.55632
167.61452
167.67295
167.73233
167.79286
167.85685
167.91623
168.01313
167.96549
168.58721
166.26857
200.66895
41694.14
38027.334
34950.184
34002.598
33553.102
33195.4
32888.488
32627.624
32404.712
32211.337
32040.887
31888.592
31750.376
31623.071
31504.972
31395.171
31292.887
31197.142
31107.135
31022.26
30941.845
30865.451
30792.681
30723.243
30656.851
30593.168
30532.069
30473.294
30416.57
30361.836
30308.924
30257.622
30207.877
30159.599
30112.599
30066.801
30022.188
29978.647
29936.05
29894.37
29853.603
29813.657
29774.439
29735.93
29698.111
29660.914
29624.277
29588.177
29552.59
29517.471
29482.778
29448.484
29414.557
29380.983
29347.727
29314.764
29282.071
29249.62
29217.387
29185.365
29153.527
29121.832
29090.274
29058.843
29027.518
28996.27
28965.074
28933.922
28902.811
28871.707
28840.565
28809.378
28778.154
28746.857
28715.412
28683.825
28652.114
28620.243
28588.155
28555.831
28523.279
28490.449
28457.271
28423.742
28389.846
28355.514
28320.694
28285.386
28249.525
28213.805
28179.409
28146.652
28115.345
28085.421
28056.805
28029.38
28003.034
27977.701
27953.339
27929.876
27907.229
27885.338
27864.175
27843.706
27823.877
27804.612
27785.893
27767.542
27749.849
27731.584
27715.443
27689.126
410.37645
181.39136
167.37233
164.7879
164.50708
164.73522
164.94033
165.06993
165.15843
165.22975
165.29377
165.35423
165.4129
165.47096
165.52919
165.58832
165.64854
165.71218
165.77117
165.86742
165.81993
166.44319
164.06133
195.12068
35545.809
33153.41
29428.845
28176.44
27667.34
27312.835
27018.518
26769.843
26558.38
26375.858
26215.561
26072.674
25944.094
25825.925
25716.356
25614.472
25519.525
25430.619
25347.005
25268.113
25193.323
25122.225
25054.45
24989.724
24927.786
24868.326
24811.224
24756.248
24703.147
24651.858
24602.234
24554.078
24507.339
24461.937
24417.7
24374.555
24332.484
24291.392
24251.155
24211.744
24173.237
24135.531
24098.485
24062.072
24026.281
23991.05
23956.318
23922.061
23888.261
23854.878
23821.871
23789.211
23756.872
23724.842
23693.087
23661.582
23630.304
23599.232
23568.341
23537.623
23507.052
23476.59
23446.232
23415.969
23385.778
23355.632
23325.508
23295.398
23265.297
23235.173
23204.983
23174.72
23144.39
23113.957
23083.35
23052.574
23021.644
22990.524
22959.158
22927.527
22895.639
22863.439
22830.863
22797.903
22764.542
22730.71
22696.355
22661.474
22626
22590.62
22556.506
22523.988
22492.923
22463.198
22434.741
22407.438
22381.181
22355.91
22331.583
22308.132
22285.475
22263.556
22242.348
22221.816
22201.912
22182.557
22163.737
22145.271
22127.457
22109.041
22092.767
22066.195
410.59955
179.89163
165.11042
162.40354
162.07141
162.28116
162.4819
162.6111
162.69974
162.7711
162.83506
162.89542
162.95394
163.0118
163.06978
163.12861
163.18847
163.2517
163.31023
163.40572
163.35849
163.9827
161.53604
189.3367
30479.653
29483.718
25252.347
23705.993
23129.043
22775.626
22494.825
22259.994
22061.786
21892.003
21743.796
21612.273
21495.541
21388.712
21289.872
21198.082
21112.611
21032.642
20957.482
20886.594
20819.415
20755.565
20694.702
20636.575
20580.942
20527.525
20476.208
20426.791
20379.047
20332.912
20288.258
20244.91
20202.815
20161.906
20122.034
20083.122
20045.159
20008.064
19971.724
19936.103
19901.394
19867.471
19834.131
19801.338
19769.087
19737.326
19705.996
19675.073
19644.544
19614.376
19584.53
19554.977
19525.694
19496.674
19467.887
19439.304
19410.908
19382.68
19354.6
19326.656
19298.825
19271.074
19243.399
19215.791
19188.227
19160.683
19133.14
19105.588
19078.024
19050.414
19022.724
18994.946
18967.083
18939.1
18910.936
18882.593
18854.083
18825.371
18796.407
18767.172
18737.671
18707.853
18677.657
18647.075
18616.09
18584.633
18552.656
18520.153
18487.061
18454.017
18422.12
18391.697
18362.681
18334.892
18308.259
18282.683
18258.064
18234.348
18211.497
18189.45
18168.133
18147.492
18127.506
18108.143
18089.356
18071.075
18053.286
18035.817
18018.956
18001.497
17986.077
17960.853
410.84548
178.2532
162.55304
159.69763
159.30432
159.49153
159.6865
159.81486
159.90345
159.97472
160.03852
160.09868
160.15698
160.21458
160.27224
160.33069
160.39011
160.45285
160.51087
160.60548
160.55868
161.18272
158.67615
183.33004
26064.375
26479.085
21966.749
20171.868
19522.866
19166.582
18898.196
18677.111
18492.254
18335.386
18199.536
18079.722
17974.113
17878.021
17789.447
17707.411
17631.17
17559.97
17493.163
17430.236
17370.677
17314.128
17260.272
17208.87
17159.701
17112.513
17067.193
17023.566
16981.431
16940.72
16901.323
16863.085
16825.949
16789.862
16754.695
16720.371
16686.877
16654.152
16622.092
16590.655
16560.175
16530.495
16501.329
16472.631
16444.403
16416.602
16389.172
16362.089
16335.343
16308.91
16282.752
16256.841
16231.157
16205.698
16180.437
16155.345
16130.405
16105.605
16080.929
16056.361
16031.881
16007.46
15983.099
15958.787
15934.501
15910.22
15885.93
15861.623
15837.291
15812.905
15788.438
15763.881
15739.235
15714.469
15689.53
15664.42
15639.147
15613.679
15587.972
15562.009
15535.792
15509.275
15482.405
15455.172
15427.559
15399.505
15370.966
15341.934
15312.35
15282.786
15254.222
15226.981
15201.092
15176.282
15152.487
15129.618
15107.591
15086.357
15065.884
15046.118
15026.994
15008.467
14990.515
14973.113
14956.218
14939.768
14923.753
14908.014
14892.82
14877.056
14863.149
14840.354
411.11236
176.49174
159.68827
156.6528
156.18648
156.34608
156.53343
156.66027
156.74852
156.81949
156.88298
156.94281
157.00077
157.058
157.11526
157.17324
157.23213
157.29429
157.35171
157.44528
157.39918
158.02113
155.47073
177.11674
22072.892
23801.407
19295.028
17313.93
16593.833
16230.753
15973.188
15765.321
15593.414
15449.039
15325.147
15216.693
15121.026
15034.559
14955.265
14882.106
14814.315
14751.176
14692.081
14636.536
14584.067
14534.34
14487.054
14441.981
14398.916
14357.628
14318.005
14279.898
14243.125
14207.613
14173.271
14139.96
14107.622
14076.21
14045.618
14015.766
13986.643
13958.201
13930.347
13903.034
13876.582
13850.862
13825.599
13800.743
13776.296
13752.227
13728.481
13705.034
13681.879
13658.999
13636.359
13613.93
13591.695
13569.656
13547.79
13526.067
13504.471
13482.997
13461.629
13440.352
13419.146
13397.989
13376.883
13355.816
13334.765
13313.715
13292.654
13271.575
13250.468
13229.309
13208.074
13186.76
13165.361
13143.851
13122.186
13100.37
13078.404
13056.26
13033.902
13011.316
12988.499
12965.412
12942.009
12918.282
12894.213
12869.748
12844.849
12819.508
12793.672
12767.841
12742.871
12719.078
12696.612
12675.075
12654.411
12634.542
12615.396
12596.932
12579.122
12561.92
12545.27
12529.133
12513.493
12498.324
12483.592
12469.242
12455.267
12441.523
12428.257
12414.464
12402.316
12382.362
411.39828
174.62938
156.50823
153.25527
152.70118
152.82699
153.00427
153.12864
153.21605
153.28642
153.34934
153.40865
153.46612
153.52284
153.57956
153.63696
153.6952
153.75667
153.81341
153.90575
153.86071
154.47749
151.9175
170.71112
18400.041
21237.444
17066.027
14972.826
14185.004
13809.683
13559.415
13362.597
13201.841
13068.271
12954.766
12856.222
12769.418
12691.52
12620.531
12555.357
12495.192
12439.341
12387.23
12338.384
12292.362
12248.853
12207.567
12168.283
12130.809
12094.936
12060.551
12027.524
11995.693
11964.984
11935.315
11906.568
11878.679
11851.611
11825.272
11799.588
11774.542
11750.101
11726.182
11702.736
11679.95
11657.765
11635.994
11614.579
11593.524
11572.805
11552.374
11532.202
11512.287
11492.617
11473.16
11453.886
11434.782
11415.851
11397.076
11378.424
11359.882
11341.448
11323.11
11304.852
11286.654
11268.499
11250.391
11232.319
11214.261
11196.202
11178.136
11160.055
11141.95
11123.8
11105.584
11087.302
11068.947
11050.493
11031.91
11013.199
10994.357
10975.361
10956.18
10936.802
10917.224
10897.411
10877.325
10856.959
10836.296
10815.289
10793.907
10772.139
10749.942
10727.746
10706.285
10685.836
10666.559
10648.08
10630.345
10613.288
10596.85
10580.994
10565.696
10550.917
10536.609
10522.739
10509.294
10496.25
10483.58
10471.235
10459.21
10447.379
10435.962
10424.064
10413.61
10396.393
411.70035
172.6967
153.01097
149.49581
148.8356
148.91997
149.08402
149.20454
149.29039
149.35967
149.42167
149.48018
149.53691
149.59293
149.64893
149.70559
149.76305
149.82368
149.87962
149.97052
149.92706
150.534
148.02708
164.11848
15006.696
18680.446
15162.873
13043.074
12194.266
11801.197
11553.864
11365.23
11213.325
11088.46
10983.398
10892.96
10813.548
10742.809
10678.805
10620.386
10566.691
10517.031
10470.861
10427.72
10387.2
10349.007
10312.856
10278.532
10245.854
10214.627
10184.743
10156.081
10128.503
10101.929
10076.286
10051.473
10027.426
10004.108
9981.4453
9959.3672
9937.8522
9916.8757
9896.369
9876.2788
9856.708
9837.6379
9818.9426
9800.5645
9782.5035
9764.7449
9747.2442
9729.9726
9712.928
9696.1027
9679.4695
9662.999
9646.678
9630.5124
9614.4875
9598.5734
9582.757
9567.0376
9551.4069
9535.849
9520.3452
9504.8825
9489.4645
9474.082
9458.7133
9443.3468
9427.9784
9412.6021
9397.2071
9381.7754
9366.2923
9350.7562
9335.1605
9319.4828
9303.7026
9287.8186
9271.8267
9255.704
9239.4272
9222.9865
9206.377
9189.5697
9172.533
9155.2608
9137.7371
9119.9231
9101.7925
9083.3353
9064.515
9045.6963
9027.5006
9010.1476
8993.7204
8977.9763
8962.865
8948.3313
8934.3237
8920.8128
8907.7763
8895.1808
8882.9866
8871.1659
8859.7057
8848.587
8837.7853
8827.2597
8817.0075
8806.9156
8797.1823
8787.0148
8778.1063
8763.3901
412.01465
170.73349
149.20247
145.37114
144.5821
144.61565
144.76232
144.87704
144.96027
145.02776
145.08831
145.1456
145.20128
145.25631
145.31136
145.36707
145.42354
145.48316
145.53818
145.62732
145.58619
146.17684
143.79243
157.35931
11890.291
16120.609
13498.867
11446.117
10547.896
10132.853
9884.0262
9700.5777
9555.224
9437.0199
9338.5134
9254.4377
9180.9323
9115.9516
9057.6299
9004.7404
8956.3579
8911.786
8870.5026
8832.0601
8796.0825
8762.2876
8730.3866
8700.1663
8671.4558
8644.0757
8617.9167
8592.8701
8568.8115
8545.6625
8523.3553
8501.8013
8480.9376
8460.728
8441.1128
8422.0253
8403.4396
8385.3374
8367.6617
8350.3595
8333.4788
8317.0237
8300.9104
8285.0825
8269.5369
8254.2642
8239.2262
8224.3935
8209.7629
8195.3307
8181.0736
8166.9634
8152.9873
8139.1515
8125.4449
8111.84
8098.3232
8084.8954
8071.5507
8058.2741
8045.0483
8031.8623
8018.7203
8005.6144
7992.5246
7979.4405
7966.3597
7953.2774
7940.1832
7927.0614
7913.9006
7900.7001
7887.4527
7874.1389
7860.7509
7847.2824
7833.7262
7820.0624
7806.2723
7792.3479
7778.2839
7764.0558
7749.638
7735.0249
7720.2022
7705.1376
7689.8093
7674.2079
7658.3033
7642.4043
7627.0343
7612.3684
7598.4422
7585.0997
7572.295
7559.9811
7548.1148
7536.6707
7525.6292
7514.9619
7504.6357
7494.6266
7484.9236
7475.5098
7466.3647
7457.4536
7448.7749
7440.2294
7431.9928
7423.3714
7415.8404
7403.3519
412.33612
168.7891
145.09899
140.88537
139.93983
139.911
140.03489
140.14112
140.2202
140.28488
140.34323
140.39871
140.45286
140.50652
140.5603
140.61477
140.67
140.72836
140.78228
140.86932
140.83148
141.39762
139.2018
150.44997
9069.7153
13609.1
12006.777
10116.799
9187.2287
8748.3983
8494.0521
8312.9224
8172.0239
8058.6814
7965.0901
7885.8624
7816.9803
7756.5731
7702.8458
7654.4557
7610.4079
7569.9901
7532.6963
7498.089
7465.836
7435.6524
7407.2374
7380.3798
7354.9182
7330.6842
7307.5716
7285.4781
7264.2923
7243.9377
7224.3499
7205.4512
7187.181
7169.5025
7152.3662
7135.7115
7119.5086
7103.7425
7088.3666
7073.3304
7058.6475
7044.3318
7030.3286
7016.5854
7003.0953
6989.8527
6976.8257
6963.9851
6951.3263
6938.8474
6926.5295
6914.3466
6902.2854
6890.3513
6878.5365
6866.8168
6855.1782
6843.6214
6832.1427
6820.7288
6809.3637
6798.0377
6786.7545
6775.5081
6764.2805
6753.062
6741.851
6730.6439
6719.4311
6708.1988
6696.9378
6685.6475
6674.3217
6662.943
6651.519
6640.0351
6628.4808
6616.839
6605.0942
6593.2401
6581.2713
6569.1673
6556.9068
6544.4851
6531.8895
6519.0931
6506.0776
6492.8344
6479.3388
6465.8533
6452.8205
6440.3819
6428.5456
6417.21
6406.334
6395.8773
6385.8032
6376.0899
6366.7198
6357.6688
6348.9089
6340.4197
6332.1915
6324.2094
6316.4561
6308.902
6301.5466
6294.3031
6287.3257
6280.012
6273.6431
6263.0313
412.65857
166.92193
140.73004
136.05118
134.91645
134.81104
134.90517
134.99921
135.07195
135.13235
135.18742
135.24027
135.29222
135.34398
135.39602
135.44886
135.50252
135.55932
135.61192
135.69636
135.66305
136.19493
134.24742
143.3832
6502.0294
11250.999
10631.028
8997.0374
8062.7899
7601.5239
7338.3361
7156.8864
7018.5786
6908.5672
6818.5223
6742.8961
6677.6362
6620.9092
6570.9753
6526.3131
6485.8614
6448.8895
6414.9005
6383.4661
6354.3077
6327.1245
6301.5983
6277.5216
6254.7414
6233.0992
6212.4926
6192.824
6173.9926
6155.9252
6138.5601
6121.828
6105.6721
6090.0547
6074.9333
6060.2545
6045.9858
6032.1132
6018.5989
6005.3967
5992.4991
5979.9215
5967.6292
5955.5756
5943.7504
5932.1498
5920.748
5909.5175
5898.4514
5887.5487
5876.7944
5866.1654
5855.6479
5845.2455
5834.9533
5824.7507
5814.6236
5804.5717
5794.5927
5784.6755
5774.8058
5764.9742
5755.1835
5745.4295
5735.6968
5725.9757
5716.265
5706.5617
5696.8577
5687.1411
5677.4034
5667.644
5657.8579
5648.0301
5638.1859
5628.2987
5618.3552
5608.3405
5598.2416
5588.0531
5577.7702
5567.3755
5556.851
5546.1925
5535.3893
5524.4184
5513.2644
5501.9197
5490.3637
5478.8216
5467.6711
5457.0286
5446.8861
5437.1767
5427.8638
5418.9127
5410.2917
5401.9817
5393.9671
5386.2273
5378.7382
5371.4824
5364.451
5357.6312
5351.0081
5344.5564
5338.276
5332.0913
5326.1372
5319.8924
5314.4705
5305.3846
412.9748
165.19788
136.14128
130.89126
129.53004
129.33068
129.386
129.4628
129.52613
129.58019
129.63046
129.67951
129.72834
129.77743
129.82712
129.8778
129.92944
129.98425
130.03523
130.11648
130.08914
130.57599
128.92775
136.1056
4463.7006
9117.4676
9339.946
8034.4321
7131.8007
6652.9842
6378.6198
6194.4976
6057.108
5949.117
5861.482
5788.4492
5726.1002
5672.4446
5625.7587
5584.2814
5546.9016
5512.8716
5481.6964
5452.9565
5426.4174
5401.7612
5378.6605
5356.9139
5336.3758
5316.8963
5298.3776
5280.7256
5263.8475
5247.675
5232.1484
5217.2049
5202.7923
5188.8723
5175.4069
5162.3499
5149.6677
5137.3455
5125.3528
5113.6489
5102.2142
5091.06
5080.1655
5069.4913
5059.0243
5048.7609
5038.681
5028.7598
5018.9881
5009.3644
4999.8775
4990.5076
4981.2407
4972.0777
4963.016
4954.039
4945.1329
4936.2957
4927.5257
4918.8147
4910.1498
4901.5216
4892.9317
4884.3775
4875.8463
4867.3288
4858.8227
4850.3261
4841.8326
4833.3316
4824.815
4816.2818
4807.7287
4799.1428
4790.5625
4781.9513
4773.2949
4764.5801
4755.7955
4746.9362
4737.9984
4728.9672
4719.827
4710.5739
4701.1989
4691.6824
4682.0109
4672.1778
4662.1657
4652.17
4642.517
4633.3043
4624.5146
4616.1028
4608.0372
4600.2873
4592.8254
4585.6346
4578.7011
4572.0069
4565.5313
4559.2589
4553.1817
4547.2886
4541.5668
4535.9943
4530.5711
4525.232
4520.0937
4514.7071
4510.0433
4502.174
413.27677
163.68745
131.39372
125.44389
123.81116
123.4966
123.50151
123.55426
123.60392
123.64872
123.69206
123.73567
123.78009
123.82548
123.87194
123.91974
123.96873
124.02101
124.06995
124.14725
124.12746
124.55836
123.24932
128.52321
2916.122
7309.1901
8138.5126
7193.553
6359.402
5869.5916
5582.6952
5393.8267
5255.802
5148.666
5062.4739
4991.2135
4931.2939
4880.295
4836.4105
4797.6678
4762.9314
4731.4374
4702.6848
4676.2613
4651.8954
4629.3019
4608.1857
4588.3509
4569.6568
4551.9591
4535.164
4519.1789
4503.917
4489.3145
4475.3125
4461.8531
4448.8882
4436.379
4424.2902
4412.582
4401.2203
4390.1888
4379.4627
4369.0066
4358.7932
4348.8288
4339.1024
4329.581
4320.2494
4311.1037
4302.1286
4293.3018
4284.6123
4276.0578
4267.6301
4259.3126
4251.0908
4242.9639
4234.9304
4226.9774
4219.0914
4211.2689
4203.5087
4195.8048
4188.1459
4180.5225
4172.9347
4165.3817
4157.853
4150.3394
4142.838
4135.3475
4127.8629
4120.375
4112.8757
4105.3639
4097.8374
4090.2853
4082.7319
4075.1521
4067.5352
4059.8701
4052.146
4044.3585
4036.5047
4028.5719
4020.546
4012.4233
4004.1967
3995.8489
3987.368
3978.7481
3969.9748
3961.2187
3952.7656
3944.6989
3936.9957
3929.6248
3922.5594
3915.7724
3909.2394
3902.9449
3896.8771