/*--------------------------------*- C++ -*----------------------------------*\
  =========                 |
  \\      /  F ield         | OpenFOAM: The Open Source CFD Toolbox
   \\    /   O peration     | Website:  https://openfoam.org
    \\  /    A nd           | Version:  12
     \\/     M anipulation  |
\*---------------------------------------------------------------------------*/
FoamFile
{
    format      ascii;
    class       volScalarField;
    location    "500";
    object      p;
}
// * * * * * * * * * * * * * * * * * * * * * * * * * * * * * * * * * * * * * //

dimensions      [0 2 -2 0 0 0 0];

internalField   nonuniform List<scalar> 
7480
(
0.0053224402
0.0052834445
0.005175154
0.0051426793
0.0051597526
0.0051941504
0.0052419775
0.0053069923
0.0053955707
0.0055147502
0.0056851512
0.0059237209
0.006392478
0.0068178064
0.0067599573
0.006325845
0.0058585551
0.005488484
0.0051728738
0.0048906449
0.0046449465
0.0044348719
0.0042572438
0.0040905209
0.0039237654
0.0037618512
0.0036086641
0.0034773148
0.0033648026
0.0032576988
0.0031596788
0.0030739594
0.0029995984
0.0029356784
0.0028806917
0.0028328716
0.0027906584
0.0027541494
0.0027221678
0.0026920849
0.0026634713
0.0026364269
0.0026110915
0.0025861473
0.0025598341
0.002532008
0.0025031199
0.0024743737
0.0024451264
0.0024142225
0.0023810756
0.002345228
0.0023083984
0.0022710501
0.0022319335
0.0021912356
0.0021500432
0.0021100754
0.0020707086
0.0020298702
0.001988057
0.001946297
0.0019056228
0.0018648639
0.0018227949
0.0017806013
0.0017395395
0.0016986293
0.0016563642
0.0016134496
0.0015709416
0.00152807
0.0014840167
0.0014395207
0.0013952652
0.001350618
0.0013047354
0.0012584287
0.0012116951
0.0011641906
0.0011157496
0.001066906
0.001017589
0.00096699603
0.00091607279
0.00086444715
0.00081146687
0.00075832656
0.00070460526
0.00064965959
0.00059470432
0.0005392271
0.000483245
0.00042780806
0.00037412589
0.00032004018
0.00028141151
0.0002226852
0.00036008026
-0.00024146505
0.0052599219
0.0052212332
0.0051487517
0.0051269451
0.0051475315
0.005186109
0.0052361158
0.0053020799
0.0053910604
0.0055102598
0.0056791709
0.0059147718
0.0063427947
0.0067159747
0.0066577218
0.0062993384
0.0058864158
0.0055412615
0.0052386895
0.0049602723
0.0047154278
0.0045011273
0.0043096059
0.004128901
0.0039561821
0.0037925623
0.0036412949
0.0035093693
0.0033934216
0.0032849487
0.003186197
0.0030997465
0.0030245045
0.0029593592
0.0029028835
0.0028534441
0.0028095704
0.0027715556
0.0027383529
0.0027072111
0.002677486
0.0026492814
0.002622878
0.0025970299
0.0025698158
0.0025411016
0.002511462
0.0024820597
0.0024522194
0.0024207824
0.0023872078
0.0023510083
0.0023138543
0.0022762095
0.0022368238
0.0021958889
0.0021544862
0.0021143461
0.002074825
0.0020338216
0.0019918402
0.0019499156
0.0019090836
0.0018681679
0.0018259439
0.0017836012
0.0017423975
0.001701351
0.0016589539
0.0016159146
0.0015732894
0.0015303053
0.0014861445
0.0014415468
0.0013971944
0.0013524541
0.0013064828
0.0012600931
0.001213281
0.0011657019
0.0011171899
0.0010682787
0.0010188968
0.00096824212
0.0009172612
0.0008655806
0.00081254814
0.00075935846
0.00070558961
0.00065059891
0.00059560149
0.00054008404
0.00048406403
0.00042859093
0.00037487594
0.00032075737
0.00028208815
0.00022339507
0.00036091027
-0.00024087105
0.0052182199
0.005204092
0.0051590147
0.0051373733
0.0051540929
0.0051919647
0.0052408833
0.0053053944
0.0053928335
0.0055102941
0.0056750204
0.0059037379
0.0062708305
0.0065849892
0.006545849
0.0062305841
0.0058390239
0.0054976153
0.005198572
0.0049247379
0.0046831718
0.0044715375
0.0042825856
0.0041087172
0.0039447284
0.0037890214
0.0036454339
0.0035171496
0.0034024948
0.0032973068
0.0032010466
0.0031155267
0.0030408723
0.0029759771
0.0029194293
0.00286971
0.0028255493
0.0027868707
0.0027525439
0.0027204558
0.0026898959
0.0026607958
0.0026335689
0.0026071336
0.0025794447
0.002550192
0.0025199629
0.0024899914
0.0024596879
0.0024275379
0.0023931812
0.0023565201
0.0023190519
0.0022811617
0.0022415456
0.0022004048
0.0021588255
0.0021185447
0.0020788887
0.0020377342
0.0019955943
0.0019535203
0.0019125536
0.0018715023
0.0018291409
0.0017866674
0.0017453431
0.0017041801
0.0016616634
0.0016185071
0.0015757716
0.0015326807
0.0014884165
0.0014437213
0.0013992767
0.001354447
0.0013083882
0.0012619163
0.0012150257
0.0011673717
0.0011187879
0.0010698085
0.0010203606
0.00096964189
0.00091860139
0.00086686353
0.00081377627
0.00076053513
0.000706716
0.00065167699
0.00059663458
0.00054107381
0.00048501278
0.00042950047
0.00037574939
0.00032159273
0.00028289555
0.00022429245
0.00036182491
-0.00024013664
0.0051851039
0.0051842382
0.005149202
0.0051293653
0.0051454183
0.0051834254
0.0052327949
0.0052973926
0.0053843905
0.0055006399
0.005660827
0.0058796295
0.0061955361
0.0064685872
0.0064494672
0.0061697427
0.0058042623
0.0054772615
0.0051908013
0.0049272008
0.0046908266
0.004481928
0.0042939195
0.0041210202
0.0039567729
0.0038000284
0.0036547334
0.003523963
0.0034077355
0.003302399
0.003205738
0.0031194437
0.0030445923
0.0029800721
0.0029243505
0.0028759054
0.0028333962
0.0027955934
0.0027613647
0.002729712
0.0026997495
0.0026709398
0.0026430477
0.0026154682
0.0025871424
0.0025574798
0.0025267959
0.0024963887
0.0024657877
0.0024331707
0.0023982766
0.0023613137
0.0023236377
0.0022856586
0.0022459649
0.0022047181
0.0021629998
0.002122455
0.0020825332
0.0020412365
0.0019989868
0.0019568206
0.0019157751
0.0018746314
0.0018321656
0.0017895962
0.0017481803
0.001706914
0.0016642869
0.0016210242
0.0015781901
0.0015350036
0.0014906454
0.0014458611
0.0014013336
0.0013564232
0.0013102823
0.001263732
0.0012167661
0.0011690402
0.001120387
0.0010713423
0.0010218309
0.00097104939
0.00091995089
0.00086815692
0.00081501545
0.00076172375
0.00070785472
0.00065276737
0.00059768036
0.00054207635
0.00048597399
0.00043042216
0.00037663369
0.00032243811
0.00028371498
0.00022508338
0.00036268348
-0.00023943804
0.005154363
0.0051614641
0.0051373206
0.0051247902
0.0051428601
0.0051813839
0.0052312781
0.0052956934
0.0053815246
0.0054953531
0.0056495373
0.0058544964
0.0061297049
0.0063660126
0.0063567716
0.0061067136
0.0057672932
0.0054546388
0.0051779249
0.0049211786
0.0046877458
0.004480052
0.0042926882
0.0041203663
0.0039569218
0.0038016128
0.0036578417
0.0035283509
0.0034131099
0.0033084259
0.0032120411
0.0031257135
0.0030505637
0.0029854508
0.002928907
0.0028795864
0.002836196
0.0027973318
0.0027623896
0.0027308097
0.0027015128
0.0026738009
0.0026468344
0.0026197865
0.0025920827
0.0025632397
0.002533288
0.0025026323
0.0024710698
0.0024379506
0.0024028682
0.00236576
0.0023279113
0.0022898395
0.002250123
0.0022088028
0.0021668959
0.0021260344
0.0020859114
0.0020445658
0.0020022614
0.0019600204
0.0019189092
0.0018777039
0.0018351649
0.0017925406
0.0017510202
0.0017095881
0.0016668322
0.0016234881
0.0015805872
0.0015373305
0.0014928979
0.0014480423
0.0014034449
0.0013584573
0.001312236
0.0012656102
0.0012185715
0.0011707757
0.0011220544
0.0010729468
0.001023374
0.00097252945
0.00092137196
0.00086952035
0.00081632277
0.00076297959
0.00070905971
0.00065392221
0.00059878892
0.00054313965
0.00048699365
0.0004314003
0.00037757139
0.00032333501
0.00028457746
0.00022586177
0.00036353426
-0.00023864572
0.0051258505
0.0051391054
0.0051255283
0.0051196669
0.0051384296
0.0051760647
0.0052255013
0.0052890837
0.0053731455
0.0054838633
0.005631128
0.0058219513
0.0060629463
0.0062658662
0.0062621521
0.0060404267
0.0057273708
0.0054294604
0.0051624439
0.0049133752
0.0046847982
0.0044798726
0.0042945353
0.0041238382
0.0039620655
0.00380854
0.0036661151
0.0035372494
0.0034219176
0.003316966
0.0032204632
0.0031339045
0.0030582864
0.0029925666
0.002935346
0.0028853252
0.0028411919
0.0028016137
0.0027660135
0.0027336998
0.0027035491
0.0026749482
0.0026472332
0.002619673
0.0025917829
0.0025632966
0.0025341918
0.0025042371
0.0024731533
0.0024407618
0.0024065805
0.002370359
0.0023326066
0.0022938196
0.0022536613
0.0022122152
0.0021702035
0.0021292803
0.0020891918
0.0020478877
0.0020055082
0.0019630936
0.0019218796
0.0018806703
0.0018381041
0.0017954211
0.0017537721
0.0017121807
0.00166932
0.0016259257
0.001582985
0.0015396743
0.0014951805
0.0014502766
0.0014056047
0.0013605026
0.0013141897
0.0012675048
0.0012204108
0.0011725598
0.0011237824
0.0010746184
0.0010249839
0.00097407679
0.00092286173
0.00087095345
0.00081770016
0.00076430716
0.00071033724
0.00065514842
0.00059996738
0.00054427107
0.00048807974
0.0004324437
0.00037857166
0.00032429264
0.00028549108
0.000226686
0.0003643771
-0.00023768302
0.0050993927
0.0051173528
0.0051127116
0.0051126187
0.0051323529
0.0051696391
0.0052190823
0.0052822268
0.0053646767
0.0054720694
0.0056120758
0.0057887903
0.0060000937
0.0061735062
0.0061727209
0.0059765996
0.005688303
0.0054047606
0.0051471736
0.0049057695
0.0046821909
0.0044797775
0.0042961118
0.004126483
0.003965914
0.0038136657
0.003672177
0.0035437178
0.0034283518
0.0033234371
0.0032271761
0.0031406782
0.0030648386
0.0029987633
0.002941106
0.0028905908
0.0028459487
0.0028059242
0.0027698573
0.0027370336
0.0027064121
0.0026773763
0.0026492641
0.0026213207
0.0025930162
0.0025640474
0.0025343594
0.0025038843
0.0024725528
0.0024401672
0.0024063591
0.0023709674
0.0023339457
0.0022954581
0.0022558107
0.0022151888
0.0021739462
0.0021330342
0.0020922658
0.002050591
0.0020081309
0.0019656909
0.0019245412
0.001883396
0.0018408471
0.0017980393
0.0017562712
0.001714667
0.0016717978
0.001628352
0.0015853402
0.001541969
0.0014974206
0.0014524798
0.0014077355
0.0013625199
0.0013161258
0.0012694014
0.0012222698
0.0011743766
0.001125557
0.0010763236
0.001026601
0.00097563219
0.00092437222
0.00087241913
0.00081911982
0.00076568175
0.00071166041
0.00065642105
0.0006011935
0.00054545092
0.00048921517
0.00043353732
0.00037962048
0.00032529767
0.00028644361
0.00022754772
0.00036518022
-0.00023652784
0.0050746543
0.005096136
0.005098919
0.0051041412
0.0051253047
0.0051624424
0.0052116541
0.0052739814
0.0053543041
0.0054576639
0.005589804
0.0057523252
0.0059375384
0.006085168
0.0060852473
0.0059115691
0.0056465525
0.0053775053
0.0051294987
0.0048958844
0.0046774911
0.0044781089
0.0042964331
0.0041282391
0.0039692209
0.0038185603
0.0036783425
0.0035506419
0.0034355757
0.0033308951
0.0032349053
0.0031484274
0.0030723069
0.0030057941
0.0029475962
0.002896474
0.0028512146
0.0028106161
0.0027739715
0.0027405868
0.002709485
0.0026800134
0.0026515085
0.0026232162
0.0025946091
0.0025653866
0.0025354833
0.0025048397
0.0024733296
0.002440681
0.0024065282
0.0023707408
0.0023333719
0.002294761
0.002255353
0.0022153587
0.0021751142
0.0021347135
0.0020939396
0.0020526764
0.0020108538
0.0019688922
0.0019274175
0.001885581
0.0018429077
0.0018001145
0.0017584482
0.0017169419
0.0016741221
0.001630589
0.0015874897
0.0015441199
0.0014995651
0.0014545736
0.0014097602
0.0013644942
0.0013180582
0.0012712989
0.0012241235
0.0011761829
0.0011273244
0.0010780249
0.0010282188
0.00097719584
0.00092590316
0.00087391669
0.0008205816
0.00076708371
0.00071299019
0.00065770491
0.00060244051
0.00054666016
0.0004903845
0.00043466437
0.00038070124
0.00032633542
0.0002874218
0.00022843018
0.00036591234
-0.00023515971
0.0050513341
0.0050754528
0.0050843673
0.0050944062
0.0051171509
0.0051541443
0.005202895
0.0052641972
0.0053421913
0.0054412308
0.0055653782
0.00571417
0.0058765865
0.0060019158
0.0060014597
0.0058473335
0.0056042621
0.0053497737
0.005111375
0.0048854792
0.004672489
0.0044764271
0.0042968934
0.0041302715
0.0039728224
0.003823697
0.0036846827
0.00355767
0.0034428283
0.0033382605
0.0032424131
0.0031558913
0.003079475
0.0030125257
0.0029538037
0.0029021055
0.0028562649
0.0028151256
0.0027779496
0.0027440492
0.0027124851
0.0026825752
0.0026536644
0.0026250258
0.0025961386
0.0025667005
0.0025366283
0.0025058411
0.0024741863
0.0024414008
0.0024071518
0.0023713105
0.0023339255
0.0022952996
0.0022557848
0.0022155608
0.0021750186
0.0021342625
0.0020934591
0.0020526988
0.0020117198
0.0019705919
0.0019291508
0.0018872517
0.0018450378
0.001802725
0.0017609072
0.0017187822
0.0016757898
0.0016323018
0.0015893332
0.0015460605
0.0015015436
0.0014564755
0.0014116151
0.0013663823
0.00131994
0.0012731301
0.0012259025
0.0011779222
0.0011290288
0.0010796881
0.0010298365
0.00097877183
0.00092744883
0.00087542586
0.00082205289
0.00076849471
0.00071433414
0.00065900891
0.00060371543
0.00054790613
0.00049158286
0.00043580352
0.00038179143
0.00032739005
0.00028841493
0.00022932207
0.00036654124
-0.00023355039
0.0050291586
0.0050552575
0.0050691773
0.0050834617
0.0051078111
0.0051447053
0.0051928703
0.0052529831
0.0053284461
0.0054228737
0.0055389028
0.0056744455
0.0058167039
0.0059226333
0.0059206337
0.0057833366
0.0055607198
0.005320621
0.0050917858
0.0048735365
0.0046661593
0.0044736781
0.0042964778
0.0041316002
0.0039758104
0.0038282796
0.0036905411
0.0035643136
0.0034498154
0.0033454595
0.0032498382
0.0031633691
0.0030867445
0.0030194186
0.0029602151
0.0029079689
0.0028615588
0.0028198753
0.0027821602
0.0027477269
0.0027156738
0.0026853048
0.0026559756
0.0026269836
0.0025978063
0.0025681325
0.0025378566
0.0025068856
0.0024750657
0.0024421492
0.0024078213
0.0023719492
0.0023345692
0.0022959542
0.0022564329
0.0022162041
0.0021756347
0.0021348432
0.0020939946
0.0020530745
0.0020118379
0.0019703856
0.0019287303
0.0018872277
0.0018458633
0.0018043501
0.001762581
0.0017203118
0.0016775945
0.0016344886
0.0015913546
0.0015475423
0.0015029287
0.0014579546
0.0014132362
0.0013680856
0.0013216535
0.0012747953
0.0012275664
0.0011795973
0.0011306702
0.001081284
0.0010314072
0.00098031554
0.00092896202
0.00087689671
0.00082348402
0.00076989438
0.00071569861
0.00066033559
0.00060501173
0.00054917203
0.0004927972
0.00043695964
0.00038290151
0.00032847084
0.00028942927
0.00023021642
0.00036702321
-0.00023166928
0.0050078985
0.0050354796
0.0050534366
0.005071381
0.0050972853
0.0051341183
0.0051815754
0.0052403014
0.0053130196
0.0054026074
0.0055105196
0.0056334439
0.0057578539
0.0058469808
0.0058429073
0.005720055
0.0055163929
0.005290452
0.0050711973
0.0048605756
0.0046589978
0.0044703539
0.0042956966
0.0041327353
0.0039787019
0.0038328211
0.0036964091
0.0035710259
0.0034569345
0.0033528196
0.0032574181
0.0031709944
0.0030941521
0.0030264312
0.0029667277
0.0029139167
0.0028669205
0.0028246747
0.0027864071
0.0027514308
0.0027188798
0.0026880495
0.0026583011
0.0026289518
0.0025994779
0.0025695613
0.0025390784
0.0025079285
0.0024759553
0.0024429158
0.0024085058
0.0023725872
0.0023351926
0.0022965787
0.0022570685
0.0022168704
0.0021763296
0.0021355666
0.0020947163
0.0020537504
0.0020124584
0.0019709358
0.0019292243
0.0018876253
0.001846057
0.0018042362
0.0017622537
0.001720395
0.001678479
0.0016360613
0.0015929372
0.001548964
0.0015045667
0.0014598356
0.0014148482
0.0013692637
0.0013228634
0.0012761416
0.0012290243
0.0011811087
0.0011321578
0.0010827592
0.0010329115
0.00098180556
0.00093041136
0.00087831734
0.00082487765
0.00077126592
0.00071704087
0.00066164462
0.00060629359
0.00055041908
0.00049400467
0.00043813471
0.00038403586
0.00032957336
0.00029044948
0.00023110973
0.00036734126
-0.00022946624
0.0049873601
0.0050160342
0.0050372063
0.0050582379
0.0050855779
0.0051223532
0.0051689828
0.0052261326
0.0052959278
0.0053805366
0.0054804408
0.0055914506
0.0057000079
0.0057745729
0.005768151
0.0056576063
0.0054713428
0.0052591974
0.0050495003
0.004846451
0.0046507837
0.0044661935
0.0042942727
0.0041333816
0.0039811956
0.0038370159
0.003701978
0.0035774991
0.0034638835
0.0033600545
0.0032648919
0.0031785394
0.003101514
0.0030334289
0.0029732538
0.0029199033
0.0028723406
0.0028295439
0.002790733
0.0027552205
0.0027221729
0.002690881
0.0026607105
0.0026309976
0.0026012203
0.0025710548
0.0025403609
0.0025090286
0.0024768972
0.002443727
0.0024092264
0.0023732565
0.0023358477
0.002297241
0.0022577468
0.0022175729
0.0021770406
0.002136277
0.0020954081
0.0020544214
0.0020131368
0.0019716336
0.0019299417
0.0018883089
0.0018466536
0.0018047353
0.0017626649
0.0017207024
0.0016785846
0.0016359177
0.0015927473
0.0015493557
0.0015056753
0.0014613813
0.0014163065
0.0013705756
0.0013243822
0.0012776249
0.0012301822
0.0011821517
0.0011333014
0.0010840291
0.001034251
0.00098314068
0.00093173544
0.00087967646
0.00082623029
0.00077258495
0.00071833805
0.00066292181
0.00060754677
0.00055163695
0.00049519206
0.00043930124
0.00038516189
0.00033066689
0.00029144504
0.00023198962
0.00036746662
-0.00022688879
0.0049673759
0.0049968302
0.0050205236
0.005044098
0.0050726998
0.0051093878
0.0051550806
0.0052104841
0.0052772088
0.0053567629
0.00544884
0.0055486698
0.0056431149
0.0057050528
0.0056962076
0.0055961237
0.0054257312
0.0052269387
0.0050267641
0.0048312423
0.0046415767
0.0044612534
0.0042922739
0.0041336162
0.003983383
0.0038409694
0.0037073643
0.0035838582
0.0034707927
0.0033673008
0.0032724006
0.0031861436
0.0031089632
0.0030405334
0.0029798983
0.0029260147
0.0028778855
0.0028345307
0.0027951681
0.0027591107
0.0027255548
0.0026937907
0.0026631882
0.0026331018
0.0026030124
0.0025725899
0.0025416782
0.0025101573
0.0024778622
0.0024445577
0.0024099646
0.0023739432
0.0023365205
0.0022979202
0.0022584391
0.002218285
0.0021777603
0.0021370002
0.0020961242
0.0020551268
0.0020138422
0.0019723318
0.0019306298
0.0018889668
0.0018472912
0.0018053861
0.0017633248
0.0017213144
0.0016790935
0.0016363159
0.0015930451
0.0015495598
0.0015056666
0.0014612325
0.001416426
0.0013713302
0.0013256799
0.0012790452
0.0012314425
0.0011834202
0.0011346433
0.0010851571
0.0010351619
0.00098412458
0.00093285824
0.00088087753
0.00082744166
0.00077378841
0.00071957199
0.00066415231
0.00060874782
0.00055281837
0.00049635446
0.00044044157
0.00038626129
0.0003317398
0.00029241017
0.00023283484
0.00036733419
-0.00022388848
0.0049478
0.0049777765
0.0050034064
0.0050290174
0.0050586697
0.0050952102
0.0051398647
0.0051933713
0.0052569062
0.0053313857
0.0054158784
0.0055052782
0.0055871476
0.0056381312
0.0056269225
0.0055357228
0.0053797197
0.0051937504
0.0050030234
0.0048149755
0.0046313669
0.0044554923
0.0042896452
0.0041333732
0.0039851932
0.003844608
0.0037124909
0.0035900218
0.0034775757
0.00337447
0.0032798558
0.0031937167
0.0031164085
0.0030476553
0.002986576
0.002932172
0.0028834848
0.0028395746
0.0027996621
0.0027630613
0.0027289951
0.0026967571
0.0026657207
0.0026352575
0.0026048518
0.0025741678
0.002543034
0.0025113209
0.0024788599
0.0024454195
0.0024107321
0.0023746575
0.0023372182
0.002298622
0.0022591527
0.0022190178
0.0021785027
0.0021377478
0.0020968654
0.0020558544
0.0020145632
0.0019730433
0.0019313364
0.001889656
0.0018479622
0.0018060465
0.0017639624
0.0017219062
0.001679656
0.0016368835
0.0015936151
0.0015500727
0.0015060721
0.0014615255
0.0014166178
0.0013713757
0.0013255868
0.0012791255
0.0012320219
0.0011845051
0.0011360068
0.0010863803
0.0010362395
0.00098530826
0.00093390708
0.00088168619
0.00082831672
0.00077479525
0.00072065333
0.00066524508
0.00060984355
0.00055394716
0.00049747609
0.00044153417
0.00038732308
0.00033278379
0.00029333726
0.00023362785
0.0003668828
-0.00022039279
0.0049285042
0.004958785
0.0049858578
0.0050130433
0.0050435114
0.0050798181
0.0051233379
0.005174818
0.0052350742
0.0053045095
0.0053817095
0.0054614273
0.0055320835
0.0055735561
0.0055601262
0.005476478
0.0053334535
0.0051597078
0.0049783132
0.0047976821
0.004620162
0.0044488941
0.0042863643
0.0041326307
0.0039866093
0.0038479225
0.003717355
0.0035959916
0.0034842378
0.0033815732
0.0032872752
0.003201281
0.0031238761
0.0030548254
0.0029933212
0.0029384117
0.0028891762
0.0028447133
0.0028042509
0.0027671053
0.0027325239
0.0026998063
0.0026683302
0.0026374828
0.002606753
0.0025757995
0.0025444367
0.0025125257
0.0024798941
0.0024463143
0.002411529
0.0023753979
0.0023379388
0.002299345
0.0022598868
0.0022197704
0.002179265
0.0021385143
0.0020976247
0.002056599
0.0020153015
0.0019737748
0.0019320654
0.0018903676
0.0018486502
0.0018067174
0.0017646133
0.0017225231
0.0016802448
0.0016374562
0.0015941669
0.0015505909
0.0015065825
0.0014620424
0.0014171074
0.001371778
0.001325866
0.0012792939
0.0012320585
0.0011844445
0.0011361332
0.0010869017
0.0010371931
0.00098659538
0.00093505944
0.0008826193
0.0008293372
0.00077572654
0.00072139124
0.0006660421
0.00061077075
0.00055493747
0.00049847398
0.00044253486
0.00038832916
0.00033377858
0.00029420977
0.00023435247
0.00036605056
-0.00021631578
0.0049093756
0.004939773
0.0049678703
0.0049962137
0.0050272528
0.0050632177
0.0051055103
0.0051548569
0.0052117763
0.0052762408
0.0053464758
0.0054172441
0.005477901
0.0055111096
0.0054956489
0.0054184373
0.0052870721
0.0051248991
0.004952678
0.0047793988
0.0046079769
0.0044414469
0.0042824075
0.0041313604
0.0039876024
0.0038508853
0.0037219295
0.00360174
0.0034907498
0.0033885818
0.0032946323
0.0032088101
0.0031313391
0.0030620172
0.0030001077
0.0029447076
0.0028949335
0.0028499212
0.0028089097
0.0027712191
0.0027361193
0.0027029183
0.0026709987
0.0026397618
0.0026087023
0.0025774734
0.0025458769
0.0025137639
0.0024809588
0.0024472372
0.0024123516
0.0023761619
0.0023386815
0.0023000888
0.0022606412
0.0022205426
0.0021800469
0.0021393
0.0020984035
0.0020573642
0.0020160605
0.0019745274
0.001932814
0.0018910974
0.0018493553
0.0018074066
0.0017652856
0.0017231623
0.0016808505
0.0016380401
0.0015947324
0.0015511318
0.0015071078
0.0014625529
0.0014175907
0.0013722396
0.0013263207
0.0012797325
0.0012324294
0.0011847108
0.001136289
0.0010869184
0.0010371485
0.00098679199
0.00093559119
0.00088351559
0.00083053288
0.00077678406
0.00072222401
0.00066694039
0.00061159993
0.00055560536
0.00049921239
0.00044338165
0.00038920181
0.0003346609
0.00029499742
0.00023498026
0.0003647652
-0.00021156099
0.004890314
0.0049206633
0.0049494293
0.0049785585
0.0050099237
0.0050454238
0.0050864006
0.0051335285
0.0051870829
0.0052466861
0.0053103092
0.0053728369
0.0054245793
0.0054506037
0.0054333266
0.0053616246
0.0052407025
0.005089417
0.004926165
0.0047601608
0.0045948281
0.0044331412
0.0042777513
0.0041295339
0.0039881441
0.0038534709
0.0037261919
0.0036072459
0.0034970916
0.0033954784
0.0033019141
0.0032162941
0.0031387899
0.003069226
0.0030069337
0.0029510603
0.0029007599
0.0028552041
0.0028136462
0.0027754117
0.0027397915
0.002706104
0.0026737371
0.0026421057
0.0026107104
0.0025791999
0.0025473637
0.0025150439
0.0024820613
0.0024481948
0.0024132057
0.0023769547
0.0023394501
0.0023008567
0.0022614184
0.0022213362
0.0021808499
0.0021401066
0.0020992034
0.0020581507
0.0020168403
0.0019753003
0.0019335819
0.0018918468
0.0018500805
0.0018081158
0.0017659769
0.001723819
0.001681472
0.0016386406
0.0015953172
0.0015516916
0.0015076465
0.0014630743
0.0014180903
0.0013727165
0.0013267781
0.0012801685
0.0012328575
0.0011851256
0.0011366769
0.0010872577
0.0010373845
0.0009869113
0.00093556743
0.00088350941
0.00083082421
0.00077737766
0.00072311326
0.00066803531
0.00061251583
0.0005563287
0.00049998245
0.00044408605
0.00038979527
0.00033534105
0.00029563716
0.00023543275
0.00036291655
-0.00020602228
0.0048712304
0.0049013854
0.0049305159
0.0049601016
0.0049915551
0.0050264587
0.0050660352
0.0051108805
0.0051610699
0.0052159514
0.0052733315
0.0053282977
0.0053720978
0.0053918753
0.0053730025
0.0053060435
0.0051944571
0.0050533569
0.004898826
0.0047400051
0.0045807365
0.004423973
0.0042723762
0.0041271258
0.003988208
0.0038556547
0.0037301191
0.0036124869
0.003503241
0.0034022425
0.003309103
0.0032237172
0.0031462138
0.0030764385
0.0030137875
0.0029574594
0.0029066459
0.0028605537
0.0028184527
0.002779676
0.0027435339
0.002709357
0.0026765395
0.0026445086
0.0026127716
0.0025809734
0.0025488923
0.0025163611
0.0024831975
0.0024491832
0.0024140879
0.0023777732
0.0023402421
0.0023016463
0.0022622164
0.0022221496
0.0021816728
0.0021409328
0.0021000233
0.0020589576
0.0020176402
0.0019760933
0.0019343694
0.0018926162
0.0018508258
0.001808844
0.0017666864
0.0017244937
0.0016821118
0.0016392592
0.0015959192
0.0015522671
0.0015081998
0.0014636118
0.0014186073
0.0013732081
0.0013272464
0.0012806183
0.0012332975
0.0011855387
0.0011370683
0.0010876516
0.0010377649
0.0009872574
0.00093585393
0.00088370428
0.00083089598
0.00077732579
0.00072318717
0.00066842136
0.00061315411
0.000557218
0.00050095296
0.00044485034
0.00039042522
0.00033598704
0.00029606368
0.00023560493
0.0003603506
-0.00019960642
0.0048520458
0.0048818754
0.0049111094
0.0049408617
0.0049721788
0.0050063514
0.0050444484
0.0050869669
0.0051338171
0.0051841409
0.0052356553
0.0052837052
0.0053204354
0.0053347815
0.00531453
0.0052516811
0.0051484331
0.0050168151
0.0048707177
0.0047189702
0.004565726
0.0044139429
0.0042662651
0.0041241116
0.0039877678
0.0038574112
0.0037336871
0.0036174398
0.0035091747
0.0034088524
0.0033161809
0.0032310639
0.0031535966
0.0030836429
0.0030206594
0.0029638971
0.0029125857
0.0028659658
0.0028233267
0.0027840107
0.0027473466
0.0027126784
0.0026794075
0.0026469731
0.0026148891
0.0025827975
0.0025504661
0.0025177191
0.0024843709
0.0024502061
0.0024150017
0.0023786205
0.0023410604
0.0023024603
0.0022630376
0.0022229851
0.0021825175
0.0021417805
0.0021008648
0.0020597864
0.0020184615
0.0019769076
0.0019351776
0.0018934065
0.0018515918
0.001809592
0.0017674149
0.0017251878
0.0016827706
0.0016398957
0.001596538
0.0015528593
0.0015087695
0.0014641654
0.0014191394
0.0013737134
0.0013277289
0.0012810835
0.0012337504
0.0011859631
0.0011374737
0.0010880549
0.0010381447
0.00098761436
0.0009362077
0.00088404836
0.00083119789
0.0007775573
0.00072332666
0.00066842461
0.0006131209
0.00055742936
0.00050144529
0.00044552949
0.00039124726
0.00033674534
0.00029649637
0.00023575517
0.00035698574
-0.00019223429
0.0048326903
0.0048620762
0.0048911891
0.0049208542
0.004951827
0.0049851366
0.0050216814
0.0050618468
0.0051054072
0.0051513564
0.005197384
0.0052391267
0.0052695705
0.0052791968
0.0052577733
0.0051985128
0.0051027126
0.0049798858
0.0048419004
0.0046970965
0.0045498231
0.0044030556
0.0042594043
0.0041204687
0.0039867983
0.0038587156
0.0037368721
0.003622081
0.0035148696
0.0034152864
0.0033231288
0.0032383177
0.0031609236
0.0030908261
0.0030275384
0.0029703641
0.0029185714
0.0028714346
0.0028282635
0.002788412
0.0027512267
0.002716066
0.0026823395
0.0026494977
0.0026170617
0.0025846711
0.0025520842
0.002519117
0.0024855807
0.0024512624
0.0024159461
0.0023794957
0.002341904
0.0023032976
0.002263881
0.0022238416
0.002183383
0.0021426488
0.0021017272
0.0020606364
0.0020193037
0.0019777428
0.0019360062
0.0018942173
0.0018523782
0.0018103598
0.0017681627
0.0017259012
0.0016834483
0.0016405502
0.0015971742
0.0015534688
0.0015093561
0.0014647348
0.0014196866
0.0013742337
0.0013282263
0.0012815626
0.0012342159
0.001186401
0.0011378929
0.0010884693
0.0010385349
0.00098798375
0.00093656684
0.00088439061
0.00083152311
0.00077788085
0.00072363043
0.00066867125
0.00061329206
0.00055749958
0.00050138643
0.00044557162
0.00039155031
0.00033725033
0.00029701927
0.00023599227
0.00035299077
-0.00018363244
0.004813102
0.0048419372
0.0048707354
0.0049000924
0.0049305322
0.0049628536
0.0049977817
0.0050355843
0.0050759245
0.0051176968
0.0051586129
0.0051946199
0.0052194811
0.0052250102
0.0052026072
0.0051465051
0.0050573629
0.0049426597
0.004812438
0.0046744265
0.0045330563
0.00439132
0.0042517839
0.0041161767
0.0039852755
0.0038595436
0.00373965
0.0036263867
0.0035203017
0.0034215218
0.0033299268
0.0032454611
0.0031681789
0.003097974
0.0030344125
0.0029768504
0.0029245949
0.0028769534
0.0028332581
0.0027928762
0.0027551718
0.0027195183
0.0026853346
0.0026520823
0.0026192897
0.0025865948
0.0025537476
0.0025205559
0.002486828
0.0024523535
0.0024169225
0.0023804002
0.0023427743
0.0023041596
0.0022647478
0.0022247204
0.0021842704
0.0021435387
0.0021026113
0.0020615086
0.0020201679
0.0019785997
0.0019368559
0.0018950494
0.0018531859
0.001811148
0.0017689304
0.0017266345
0.0016841456
0.0016412233
0.0015978283
0.0015540961
0.0015099596
0.0014653205
0.0014202497
0.0013747696
0.0013287385
0.0012820557
0.0012346948
0.0011868526
0.0011383246
0.0010888952
0.0010389377
0.00098836541
0.00093693586
0.00088474318
0.00083185942
0.00077820616
0.00072393424
0.00066896751
0.00061357693
0.00055774295
0.00050156229
0.00044566186
0.00039149032
0.0003371546
0.00029698061
0.00023580585
0.00034834871
-0.00017358944
0.0047932266
0.0048214144
0.0048497311
0.0048785891
0.0049083276
0.0049395458
0.0049728019
0.0050082473
0.0050454539
0.0050832574
0.0051194295
0.0051502343
0.0051701453
0.0051721227
0.0051489176
0.0050956182
0.0050124378
0.004905222
0.0047823961
0.004651005
0.0045154567
0.0043787484
0.0042433972
0.0041112177
0.0039831768
0.0038598712
0.0037419971
0.0036303328
0.0035254467
0.0034275354
0.0033365543
0.0032524759
0.0031753459
0.0031050719
0.0030412691
0.0029833453
0.0029306472
0.0028825152
0.0028383052
0.0027973991
0.0027591787
0.002723033
0.0026883912
0.0026547258
0.0026215725
0.0025885685
0.0025554562
0.0025220359
0.0024881132
0.0024534795
0.0024179311
0.0023813342
0.0023436714
0.0023050464
0.0022656379
0.0022256213
0.0021851795
0.0021444501
0.0021035172
0.0020624028
0.0020210538
0.0019794783
0.0019377269
0.0018959028
0.001854015
0.0018119569
0.0017697181
0.001727388
0.0016848626
0.0016419152
0.0015985006
0.0015547414
0.0015105805
0.0014659227
0.001420829
0.0013753212
0.0013292659
0.0012825635
0.0012351876
0.0011873179
0.0011387694
0.0010893333
0.0010393529
0.00098875843
0.00093731559
0.00088510717
0.00083220628
0.00077853949
0.00072424848
0.00066927097
0.0006138578
0.00055800211
0.00050181962
0.00044589029
0.00039163101
0.00033719716
0.00029657242
0.00023531683
0.00034187344
-0.00016213875
0.0047730168
0.0048004703
0.004828162
0.004856357
0.0048852468
0.0049152598
0.0049467992
0.0049799065
0.0050140801
0.0050481293
0.0050799138
0.0051060122
0.0051215411
0.0051204461
0.0050966002
0.005045809
0.0049679787
0.0048676514
0.0047518415
0.0046268788
0.0044970569
0.0043653567
0.0042342415
0.0041055763
0.0039804811
0.0038596757
0.0037438896
0.0036338953
0.0035302804
0.0034333034
0.0033429897
0.0032593431
0.0031824074
0.0031121043
0.0030480947
0.0029898373
0.0029367187
0.0028881122
0.0028433984
0.0028019758
0.0027632438
0.0027266076
0.0026915077
0.0026574272