/*--------------------------------*- C++ -*----------------------------------*\
  =========                 |
  \\      /  F ield         | OpenFOAM: The Open Source CFD Toolbox
   \\    /   O peration     | Website:  https://openfoam.org
    \\  /    A nd           | Version:  12
     \\/     M anipulation  |
\*---------------------------------------------------------------------------*/
FoamFile
{
    format      ascii;
    class       surfaceScalarField;
    location    "500";
    object      phi;
}
// * * * * * * * * * * * * * * * * * * * * * * * * * * * * * * * * * * * * * //

dimensions      [0 3 -1 0 0 0 0];

internalField   nonuniform List<scalar> 
25880
(
2.0046363e-06
1.7833551e-11
2.0045837e-06
5.2629491e-11
2.0045066e-06
7.7126334e-11
2.0044174e-06
8.9193834e-11
2.0043179e-06
9.9476567e-11
2.0042076e-06
1.1028288e-10
2.0040862e-06
1.2143494e-10
2.0039531e-06
1.3303501e-10
2.0038076e-06
1.4553248e-10
2.0036482e-06
1.5938867e-10
2.0034732e-06
1.7504204e-10
2.0032801e-06
1.9304165e-10
2.003066e-06
2.1415805e-10
2.0028264e-06
2.3960809e-10
2.0025553e-06
2.7101752e-10
2.0022435e-06
3.1180611e-10
2.0018787e-06
3.6481381e-10
2.0014334e-06
4.4535198e-10
2.0008859e-06
5.4746512e-10
2.0001025e-06
7.8341039e-10
1.9991018e-06
1.0007064e-09
1.9961477e-06
2.9540843e-09
1.9938578e-06
2.2899076e-09
1.0234816e-06
9.703762e-07
3.926263e-08
9.8421897e-07
2.5452444e-08
1.3810187e-08
2.5101452e-08
3.5099108e-10
2.4848317e-08
2.5313514e-10
2.4268365e-08
5.7995219e-10
2.3642098e-08
6.2626711e-10
2.3079612e-08
5.6248631e-10
2.2593699e-08
4.8591224e-10
2.2169576e-08
4.2412311e-10
2.1793767e-08
3.7580938e-10
2.1456911e-08
3.3685633e-10
2.1149628e-08
3.0728287e-10
2.0865055e-08
2.845727e-10
2.0600664e-08
2.6439138e-10
2.035452e-08
2.461438e-10
2.0125122e-08
2.293976e-10
1.9910646e-08
2.1447596e-10
1.97092e-08
2.0144631e-10
1.9519353e-08
1.8984703e-10
1.9339767e-08
1.7958572e-10
1.9169277e-08
1.7048984e-10
1.9007016e-08
1.6226151e-10
1.885228e-08
1.5473595e-10
1.8704458e-08
1.4782192e-10
1.8562855e-08
1.416029e-10
1.8427024e-08
1.3583118e-10
1.8296541e-08
1.3048338e-10
1.8170774e-08
1.2576616e-10
1.8049423e-08
1.2135143e-10
1.7932245e-08
1.1717836e-10
1.7818774e-08
1.1347064e-10
1.7708763e-08
1.1001137e-10
1.7602077e-08
1.066853e-10
1.7498365e-08
1.0371283e-10
1.739734e-08
1.0102494e-10
1.7298951e-08
9.8388774e-11
1.7203036e-08
9.5914666e-11
1.7109292e-08
9.3744463e-11
1.7017578e-08
9.1713698e-11
1.6927751e-08
8.9826991e-11
1.6839568e-08
8.8183122e-11
1.6752937e-08
8.6630918e-11
1.666787e-08
8.5066957e-11
1.6584363e-08
8.350732e-11
1.6502303e-08
8.2059332e-11
1.6421525e-08
8.0778501e-11
1.6341948e-08
7.9577046e-11
1.6263538e-08
7.8409662e-11
1.6186213e-08
7.7325308e-11
1.6109862e-08
7.6350375e-11
1.6034412e-08
7.5450044e-11
1.5959808e-08
7.4604015e-11
1.5886007e-08
7.3801785e-11
1.5812942e-08
7.3064154e-11
1.5740539e-08
7.2402991e-11
1.5668755e-08
7.17844e-11
1.5597541e-08
7.1214434e-11
1.5526834e-08
7.0706583e-11
1.5456594e-08
7.0239607e-11
1.5386785e-08
6.9809372e-11
1.5317334e-08
6.9450853e-11
1.5248194e-08
6.9140042e-11
1.5179345e-08
6.8849665e-11
1.5110745e-08
6.8599721e-11
1.5042343e-08
6.8401325e-11
1.4974085e-08
6.8258833e-11
1.490593e-08
6.8154755e-11
1.4837864e-08
6.8065657e-11
1.4769845e-08
6.8019504e-11
1.4701785e-08
6.8059399e-11
1.4633633e-08
6.8151971e-11
1.4565387e-08
6.8245932e-11
1.4497012e-08
6.8375665e-11
1.4428384e-08
6.8627456e-11
1.4359432e-08
6.8952625e-11
1.4290181e-08
6.9250784e-11
1.4220607e-08
6.9573548e-11
1.4150607e-08
7.000026e-11
1.4080099e-08
7.0508087e-11
1.4009071e-08
7.102757e-11
1.3937474e-08
7.159718e-11
1.3865173e-08
7.2301236e-11
1.3792089e-08
7.3083765e-11
1.3718201e-08
7.3888214e-11
1.364341e-08
7.479084e-11
1.3567583e-08
7.5827415e-11
1.3490662e-08
7.6920282e-11
1.3412574e-08
7.8088012e-11
1.3333106e-08
7.9468666e-11
1.3255534e-08
7.75723e-11
1.3181667e-08
7.3866905e-11
1.3111036e-08
7.0630206e-11
1.3043391e-08
6.7645194e-11
1.2978688e-08
6.4703526e-11
1.2916716e-08
6.1972085e-11
1.2857223e-08
5.9492184e-11
1.2800021e-08
5.7202878e-11
1.274499e-08
5.5030958e-11
1.2692005e-08
5.2984921e-11
1.2640895e-08
5.1109448e-11
1.2591505e-08
4.9390647e-11
1.254374e-08
4.7764416e-11
1.2497533e-08
4.6207571e-11
1.2452785e-08
4.4747888e-11
1.2409353e-08
4.3431673e-11
1.2367133e-08
4.2220019e-11
1.2325907e-08
4.1226271e-11
1.22858e-08
4.0106531e-11
1.2245747e-08
4.0053505e-11
1.2207339e-08
3.8407476e-11
1.2160273e-08
4.7066503e-11
2.9540525e-11
2.0345099e-06
3.5949532e-11
2.0344564e-06
1.0613597e-10
2.034378e-06
1.5559681e-10
2.0342872e-06
1.7998361e-10
2.0341859e-06
2.0074795e-10
2.0340736e-06
2.2255508e-10
2.03395e-06
2.4505351e-10
2.0338146e-06
2.6845117e-10
2.0336665e-06
2.9365432e-10
2.0335043e-06
3.2159331e-10
2.0333262e-06
3.5315235e-10
2.0331298e-06
3.894384e-10
2.0329119e-06
4.3200467e-10
2.0326682e-06
4.8330375e-10
2.0323926e-06
5.4661211e-10
2.0320756e-06
6.2882203e-10
2.0317048e-06
7.3565577e-10
2.0312522e-06
8.9797029e-10
2.0306959e-06
1.1037575e-09
2.0299e-06
1.5792319e-09
2.0288836e-06
2.0171131e-09
2.0258845e-06
5.9532241e-09
2.0235543e-06
4.6201423e-09
1.090001e-06
1.9039294e-06
1.1761867e-07
1.9566013e-06
7.7881957e-08
5.3546896e-08
7.6808646e-08
1.4243018e-09
7.6032022e-08
1.0297599e-09
7.4255691e-08
2.3562829e-09
7.2339142e-08
2.5428164e-09
7.0618681e-08
2.2829472e-09
6.9132146e-08
1.972447e-09
6.7834425e-08
1.7218444e-09
6.6684542e-08
1.5256917e-09
6.5653879e-08
1.3675196e-09
6.4713694e-08
1.2474679e-09
6.3842991e-08
1.155276e-09
6.3034034e-08
1.0733483e-09
6.2280914e-08
9.9926345e-10
6.157903e-08
9.3128202e-10
6.0922798e-08
8.7070789e-10
6.0306431e-08
8.1781296e-10
5.9725552e-08
7.7072662e-10
5.9176071e-08
7.2906671e-10
5.8654416e-08
6.9214483e-10
5.8157942e-08
6.5873496e-10
5.7684491e-08
6.2818683e-10
5.723219e-08
6.0012357e-10
5.6798927e-08
5.7486541e-10
5.6383318e-08
5.5144037e-10
5.5984066e-08
5.2973568e-10
5.5599258e-08
5.1057374e-10
5.5227953e-08
4.9265689e-10
5.4869409e-08
4.7572155e-10
5.452222e-08
4.606605e-10
5.4185613e-08
4.4661743e-10
5.3859177e-08
4.331213e-10
5.3541838e-08
4.2105205e-10
5.3232731e-08
4.1013224e-10
5.2931684e-08
3.9943587e-10
5.2638201e-08
3.893977e-10
5.2351364e-08
3.8058117e-10
5.2070746e-08
3.723316e-10
5.1795895e-08
3.6467835e-10
5.1526068e-08
3.5800953e-10
5.1260998e-08
3.5170181e-10
5.1000716e-08
3.4534858e-10
5.0745202e-08
3.3902157e-10
5.0494113e-08
3.3314788e-10
5.0246948e-08
3.2794371e-10
5.0003462e-08
3.2306277e-10
4.9763546e-08
3.183254e-10
4.9526944e-08
3.1392744e-10
4.9293326e-08
3.0996848e-10
4.9062466e-08
3.0631017e-10
4.8834196e-08
3.0287366e-10
4.8608377e-08
2.9962088e-10
4.8384812e-08
2.9662918e-10
4.8163274e-08
2.9394089e-10
4.7943631e-08
2.914278e-10
4.772573e-08
2.8911549e-10
4.750938e-08
2.8705662e-10
4.729446e-08
2.8515998e-10
4.7080858e-08
2.8341124e-10
4.6868354e-08
2.8195425e-10
4.6656799e-08
2.8069531e-10
4.644613e-08
2.7951877e-10
4.6236229e-08
2.7850108e-10
4.6026935e-08
2.7769442e-10
4.5818077e-08
2.7711695e-10
4.5609536e-08
2.7669644e-10
4.5401267e-08
2.7633426e-10
4.5193141e-08
2.7614529e-10
4.4984894e-08
2.7630659e-10
4.4776362e-08
2.7668452e-10
4.456754e-08
2.7706705e-10
4.4358324e-08
2.775918e-10
4.4148339e-08
2.7861302e-10
4.3937357e-08
2.7993477e-10
4.3725461e-08
2.8114646e-10
4.3512579e-08
2.8245538e-10
4.3298393e-08
2.8418675e-10
4.3082651e-08
2.8624973e-10
4.2865319e-08
2.8835972e-10
4.2646245e-08
2.9067111e-10
4.2425018e-08
2.935285e-10
4.2201395e-08
2.9670677e-10
4.1975309e-08
2.9997339e-10
4.1746464e-08
3.0363646e-10
4.1514446e-08
3.0784491e-10
4.1279084e-08
3.1228261e-10
4.1040149e-08
3.1702296e-10
4.079699e-08
3.2262777e-10
4.0559632e-08
3.1492983e-10
4.0333613e-08
2.9988651e-10
4.0117498e-08
2.8674505e-10
3.9910516e-08
2.7462692e-10
3.9712535e-08
2.6268494e-10
3.9522912e-08
2.5159529e-10
3.9340877e-08
2.4152682e-10
3.9165847e-08
2.3223317e-10
3.8997462e-08
2.2341605e-10
3.8835337e-08
2.1510904e-10
3.8678952e-08
2.0749452e-10
3.8527827e-08
2.005164e-10
3.8381676e-08
1.9391468e-10
3.824029e-08
1.8759421e-10
3.810337e-08
1.8166737e-10
3.7970479e-08
1.763232e-10
3.7841296e-08
1.714031e-10
3.7715153e-08
1.6736852e-10
3.7592442e-08
1.6281786e-10
3.746989e-08
1.626057e-10
3.7352447e-08
1.5584989e-10
3.7208156e-08
1.9135797e-10
1.1951083e-10
2.0947024e-06
5.461976e-11
2.0946472e-06
1.6132877e-10
2.0945662e-06
2.3660761e-10
2.0944724e-06
2.7375993e-10
2.0943678e-06
3.0536808e-10
2.0942518e-06
3.3853964e-10
2.0941241e-06
3.7275203e-10
2.0939843e-06
4.0832415e-10
2.0938313e-06
4.466336e-10
2.0936638e-06
4.8909456e-10
2.0934799e-06
5.3705108e-10
2.0932771e-06
5.9218528e-10
2.0930523e-06
6.5685686e-10
2.0928008e-06
7.3479167e-10
2.0925164e-06
8.3096653e-10
2.0921894e-06
9.5585115e-10
2.0918069e-06
1.1181351e-09
2.0913402e-06
1.3646901e-09
2.0907667e-06
1.6772609e-09
2.0899465e-06
2.3994565e-09
2.0888992e-06
3.0644365e-09
2.0858097e-06
9.0426904e-09
2.0834075e-06
7.0223356e-09
1.1736711e-06
2.8136658e-06
2.0040676e-07
2.9298657e-06
1.349766e-07
1.1897705e-07
1.3311343e-07
3.287477e-09
1.3176413e-07
2.379063e-09
1.2868346e-07
5.4369475e-09
1.2536149e-07
5.8647877e-09
1.2238083e-07
5.2636061e-09
1.1980514e-07
4.5481374e-09
1.1755629e-07
3.9706961e-09
1.1556362e-07
3.5183611e-09
1.1377759e-07
3.1535503e-09
1.1214834e-07
2.8767151e-09
1.1063949e-07
2.6641271e-09
1.0923764e-07
2.4752009e-09
1.0793255e-07
2.3043505e-09
1.0671625e-07
2.1475864e-09
1.0557905e-07
2.0079055e-09
1.0451093e-07
1.8859307e-09
1.0350431e-07
1.7773519e-09
1.0255209e-07
1.6812804e-09
1.016481e-07
1.5961424e-09
1.0078774e-07
1.5190905e-09
9.9967276e-08
1.4486504e-09
9.9183458e-08
1.3839423e-09
9.8432642e-08
1.3256806e-09
9.7712412e-08
1.2716705e-09
9.7020521e-08
1.2216265e-09
9.6353673e-08
1.1774218e-09
9.5710218e-08
1.1361124e-09
9.5088872e-08
1.0970679e-09
9.4487209e-08
1.0623232e-09
9.3903887e-08
1.0299393e-09
9.3338181e-08
9.9882726e-10
9.2788242e-08
9.7099149e-10
9.2252576e-08
9.4579791e-10
9.1730872e-08
9.2114014e-10
9.1222268e-08
8.9800117e-10
9.0725189e-08
8.7765994e-10
9.0238894e-08
8.5862738e-10
8.9762584e-08
8.4098847e-10
8.9294976e-08
8.2561756e-10
8.8835616e-08
8.1106168e-10
8.838456e-08
7.9640388e-10
8.7941761e-08
7.8182109e-10
8.7506625e-08
7.6828359e-10
8.7078293e-08
7.5627573e-10
8.6656342e-08
7.4501397e-10
8.6240575e-08
7.3409254e-10
8.5830545e-08
7.2395741e-10
8.5425687e-08
7.148264e-10
8.5025613e-08
7.0638437e-10
8.463003e-08
6.9845673e-10
8.4238688e-08
6.9096225e-10
8.385125e-08
6.8406776e-10
8.3467329e-08
6.7786197e-10
8.3086693e-08
6.7206323e-10
8.2709075e-08
6.667337e-10
8.2334141e-08
6.619905e-10
8.1961685e-08
6.5761556e-10
8.1591518e-08
6.5357902e-10
8.1223255e-08
6.5021688e-10
8.0856632e-08
6.4731843e-10
8.0491542e-08
6.4460894e-10
8.0127785e-08
6.4225753e-10
7.9765085e-08
6.4039493e-10
7.9403137e-08
6.3906508e-10
7.9041734e-08
6.3809868e-10
7.8680806e-08
6.3726288e-10
7.8320127e-08
6.3682432e-10
7.7959238e-08
6.3719533e-10
7.7597852e-08
6.3807036e-10
7.7235965e-08
6.389543e-10
7.6873395e-08
6.4016137e-10
7.6509494e-08
6.4251477e-10
7.6143863e-08
6.4556559e-10
7.5776647e-08
6.4836191e-10
7.5407725e-08
6.5137818e-10
7.5036542e-08
6.5536931e-10
7.4662663e-08
6.6012892e-10
7.4286026e-08
6.6499649e-10
7.3906372e-08
6.7032506e-10
7.3522987e-08
6.7691311e-10
7.3135449e-08
6.8424475e-10
7.2743644e-08
6.9177913e-10
7.2347056e-08
7.0022457e-10
7.1944971e-08
7.0992992e-10
7.1537088e-08
7.2016523e-10
7.1123014e-08
7.3109652e-10
7.0701621e-08
7.4402147e-10
7.029028e-08
7.2627052e-10
6.9898588e-08
6.915785e-10
6.9524062e-08
6.6127098e-10
6.9165363e-08
6.3332569e-10
6.8822261e-08
6.0578697e-10
6.8493645e-08
5.8021204e-10
6.8178179e-08
5.5699201e-10
6.7874852e-08
5.3556044e-10
6.758304e-08
5.152278e-10
6.7302079e-08
4.9607005e-10
6.7031065e-08
4.7850915e-10
6.6769165e-08
4.6241656e-10
6.6515886e-08
4.4719291e-10
6.6270863e-08
4.326171e-10
6.6033583e-08
4.1894773e-10
6.5803284e-08
4.0662214e-10
6.5579413e-08
3.9527434e-10
6.5360813e-08
3.8596835e-10
6.5148162e-08
3.7546945e-10
6.4935794e-08
3.749737e-10
6.473233e-08
3.5931312e-10
6.4482085e-08
4.4160282e-10
2.7514717e-10
2.1861107e-06
7.412527e-11
2.186053e-06
2.1904752e-10
2.1859682e-06
3.2140375e-10
2.18587e-06
3.7197354e-10
2.1857604e-06
4.1495938e-10
2.1856389e-06
4.6003558e-10
2.1855051e-06
5.0650997e-10
2.1853586e-06
5.5481984e-10
2.1851984e-06
6.0683585e-10
2.1850231e-06
6.6447821e-10
2.1848305e-06
7.2957189e-10
2.1846183e-06
8.0440017e-10
2.184383e-06
8.9216521e-10
2.1841199e-06
9.9792275e-10
2.1838224e-06
1.1284251e-09
2.1834804e-06
1.2978779e-09
2.1830805e-06
1.5180675e-09
2.1825926e-06
1.8525889e-09
2.1819932e-06
2.2766505e-09
2.1811362e-06
3.2564506e-09
2.1800422e-06
4.1584275e-09
2.1768162e-06
1.2268685e-08
2.1743057e-06
9.5328313e-09
1.2778364e-06
3.7101351e-06
2.9226031e-07
3.9154418e-06
2.0014674e-07
2.1109063e-07
1.9737993e-07
6.0542826e-09
1.9537088e-07
4.3881118e-09
1.9079998e-07
1.0007852e-08
1.858738e-07
1.0790962e-08
1.81456e-07
9.6814137e-09
1.7763803e-07
8.3661084e-09
1.7430404e-07
7.3046836e-09
1.713498e-07
6.4726024e-09
1.6870195e-07
5.8013935e-09
1.6628653e-07
5.2921375e-09
1.6404958e-07
4.9010804e-09
1.6197125e-07
4.5535313e-09
1.6003638e-07
4.2392215e-09
1.5823312e-07
3.9508403e-09
1.5654714e-07
3.6938903e-09
1.5496356e-07
3.4695092e-09
1.5347114e-07
3.2697706e-09
1.5205939e-07
3.0930338e-09
1.5071911e-07
2.9364176e-09
1.4944354e-07
2.7946604e-09
1.4822711e-07
2.6650846e-09
1.47065e-07
2.5460545e-09
1.4595182e-07
2.4388523e-09
1.4488399e-07
2.3395059e-09
1.4385816e-07
2.2474545e-09
1.4286947e-07
2.1661098e-09
1.4191546e-07
2.0901258e-09
1.4099422e-07
2.0183116e-09
1.4010216e-07
1.954374e-09
1.3923731e-07
1.8947984e-09
1.3839855e-07
1.8375799e-09
1.3758318e-07
1.7863658e-09
1.3678898e-07
1.7399999e-09
1.3601547e-07
1.6946513e-09
1.3526137e-07
1.6520989e-09
1.3452437e-07
1.6146623e-09
1.3380336e-07
1.5796349e-09
1.3309715e-07
1.5472012e-09
1.3240383e-07
1.5189364e-09
1.3172275e-07
1.4921427e-09
1.3105398e-07
1.4651657e-09
1.3039745e-07
1.4383508e-09
1.2975228e-07
1.4134586e-09
1.291172e-07
1.3913577e-09
1.2849158e-07
1.3706294e-09
1.2787513e-07
1.3505431e-09
1.2726718e-07
1.331909e-09
1.266669e-07
1.3151091e-09
1.2607371e-07
1.2995686e-09
1.2548719e-07
1.2849801e-09
1.2490695e-07
1.2712037e-09
1.2433249e-07
1.2585275e-09
1.2376325e-07
1.247101e-09
1.2319888e-07
1.2364271e-09
1.2263899e-07
1.2266276e-09
1.2208307e-07
1.2179094e-09
1.2153083e-07
1.2098595e-09
1.2098198e-07
1.202427e-09
1.2043596e-07
1.1962385e-09
1.1989236e-07
1.1909143e-09
1.1935104e-07
1.1859358e-09
1.1881169e-07
1.1816032e-09
1.1827391e-07
1.1781724e-09
1.1773725e-07
1.1757294e-09
1.1720139e-07
1.1739572e-09
1.1666623e-07
1.172419e-09
1.1613145e-07
1.1716077e-09
1.1559636e-07
1.1722892e-09
1.1506052e-07
1.173905e-09
1.1452394e-07
1.1755344e-09
1.1398635e-07
1.1777505e-09
1.1344679e-07
1.1820778e-09
1.1290466e-07
1.1876953e-09
1.1236018e-07
1.1928434e-09
1.1181317e-07
1.1983893e-09
1.1126281e-07
1.2057297e-09
1.1070845e-07
1.21449e-09
1.1014999e-07
1.2234482e-09
1.0958707e-07
1.233249e-09
1.0901862e-07
1.2453675e-09
1.08444e-07
1.2588598e-09
1.0786306e-07
1.2727235e-09
1.0727502e-07
1.2882583e-09
1.0667884e-07
1.3061144e-09
1.0607406e-07
1.3249477e-09
1.0546009e-07
1.3450583e-09
1.0483528e-07
1.368837e-09
1.0422537e-07
1.3361818e-09
1.0364459e-07
1.2723561e-09
1.0308927e-07
1.2165945e-09
1.0255741e-07
1.1651826e-09
1.0204868e-07
1.1145192e-09
1.0156142e-07
1.0674659e-09
1.0109367e-07
1.0247449e-09
1.0064391e-07
9.8531688e-10
1.0021123e-07
9.4791066e-10
9.9794637e-08
9.1266354e-10
9.9392792e-08
8.8035395e-10
9.9004462e-08
8.50747e-10
9.8628915e-08
8.2274014e-10
9.8265608e-08
7.9592387e-10
9.7913782e-08
7.7077316e-10
9.757231e-08
7.4809434e-10
9.724037e-08
7.2721497e-10
9.6916249e-08
7.1008922e-10
9.6600948e-08
6.907703e-10
9.6286089e-08
6.8983267e-10
9.5984462e-08
6.609398e-10
9.56133e-08
8.1276553e-10
5.057519e-10
2.310097e-06
9.4760591e-11
2.3100359e-06
2.8017585e-10
2.309946e-06
4.1130049e-10
2.3098418e-06
4.7616076e-10
2.3097256e-06
5.3124153e-10
2.3095966e-06
5.8894987e-10
2.3094547e-06
6.4842504e-10
2.3092993e-06
7.1023261e-10
2.3091294e-06
7.767656e-10
2.3089434e-06
8.5048029e-10
2.3087392e-06
9.3371102e-10
2.3085143e-06
1.0293773e-09
2.3082649e-06
1.1415726e-09
2.307986e-06
1.2767592e-09
2.3076709e-06
1.4435665e-09
2.3073086e-06
1.660151e-09
2.3068851e-06
1.941571e-09
2.3063686e-06
2.369105e-09
2.3057342e-06
2.911035e-09
2.3048275e-06
4.163181e-09
2.3036703e-06
5.3155854e-09
2.3002595e-06
1.5679515e-08
2.2976025e-06
1.2189781e-08
1.4061126e-06
4.601625e-06
3.9808931e-07
4.9234651e-06
2.7727061e-07
3.3190933e-07
2.7342177e-07
9.903127e-09
2.7061765e-07
7.1922295e-09
2.642829e-07
1.6342602e-08
2.5746074e-07
1.7613121e-08
2.5134577e-07
1.5796378e-08
2.4606044e-07
1.3651442e-08
2.414443e-07
1.1920819e-08
2.3735381e-07
1.0563099e-08
2.3368757e-07
9.467635e-09
2.3034307e-07
8.6366291e-09
2.2724563e-07
7.998524e-09
2.2436779e-07
7.4313744e-09
2.2168856e-07
6.9184484e-09
2.1919155e-07
6.4478522e-09
2.1685688e-07
6.0285553e-09
2.1466399e-07
5.6624005e-09
2.1259731e-07
5.336454e-09
2.1064231e-07
5.0480354e-09
2.0878627e-07
4.7924578e-09
2.0701982e-07
4.5611064e-09
2.0533525e-07
4.3496598e-09
2.0372588e-07
4.1554216e-09
2.0218429e-07
3.9804421e-09
2.0070546e-07
3.818332e-09
1.9928479e-07
3.6681244e-09
1.9791556e-07
3.5353384e-09
1.9659434e-07
3.4113499e-09
1.9531848e-07
3.2941721e-09
1.9408306e-07
3.1897982e-09
1.9288528e-07
3.0925698e-09
1.9172365e-07
2.9992166e-09
1.9059439e-07
2.9156261e-09
1.8949446e-07
2.8399293e-09
1.8842317e-07
2.7659406e-09
1.8737875e-07
2.6965196e-09
1.8635801e-07
2.6353986e-09
1.8535943e-07
2.5782117e-09
1.8438133e-07
2.5253048e-09
1.8342107e-07
2.4791965e-09
1.8247777e-07
2.4354443e-09
1.8155154e-07
2.3913988e-09
1.8064223e-07
2.3476568e-09
1.7974864e-07
2.3070518e-09
1.7886903e-07
2.2709671e-09
1.7800254e-07
2.2371216e-09
1.7714873e-07
2.2043495e-09
1.7630668e-07
2.1739564e-09
1.7547525e-07
2.1465366e-09
1.7465366e-07
2.1211582e-09
1.738413e-07
2.0973435e-09
1.7303763e-07
2.0748782e-09
1.7224195e-07
2.0542024e-09
1.7145351e-07
2.0355395e-09
1.7067183e-07
2.0181099e-09
1.6989633e-07
2.0021258e-09
1.6912633e-07
1.9879106e-09
1.6836142e-07
1.9747717e-09
1.6760121e-07
1.9626314e-09
1.6684493e-07
1.9525279e-09
1.6609199e-07
1.9438525e-09
1.6534218e-07
1.9357379e-09
1.6459513e-07
1.9286577e-09
1.6385025e-07
1.9230527e-09
1.6310691e-07
1.9190727e-09
1.6236467e-07
1.9161908e-09
1.6162341e-07
1.913681e-09
1.6088267e-07
1.9123509e-09
1.6014149e-07
1.9134633e-09
1.5939929e-07
1.9161117e-09
1.5865604e-07
1.9187779e-09
1.5791141e-07
1.9223892e-09
1.5716403e-07
1.9294502e-09
1.564131e-07
1.9386285e-09
1.556589e-07
1.9470385e-09
1.5490121e-07
1.9560872e-09
1.5413887e-07
1.9680663e-09
1.5337099e-07
1.9823728e-09
1.5259743e-07
1.9970014e-09
1.5181769e-07
2.0129963e-09
1.5103028e-07
2.0327754e-09
1.5023433e-07
2.0548058e-09
1.4942962e-07
2.0774401e-09
1.4861508e-07
2.1027945e-09
1.4778925e-07
2.1319427e-09
1.4695151e-07
2.1626895e-09
1.4610105e-07
2.1955167e-09
1.4523556e-07
2.2343317e-09
1.443907e-07
2.1810349e-09
1.4358621e-07
2.0768544e-09
1.4281697e-07
1.9858334e-09
1.4208023e-07
1.9019173e-09
1.4137553e-07
1.8192244e-09
1.4070057e-07
1.7424191e-09
1.4005263e-07
1.672685e-09
1.3942962e-07
1.6083302e-09
1.3883026e-07
1.5472754e-09
1.3825318e-07
1.4897409e-09
1.3769653e-07
1.4370006e-09
1.371586e-07
1.3886738e-09
1.3663838e-07
1.3429611e-09
1.3613512e-07
1.2991896e-09
1.3564776e-07
1.2581335e-09
1.3517474e-07
1.2211111e-09
1.3471493e-07
1.1870276e-09
1.3426595e-07
1.1590643e-09
1.3382919e-07
1.1275291e-09
1.3339308e-07
1.1259442e-09
1.3297532e-07
1.0787026e-09
1.3246109e-07
1.3269966e-09
8.2508752e-10
2.4685091e-06
1.1683832e-10
2.4684436e-06
3.4565587e-10
2.4683472e-06
5.0770617e-10
2.4682354e-06
5.879712e-10
2.4681106e-06
6.5606288e-10
2.4679722e-06
7.2733236e-10
2.4678199e-06
8.0075156e-10
2.4676531e-06
8.7702703e-10
2.4674707e-06
9.5911166e-10
2.4672712e-06
1.0500361e-09
2.4670522e-06
1.1526804e-09
2.4668109e-06
1.2706454e-09
2.4665435e-06
1.4089777e-09
2.4662446e-06
1.5756442e-09
2.4659069e-06
1.7812817e-09
2.4655188e-06
2.0482714e-09
2.4650652e-06
2.3951678e-09
2.4645122e-06
2.9221586e-09
2.4638331e-06
3.5901027e-09
2.4628628e-06
5.1334207e-09
2.461625e-06
6.5534159e-09
2.4579782e-06
1.9326312e-08
2.4551343e-06
1.5033751e-08
1.562522e-06
5.4942373e-06
5.2330417e-07
5.9626829e-06
3.7087125e-07
4.8434225e-07
3.6565827e-07
1.5116104e-08
3.6185783e-07
1.0992668e-08
3.5338744e-07
2.4812994e-08
3.4427508e-07
2.6725482e-08
3.3611143e-07
2.3960028e-08
3.2905409e-07
2.0708781e-08
3.2288893e-07
1.8085983e-08
3.1742537e-07
1.6026659e-08
3.1252831e-07
1.4364693e-08
3.0806079e-07
1.3104151e-08
3.0392306e-07
1.2136253e-08
3.0007852e-07
1.1275912e-08
2.9649918e-07
1.0497796e-08
2.9316312e-07
9.7839044e-09
2.9004384e-07
9.1478392e-09
2.8711386e-07
8.5923774e-09
2.8435242e-07
8.0978976e-09
2.8174012e-07
7.6603384e-09
2.7925997e-07
7.2726024e-09
2.7689949e-07
6.9215876e-09
2.7464834e-07
6.6008063e-09
2.7249764e-07
6.306126e-09
2.7043748e-07
6.0406017e-09
2.6846114e-07
5.7946715e-09
2.6656247e-07
5.5667948e-09
2.6473253e-07
5.3652763e-09
2.6296671e-07
5.1771749e-09
2.6126146e-07
4.9994151e-09
2.5961025e-07
4.8410081e-09
2.5800934e-07
4.6934806e-09
2.5645668e-07
4.5518755e-09
2.5494728e-07
4.4250282e-09
2.5347708e-07
4.3101311e-09
2.5204512e-07
4.1978962e-09
2.5064905e-07
4.0925988e-09
2.4928462e-07
3.9998214e-09
2.4794982e-07
3.9130165e-09
2.4664235e-07
3.8327771e-09
2.453587e-07
3.7628456e-09
2.4409772e-07
3.6964211e-09
2.4285956e-07
3.6295603e-09
2.41644e-07
3.5632196e-09
2.4044941e-07
3.5016375e-09
2.3927352e-07
3.4468615e-09
2.3811516e-07
3.3954806e-09
2.3697374e-07
3.3457688e-09
2.3584801e-07
3.2996802e-09
2.3473648e-07
3.258073e-09
2.3363809e-07
3.2195414e-09
2.3255204e-07
3.1833986e-09
2.3147758e-07
3.1493402e-09
2.3041379e-07
3.1179879e-09
2.2935968e-07
3.0896497e-09
2.283146e-07
3.0631898e-09
2.2727777e-07
3.0389529e-09
2.2624828e-07
3.0174062e-09
2.2522558e-07
2.9974712e-09
2.2420917e-07
2.979037e-09
2.23198e-07
2.9637044e-09
2.2219128e-07
2.950566e-09
2.2118875e-07
2.9382732e-09
2.2018988e-07
2.9275204e-09
2.1919393e-07
2.9190108e-09
2.1820001e-07
2.9129879e-09
2.1720757e-07
2.9086364e-09
2.1621641e-07
2.9048347e-09
2.1522595e-07
2.9028131e-09
2.1423491e-07
2.904508e-09
2.1324247e-07
2.9085512e-09
2.1224863e-07
2.9126149e-09
2.1125292e-07
2.918094e-09
2.1025356e-07
2.9288148e-09
2.0924942e-07
2.9427672e-09
2.0824091e-07
2.9555503e-09
2.0722771e-07
2.9692866e-09
2.062083e-07
2.9874733e-09
2.0518147e-07
3.0092078e-09
2.0414704e-07
3.0314298e-09
2.0310432e-07
3.0557123e-09
2.0205136e-07
3.0857409e-09
2.0098696e-07
3.1192008e-09
1.9991083e-07
3.1535738e-09
1.9882156e-07
3.1920648e-09
1.9771718e-07
3.236322e-09
1.9659686e-07
3.2830118e-09
1.9545952e-07
3.3328531e-09
1.9430207e-07
3.3917847e-09
1.9317221e-07
3.3108945e-09
1.9209631e-07
3.1527533e-09
1.9106756e-07
3.0145819e-09
1.9008227e-07
2.8872032e-09
1.8913982e-07
2.7616827e-09
1.8823714e-07
2.645092e-09
1.8737059e-07
2.5392346e-09
1.8653737e-07
2.4415491e-09
1.8573578e-07
2.3488724e-09
1.8496399e-07
2.2615333e-09
1.8421952e-07
2.1814704e-09
1.8350008e-07
2.1081108e-09
1.8280432e-07
2.0387223e-09
1.8213123e-07
1.9722773e-09
1.8147941e-07
1.909949e-09
1.8084678e-07
1.8537421e-09
1.8023181e-07
1.8019994e-09
1.7963134e-07
1.759535e-09
1.790472e-07
1.7116658e-09
1.7846398e-07
1.7091645e-09
1.7790532e-07
1.6373711e-09
1.7721748e-07
2.0148274e-09
1.2521218e-09
2.6637075e-06
1.4069405e-10
2.6636367e-06
4.1650399e-10
2.6635322e-06
6.1214741e-10
2.663411e-06
7.0919839e-10
2.6632756e-06
7.9143535e-10
2.6631256e-06
8.7741463e-10
2.6629604e-06
9.6594304e-10
2.6627795e-06
1.0578842e-09
2.6625818e-06
1.1567973e-09
2.6623655e-06
1.2663345e-09
2.6621282e-06
1.3899666e-09
2.6618668e-06
1.5320309e-09
2.6615772e-06
1.6986044e-09
2.6612536e-06
1.8992788e-09
2.660888e-06
2.1468588e-09
2.660468e-06
2.4682883e-09
2.6599773e-06
2.885894e-09
2.6593791e-06
3.5202835e-09
2.658645e-06
4.3242806e-09
2.6575964e-06
6.1819684e-09
2.6562591e-06
7.8907077e-09
2.6523216e-06
2.32638e-08
2.649247e-06
1.8108435e-08
1.7516039e-06
6.3918804e-06
6.7400106e-07
7.0402857e-06
4.8625073e-07
6.7209258e-07
4.7919124e-07
2.2175596e-08
4.7409537e-07
1.6088541e-08
4.6301365e-07
3.5894709e-08
4.5111253e-07
3.8626601e-08
4.4045511e-07
3.4617449e-08
4.3123919e-07
2.99247e-08
4.2318574e-07
2.6139438e-08
4.1604762e-07
2.3164775e-08
4.0964892e-07
2.07634e-08
4.0381076e-07
1.8942309e-08
3.9840297e-07
1.7544038e-08
3.9337784e-07
1.6301046e-08
3.8869884e-07
1.5176791e-08
3.8433745e-07
1.4145302e-08
3.8025904e-07
1.3226245e-08
3.764278e-07
1.2423616e-08
3.7281663e-07
1.1709065e-08
3.6940023e-07
1.1076738e-08
3.6615643e-07
1.0516408e-08
3.6306893e-07
1.0009087e-08
3.6012423e-07
9.545501e-09
3.5731074e-07
9.1196179e-09
3.5461556e-07
8.7357814e-09
3.5202988e-07
8.3803559e-09
3.4954566e-07
8.0510115e-09
3.4715128e-07
7.7596598e-09
3.4484066e-07
7.4877953e-09
3.4260918e-07
7.2308879e-09
3.4044835e-07
7.0018477e-09
3.3835324e-07
6.7885857e-09
3.3632117e-07
6.5839443e-09
3.3434564e-07
6.4005559e-09
3.3242137e-07
6.2344035e-09
3.3054707e-07
6.0721995e-09
3.2871963e-07
5.9200339e-09
3.2693359e-07
5.7858606e-09
3.2518628e-07
5.6603256e-09
3.2347468e-07
5.544385e-09
3.2179419e-07
5.4433338e-09
3.2014336e-07
5.3472535e-09
3.1852236e-07
5.2505553e-09
3.1693088e-07
5.1546968e-09
3.1536681e-07
5.0657158e-09
3.1382717e-07
4.9864978e-09
3.1231047e-07
4.9121838e-09
3.1081589e-07
4.8403427e-09
3.0934181e-07
4.77376e-09
3.0788627e-07
4.7136123e-09
3.0644794e-07
4.6578783e-09
3.0502571e-07
4.6056232e-09
3.0361862e-07
4.5564359e-09
3.0222546e-07
4.5111476e-09
3.0084495e-07
4.4701586e-09
2.9947624e-07
4.4318948e-09
2.981183e-07
4.3968904e-09
2.9676993e-07
4.3657851e-09
2.9543042e-07
4.3369783e-09
2.9409914e-07
4.3103199e-09
2.9277468e-07
4.288164e-09
2.9145602e-07
4.2692217e-09
2.901428e-07
4.2514938e-09
2.8883437e-07
4.2359494e-09
2.8752973e-07
4.2236558e-09
2.8622772e-07
4.2149904e-09
2.8492761e-07
4.2087498e-09
2.8362916e-07
4.2032822e-09
2.823316e-07
4.2003741e-09
2.8103325e-07
4.2028578e-09
2.7973304e-07
4.208764e-09
2.7843096e-07
4.2146896e-09
2.7712642e-07
4.2226352e-09
2.7581706e-07
4.2381739e-09
2.7450142e-07
4.2584151e-09
2.7318001e-07
4.2769593e-09
2.7185243e-07
4.2968591e-09
2.7051671e-07
4.3232023e-09
2.6917121e-07
4.3547022e-09
2.6781574e-07
4.3869057e-09
2.6644938e-07
4.4220713e-09
2.6506956e-07
4.4655552e-09
2.6367474e-07
4.5140259e-09
2.622645e-07
4.5638131e-09
2.6083702e-07
4.6195441e-09
2.5938971e-07
4.6836311e-09
2.5792147e-07
4.7512483e-09
2.5643091e-07
4.8234174e-09
2.5491395e-07
4.9087444e-09
2.5343312e-07
4.7917241e-09
2.5202299e-07
4.5628874e-09
2.5067463e-07
4.3629374e-09
2.4938322e-07
4.1786157e-09
2.4814792e-07
3.9969848e-09
2.4696474e-07
3.8282642e-09
2.458289e-07
3.675074e-09
2.4473673e-07
3.5337181e-09
2.43686e-07
3.3996091e-09
2.4267432e-07
3.2732144e-09
2.4169844e-07
3.1573469e-09
2.4075537e-07
3.0511848e-09
2.3984331e-07
2.9507741e-09
2.3896097e-07
2.8546172e-09
2.3810651e-07
2.76441e-09
2.372772e-07
2.6830584e-09
2.3647102e-07
2.6081724e-09
2.3568386e-07
2.5466942e-09
2.3491811e-07
2.4774239e-09
2.3415362e-07
2.473654e-09
2.3342132e-07
2.369673e-09
2.3251954e-07
2.9166072e-09
1.8119256e-09
2.8986013e-06
1.6669164e-10
2.8985239e-06
4.9382822e-10
2.8984098e-06
7.2629683e-10
2.8982772e-06
8.418141e-10
2.898129e-06
9.3957374e-10
2.8979648e-06
1.0416537e-09
2.897784e-06
1.1467002e-09
2.8975862e-06
1.2557539e-09
2.8973699e-06
1.3730363e-09
2.8971334e-06
1.5028786e-09
2.896874e-06
1.6493962e-09
2.8965883e-06
1.8177298e-09
2.8962718e-06
2.0150791e-09
2.8959183e-06
2.2528065e-09
2.895519e-06
2.5460772e-09
2.8950605e-06
2.9268047e-09
2.894525e-06
3.4214209e-09
2.8938725e-06
4.172771e-09
2.8930719e-06
5.1249066e-09
2.891929e-06
7.324888e-09
2.8904718e-06
9.3478317e-09
2.8861845e-06
2.7551111e-08
2.8828316e-06
2.1461414e-08
1.9785045e-06
7.2962074e-06
8.5709045e-07
8.1616998e-06
6.2950525e-07
8.9967778e-07
6.1969536e-07
3.1985484e-08
6.1285304e-07
2.2930863e-08
5.9858804e-07
5.0159707e-08
5.8331281e-07
5.3901831e-08
5.6963817e-07
4.829209e-08
5.5780739e-07
4.1755481e-08
5.4746408e-07
3.6482751e-08
5.3829363e-07
3.2335218e-08
5.3007109e-07
2.8985948e-08
5.225671e-07
2.6446292e-08
5.1561482e-07
2.4496324e-08
5.0915305e-07
2.2762817e-08
5.0313504e-07
2.1194795e-08
4.9752433e-07
1.9756013e-08
4.9227662e-07
1.8473961e-08
4.8734601e-07
1.7354225e-08
4.8269781e-07
1.6357266e-08
4.7829958e-07
1.5474968e-08
4.7412289e-07
1.4693091e-08
4.701469e-07
1.3985085e-08
4.6635425e-07
1.3338145e-08
4.627301e-07
1.2743772e-08
4.5925793e-07
1.2207946e-08
4.5592641e-07
1.1711883e-08
4.5272522e-07
1.1252193e-08
4.4963949e-07
1.084539e-08
4.4666138e-07
1.0465909e-08
4.4378496e-07
1.0107311e-08
4.4099934e-07
9.7874668e-09
4.3829821e-07
9.489718e-09
4.3567807e-07
9.2040801e-09
4.3313062e-07
8.9480026e-09
4.3064909e-07
8.7159381e-09
4.2823177e-07
8.4895197e-09
4.2587467e-07
8.2771282e-09
4.2357082e-07
8.0897126e-09
4.2131678e-07
7.9143652e-09
4.1910861e-07
7.7525547e-09
4.1694043e-07
7.6115145e-09
4.1481041e-07
7.4772799e-09
4.1271876e-07
7.3422036e-09
4.1066503e-07
7.2084223e-09
4.0864651e-07
7.0842419e-09
4.0665941e-07
6.9735908e-09
4.0470181e-07
6.8697823e-09
4.0277265e-07
6.7695119e-09
4.0086979e-07
6.6766142e-09
3.9899076e-07
6.5926435e-09
3.9713385e-07
6.5147909e-09
3.9529764e-07
6.4418348e-09
3.9348083e-07
6.3732411e-09
3.916819e-07
6.310074e-09
3.8989923e-07
6.2528308e-09
3.8813172e-07
6.199408e-09
3.86378e-07
6.1506046e-09
3.8463653e-07
6.1072627e-09
3.8290642e-07
6.0670869e-09
3.8118686e-07
6.0298812e-09
3.7947603e-07
5.9989951e-09
3.7777259e-07
5.9726585e-09
3.7607608e-07
5.9480064e-09
3.7438568e-07
5.9263443e-09
3.727001e-07
5.909236e-09
3.7101784e-07
5.897247e-09
3.6933794e-07
5.8886584e-09
3.676601e-07
5.8811187e-09
3.6598334e-07
5.8771361e-09
3.6430548e-07
5.8807174e-09
3.6262512e-07
5.8891225e-09
3.6094227e-07
5.8975403e-09
3.5925616e-07
5.9087439e-09
3.5756375e-07
5.9305847e-09
3.5586312e-07
5.9590434e-09
3.5415496e-07
5.985121e-09
3.5243876e-07
6.0130619e-09
3.5071193e-07
6.0500252e-09
3.489724e-07
6.0942381e-09
3.4721987e-07
6.1394342e-09
3.4545319e-07
6.1887482e-09
3.4366904e-07
6.2497095e-09
3.4186538e-07