/*--------------------------------*- C++ -*----------------------------------*\
  =========                 |
  \\      /  F ield         | OpenFOAM: The Open Source CFD Toolbox
   \\    /   O peration     | Website:  https://openfoam.org
    \\  /    A nd           | Version:  12
     \\/     M anipulation  |
\*---------------------------------------------------------------------------*/
FoamFile
{
    format      ascii;
    class       volVectorField;
    location    "500";
    object      U;
}
// * * * * * * * * * * * * * * * * * * * * * * * * * * * * * * * * * * * * * //

dimensions      [0 1 -1 0 0 0 0];

internalField   nonuniform List<vector> 
13056
(
(1 2.2246324e-10 3.6893755e-24)
(0.99998327 7.4496138e-10 0)
(0.99994862 1.2385409e-09 0)
(0.99990677 1.6247306e-09 0)
(0.99985994 2.054982e-09 0)
(0.99980784 2.5826568e-09 0)
(0.99975024 3.2220498e-09 0)
(0.99968702 3.9963965e-09 0)
(0.99961785 4.9450409e-09 0)
(0.99954218 6.1186087e-09 0)
(0.99945921 7.5797517e-09 0)
(0.99936795 9.4108806e-09 0)
(0.99926706 1.1724697e-08 0)
(0.99915477 1.4685762e-08 0)
(0.99902855 1.8523193e-08 0)
(0.99888498 2.364878e-08 0)
(0.99871817 3.0520665e-08 0)
(0.99852175 4.0799741e-08 0)
(0.99827505 5.4443071e-08 0)
(0.99797615 8.3703865e-08 0)
(0.99749703 1.1351788e-07 0)
(0.99697558 3.5107785e-07 0)
(0.99457521 2.8089481e-07 -4.5828455e-21)
(0.99465656 0.00012170982 1.4875846e-16)
(0.026238625 0.00012489122 0)
(0.012870327 1.2831254e-06 -5.0181274e-17)
(0.012521578 8.7182006e-09 1.5090887e-20)
(0.012522718 6.0855165e-09 6.2907954e-21)
(0.012266782 1.4089691e-08 0)
(0.011943479 1.5149751e-08 0)
(0.011642282 1.3504767e-08 0)
(0.011382548 1.1541758e-08 0)
(0.011157608 9.968823e-09 0)
(0.010959493 8.7456128e-09 0)
(0.010782757 7.7594357e-09 0)
(0.010623492 7.0030242e-09 0)
(0.01047623 6.4150929e-09 0)
(0.01033962 5.8937476e-09 0)
(0.010212487 5.4246769e-09 0)
(0.010094082 4.9964663e-09 0)
(0.0099836525 4.6155147e-09 0)
(0.0098801302 4.2820218e-09 0)
(0.0097826975 3.9847501e-09 0)
(0.009690744 3.7211531e-09 0)
(0.0096035475 3.4861012e-09 0)
(0.0095206645 3.2735357e-09 0)
(0.0094416779 3.0787414e-09 0)
(0.0093663013 2.8996468e-09 0)
(0.0092942088 2.7382129e-09 0)
(0.0092250394 2.5878395e-09 0)
(0.009158703 2.4484717e-09 0)
(0.0090948651 2.3242241e-09 0)
(0.0090332376 2.2073384e-09 0)
(0.0089738025 2.0971552e-09 0)
(0.0089163355 1.9979339e-09 0)
(0.0088606009 1.904698e-09 0)
(0.0088065848 1.8154627e-09 0)
(0.0087541665 1.7342361e-09 0)
(0.0087031145 1.6595357e-09 0)
(0.0086533801 1.5867725e-09 0)
(0.0086049568 1.5180868e-09 0)
(0.0085576883 1.4558725e-09 0)
(0.0085114304 1.3970053e-09 0)
(0.0084661894 1.34118e-09 0)
(0.0084218112 1.2900643e-09 0)
(0.0083782084 1.2415187e-09 0)
(0.0083353804 1.1936736e-09 0)
(0.0082933388 1.1466485e-09 0)
(0.0082520659 1.1020835e-09 0)
(0.008211467 1.060832e-09 0)
(0.0081714725 1.0213672e-09 0)
(0.0081320725 9.8300198e-10 0)
(0.0080932422 9.4636298e-10 0)
(0.0080549225 9.1186189e-10 0)
(0.0080170648 8.7891559e-10 0)
(0.0079796431 8.471928e-10 0)
(0.0079426296 8.1643609e-10 0)
(0.0079060074 7.8697249e-10 0)
(0.0078697285 7.5898904e-10 0)
(0.0078337665 7.3188599e-10 0)
(0.0077981042 7.0570656e-10 0)
(0.0077627103 6.8056579e-10 0)
(0.0077275535 6.5630531e-10 0)
(0.0076926255 6.3280313e-10 0)
(0.0076578973 6.1033158e-10 0)
(0.0076233265 5.8856806e-10 0)
(0.0075889076 5.6732735e-10 0)
(0.0075546254 5.468286e-10 0)
(0.0075204559 5.2701824e-10 0)
(0.0074863707 5.0790654e-10 0)
(0.0074523425 4.8933757e-10 0)
(0.00741836 4.7117113e-10 0)
(0.0073844203 4.5356646e-10 0)
(0.0073504827 4.3675759e-10 0)
(0.0073165019 4.2045845e-10 0)
(0.0072824707 4.043769e-10 0)
(0.0072483954 3.8873352e-10 0)
(0.0072142334 3.739465e-10 0)
(0.0071799043 3.5966282e-10 0)
(0.0071454168 3.4536625e-10 0)
(0.0071107893 3.3136078e-10 0)
(0.0070759778 3.1796991e-10 0)
(0.007040922 3.0502513e-10 0)
(0.0070056016 2.9222177e-10 0)
(0.0069700259 2.7972721e-10 0)
(0.0069341339 2.6782067e-10 0)
(0.0068978519 2.5622712e-10 0)
(0.0068611764 2.4474906e-10 0)
(0.0068240884 2.3363764e-10 0)
(0.0067865075 2.2293908e-10 0)
(0.0067483803 2.1239349e-10 0)
(0.0067097049 2.0205018e-10 0)
(0.0066704061 1.9222122e-10 0)
(0.0066312428 1.8288079e-10 0)
(0.0065935157 1.7414285e-10 0)
(0.0065575473 1.6651629e-10 0)
(0.0065230497 1.5947959e-10 0)
(0.0064900592 1.5254279e-10 0)
(0.0064584962 1.4610582e-10 0)
(0.006428231 1.4026194e-10 0)
(0.0063991423 1.3486422e-10 0)
(0.0063711609 1.29744e-10 0)
(0.006344239 1.2492375e-10 0)
(0.006318299 1.2050463e-10 0)
(0.0062932482 1.1645448e-10 0)
(0.0062690231 1.1262102e-10 0)
(0.0062455946 1.0895306e-10 0)
(0.0062229227 1.0551672e-10 0)
(0.0062009507 1.0241561e-10 0)
(0.0061795917 9.9565196e-11 0)
(0.006158829 9.7218279e-11 0)
(0.0061384601 9.4613896e-11 0)
(0.0061188183 9.445074e-11 0)
(0.0060984911 3.4183652e-10 0)
(0.0060805409 1.0934425e-10 1.5016953e-22)
(0.0060513493 2.6411132e-10 0)
(1 6.7107615e-10 0)
(0.99998325 2.2483129e-09 0)
(0.99994853 3.7395887e-09 0)
(0.99990656 4.9069142e-09 0)
(0.99985959 6.2068342e-09 0)
(0.99980733 7.8005743e-09 0)
(0.99974955 9.7314493e-09 0)
(0.99968614 1.2069596e-08 0)
(0.99961677 1.4933692e-08 0)
(0.99954089 1.8476448e-08 0)
(0.9994577 2.2886843e-08 0)
(0.99936621 2.8413435e-08 0)
(0.99926508 3.5396111e-08 0)
(0.99915254 4.4331135e-08 0)
(0.99902606 5.5909401e-08 0)
(0.99888222 7.1372662e-08 0)
(0.99871513 9.2102148e-08 0)
(0.9985184 1.2310624e-07 0)
(0.99827138 1.6425336e-07 0)
(0.99797214 2.5249196e-07 0)
(0.9974926 3.4236398e-07 0)
(0.99697083 1.0586965e-06 0)
(0.99456926 8.4743965e-07 1.6934794e-20)
(0.99464936 0.00036131153 -1.1848936e-20)
(0.076652579 0.00036859994 0)
(0.038804151 7.259201e-06 0)
(0.037751705 1.8253394e-07 2.3426563e-20)
(0.037755163 1.3066031e-07 0)
(0.036983117 2.96624e-07 -4.5378473e-21)
(0.0360075 3.1734108e-07 0)
(0.035099673 2.8236359e-07 0)
(0.034316857 2.4161233e-07 0)
(0.033638737 2.088295e-07 0)
(0.033041444 1.8317985e-07 0)
(0.032508626 1.6249859e-07 0)
(0.032028487 1.466643e-07 0)
(0.031584527 1.3435092e-07 0)
(0.031172679 1.2343452e-07 0)
(0.030789403 1.1360506e-07 0)
(0.030432443 1.0463955e-07 0)
(0.030099524 9.6662854e-08 0)
(0.029787428 8.9678533e-08 0)
(0.029493688 8.3455457e-08 0)
(0.029216468 7.7931735e-08 0)
(0.028953588 7.3013698e-08 0)
(0.028703712 6.8556688e-08 0)
(0.028465584 6.447957e-08 0)
(0.028238336 6.0733963e-08 0)
(0.028020991 5.7343518e-08 0)
(0.02781246 5.4199609e-08 0)
(0.027612465 5.1285495e-08 0)
(0.027420005 4.8673951e-08 0)
(0.027234212 4.6230679e-08 0)
(0.027055023 4.3927537e-08 0)
(0.026881768 4.1842863e-08 0)
(0.02671374 3.9890882e-08 0)
(0.02655089 3.8026328e-08 0)
(0.026392855 3.6324105e-08 0)
(0.026238943 3.4754401e-08 0)
(0.026089003 3.3234234e-08 0)
(0.025943013 3.1799224e-08 0)
(0.025800503 3.0492558e-08 0)
(0.025661045 2.9256709e-08 0)
(0.025524652 2.8091029e-08 0)
(0.025390856 2.7023053e-08 0)
(0.025259399 2.6002874e-08 0)
(0.02513028 2.4998922e-08 0)
(0.025003532 2.4016362e-08 0)
(0.024879099 2.3085346e-08 0)
(0.024756698 2.2219032e-08 0)
(0.024636121 2.1391102e-08 0)
(0.024517337 2.0588374e-08 0)
(0.024400268 1.982288e-08 0)
(0.024284738 1.9099673e-08 0)
(0.024170602 1.8408452e-08 0)
(0.024057782 1.7743167e-08 0)
(0.023946193 1.7100606e-08 0)
(0.02383578 1.6484665e-08 0)
(0.023726403 1.5896788e-08 0)
(0.023617983 1.5328645e-08 0)
(0.023510467 1.4780818e-08 0)
(0.023403758 1.4255258e-08 0)
(0.023297764 1.3746738e-08 0)
(0.02319246 1.325392e-08 0)
(0.023087761 1.2782712e-08 0)
(0.022983535 1.2327765e-08 0)
(0.022879765 1.1883608e-08 0)
(0.022776408 1.1453285e-08 0)
(0.022673392 1.1038135e-08 0)
(0.022570629 1.0638084e-08 0)
(0.022468038 1.0249708e-08 0)
(0.022365585 9.8690786e-09 0)
(0.022263261 9.5000216e-09 0)
(0.022160943 9.1478017e-09 0)
(0.022058496 8.8069341e-09 0)
(0.021955895 8.4703686e-09 0)
(0.021853162 8.1423337e-09 0)
(0.021750168 7.8323468e-09 0)
(0.02164667 7.5334996e-09 0)
(0.021542694 7.2344344e-09 0)
(0.021438296 6.9408827e-09 0)
(0.021333344 6.6602974e-09 0)
(0.021227655 6.3894324e-09 0)
(0.021121167 6.1214561e-09 0)
(0.02101391 5.8596315e-09 0)
(0.0209057 5.6101558e-09 0)
(0.020796315 5.3675514e-09 0)
(0.020685742 5.1272589e-09 0)
(0.020573926 4.894363e-09 0)
(0.020460624 4.6703249e-09 0)
(0.020345674 4.4495434e-09 0)
(0.020229073 4.2328507e-09 0)
(0.020110591 4.0269243e-09 0)
(0.019992518 3.8313423e-09 0)
(0.019878775 3.6483323e-09 0)
(0.019770334 3.488466e-09 0)
(0.019666328 3.3410334e-09 0)
(0.019566865 3.1957454e-09 0)
(0.019471706 3.0608358e-09 0)
(0.01938046 2.9383497e-09 0)
(0.019292761 2.8252803e-09 0)
(0.0192084 2.7180081e-09 0)
(0.019127234 2.6169502e-09 0)
(0.019049028 2.5243178e-09 0)
(0.018973503 2.4394237e-09 0)
(0.018900467 2.3591031e-09 0)
(0.018829833 2.282208e-09 0)
(0.018761479 2.2101094e-09 0)
(0.018695237 2.1450997e-09 0)
(0.018630843 2.0852498e-09 0)
(0.018568247 2.0361747e-09 0)
(0.01850684 1.9808332e-09 0)
(0.018447622 1.9782678e-09 0)
(0.018386354 1.9242111e-09 0)
(0.018332236 2.3263273e-09 -2.3386602e-22)
(0.018244226 1.4776007e-09 4.2384973e-23)
(1 1.1301038e-09 0)
(0.99998323 3.7877746e-09 0)
(0.99994844 6.3026362e-09 0)
(0.99990634 8.2720002e-09 0)
(0.99985921 1.0464195e-08 0)
(0.99980677 1.315108e-08 0)
(0.9997488 1.6405887e-08 0)
(0.99968518 2.0346803e-08 0)
(0.99961559 2.5173679e-08 0)
(0.99953947 3.1143672e-08 0)
(0.99945605 3.8575006e-08 0)
(0.9993643 4.7886199e-08 0)
(0.99926291 5.9649508e-08 0)
(0.9991501 7.4700439e-08 0)
(0.99902333 9.4202102e-08 0)
(0.9988792 1.2024501e-07 0)
(0.9987118 1.5515406e-07 0)
(0.99851474 2.0736083e-07 0)
(0.99826737 2.7664101e-07 0)
(0.99796776 4.2519568e-07 0)
(0.99748777 5.7651825e-07 0)
(0.99696564 1.7822782e-06 0)
(0.99456285 1.4281126e-06 -8.9406681e-21)
(0.99464172 0.00059154713 5.0893096e-54)
(0.12576707 0.00061043725 -8.1710655e-54)
(0.065319905 1.9815238e-05 0)
(0.063545842 5.300021e-07 -1.2478019e-20)
(0.063550193 3.7991649e-07 0)
(0.062249975 8.6171925e-07 0)
(0.060606628 9.2140164e-07 0)
(0.059078959 8.1948914e-07 0)
(0.057761707 7.0131236e-07 0)
(0.056620388 6.0623789e-07 0)
(0.055615047 5.3177735e-07 0)
(0.054718255 4.7172885e-07 0)
(0.053910136 4.257648e-07 0)
(0.053162901 3.900217e-07 0)
(0.052469713 3.5833247e-07 0)
(0.051824616 3.2979641e-07 0)
(0.051223811 3.0377063e-07 0)
(0.050663469 2.8061553e-07 0)
(0.050138171 2.6034073e-07 0)
(0.049643769 2.4227605e-07 0)
(0.049177169 2.262403e-07 0)
(0.048734704 2.1196432e-07 0)
(0.048314128 1.9902423e-07 0)
(0.047913327 1.8718926e-07 0)
(0.047530832 1.7631703e-07 0)
(0.047165008 1.6647178e-07 0)
(0.046814022 1.5734654e-07 0)
(0.046477397 1.4888818e-07 0)
(0.046153457 1.4130398e-07 0)
(0.04584074 1.342124e-07 0)
(0.045539134 1.2752776e-07 0)
(0.045247518 1.2147374e-07 0)
(0.044964702 1.1580712e-07 0)
(0.044690598 1.1039585e-07 0)
(0.044424596 1.0545368e-07 0)
(0.044165538 1.0089498e-07 0)
(0.043913167 9.648311e-08 0)
(0.043667437 9.2318523e-08 0)
(0.043427568 8.8523798e-08 0)
(0.043192838 8.4934884e-08 0)
(0.042963267 8.1552166e-08 0)
(0.042738063 7.8452744e-08 0)
(0.042516795 7.5489794e-08 0)
(0.042299469 7.2574401e-08 0)
(0.042086132 6.9722887e-08 0)
(0.041876687 6.702096e-08 0)
(0.041670661 6.4505154e-08 0)
(0.04146771 6.2100925e-08 0)
(0.041267777 5.9770886e-08 0)
(0.041070729 5.7549319e-08 0)
(0.040876269 5.5449605e-08 0)
(0.040684157 5.3442328e-08 0)
(0.040494263 5.1510644e-08 0)
(0.040306438 4.9645875e-08 0)
(0.040120591 4.7858157e-08 0)
(0.039936487 4.6150856e-08 0)
(0.039753999 4.4501174e-08 0)
(0.03957303 4.2911013e-08 0)
(0.039393419 4.1385642e-08 0)
(0.03921501 3.990923e-08 0)
(0.039037764 3.8478208e-08 0)
(0.038861535 3.711005e-08 0)
(0.038686105 3.5789637e-08 0)
(0.038511439 3.4500449e-08 0)
(0.038337468 3.325082e-08 0)
(0.038164074 3.2045422e-08 0)
(0.037991106 3.0884132e-08 0)
(0.037818425 2.9756824e-08 0)
(0.037645975 2.8651748e-08 0)
(0.037473744 2.7580148e-08 0)
(0.037301526 2.6557539e-08 0)
(0.037129087 2.5568133e-08 0)
(0.036956389 2.4591112e-08 0)
(0.036783468 2.3638605e-08 0)
(0.036610111 2.273859e-08 0)
(0.036435905 2.1871112e-08 0)
(0.036260891 2.1002945e-08 0)
(0.036085168 2.0150605e-08 0)
(0.035908514 1.9335946e-08 0)
(0.035730619 1.8549656e-08 0)
(0.03555138 1.7771728e-08 0)
(0.035370845 1.7011534e-08 0)
(0.035188707 1.6287209e-08 0)
(0.035004589 1.558295e-08 0)
(0.034818473 1.4885366e-08 0)
(0.034630264 1.4209162e-08 0)
(0.034439555 1.3558743e-08 0)
(0.034246072 1.2917808e-08 0)
(0.034049808 1.2288693e-08 0)
(0.03385038 1.1690841e-08 0)
(0.03365164 1.1123066e-08 0)
(0.033460187 1.0591749e-08 0)
(0.03327766 1.0127596e-08 0)
(0.033102597 9.6995953e-09 0)
(0.032935181 9.2778253e-09 0)
(0.03277501 8.8861452e-09 0)
(0.032621424 8.5305316e-09 0)
(0.03247381 8.2022926e-09 0)
(0.032331813 7.8908844e-09 0)
(0.032195193 7.5974846e-09 0)
(0.032063557 7.3285428e-09 0)
(0.031936434 7.0820813e-09 0)
(0.0318135 6.8489187e-09 0)
(0.031694608 6.6256859e-09 0)
(0.031579556 6.4163486e-09 0)
(0.031468058 6.2275924e-09 0)
(0.031359671 6.05381e-09 0)
(0.03125431 5.9113113e-09 0)
(0.031150954 5.7505474e-09 0)
(0.031051279 5.7430779e-09 0)
(0.030948175 5.4953445e-09 0)
(0.030857083 6.7609646e-09 0)
(0.030708944 4.2109952e-09 0)
(1 1.606488e-09 7.907419e-24)
(0.99998322 5.3870177e-09 0)
(0.99994834 8.9676232e-09 0)
(0.9999061 1.1772864e-08 0)
(0.9998588 1.4894148e-08 0)
(0.99980616 1.8718493e-08 0)
(0.99974798 2.3350462e-08 0)
(0.99968412 2.8958184e-08 0)
(0.99961429 3.5825758e-08 0)
(0.99953792 4.4318734e-08 0)
(0.99945422 5.4889463e-08 0)
(0.9993622 6.8132812e-08 0)
(0.99926052 8.4862101e-08 0)
(0.99914741 1.0626475e-07 0)
(0.99902033 1.3399363e-07 0)
(0.99887587 1.7101965e-07 0)
(0.99870813 2.2064614e-07 0)
(0.99851071 2.9485546e-07 0)
(0.99826296 3.9332428e-07 0)
(0.99796295 6.0444867e-07 0)
(0.99748245 8.1949383e-07 0)
(0.99695995 2.5328644e-06 0)
(0.99455588 2.0308987e-06 0)
(0.99463355 0.00081675739 -2.6397567e-54)
(0.17422624 0.0008554279 4.2554294e-54)
(0.09280733 3.9335667e-05 0)
(0.090288181 1.0920951e-06 0)
(0.090288546 7.8396746e-07 0)
(0.088440046 1.7757952e-06 0)
(0.086103843 1.8980056e-06 0)
(0.083934217 1.6874605e-06 0)
(0.082063483 1.4442494e-06 0)
(0.080442248 1.2485967e-06 0)
(0.079014078 1.0952486e-06 0)
(0.077740146 9.7155896e-07 0)
(0.076592181 8.7689737e-07 0)
(0.075530689 8.0328724e-07 0)
(0.074545969 7.3802275e-07 0)
(0.073629563 6.7924944e-07 0)
(0.072776078 6.2564901e-07 0)
(0.071980064 5.779614e-07 0)
(0.071233831 5.3620518e-07 0)
(0.070531482 4.9900081e-07 0)
(0.069868629 4.6597363e-07 0)
(0.069240056 4.3657236e-07 0)
(0.068642578 4.0991937e-07 0)
(0.068073194 3.8554557e-07 0)
(0.067529808 3.6315482e-07 0)
(0.067010107 3.4287392e-07 0)
(0.06651149 3.2408171e-07 0)
(0.066033261 3.0666267e-07 0)
(0.065573058 2.9103841e-07 0)
(0.065128804 2.7643421e-07 0)
(0.064700322 2.6266849e-07 0)
(0.064286035 2.5019657e-07 0)
(0.063884256 2.3852542e-07 0)
(0.063494846 2.2738259e-07 0)
(0.063116944 2.1720272e-07 0)
(0.062748911 2.0781093e-07 0)
(0.062390381 1.9872588e-07 0)
(0.062041277 1.901503e-07 0)
(0.061700497 1.8233248e-07 0)
(0.061367027 1.7493884e-07 0)
(0.061040884 1.6797359e-07 0)
(0.060720937 1.6159134e-07 0)
(0.060406583 1.5548679e-07 0)
(0.060097835 1.4948076e-07 0)
(0.059794755 1.4360903e-07 0)
(0.059497196 1.3804529e-07 0)
(0.059204495 1.3286239e-07 0)
(0.058916167 1.279094e-07 0)
(0.058632127 1.2311084e-07 0)
(0.058352181 1.1853624e-07 0)
(0.05807591 1.1421128e-07 0)
(0.057802977 1.1007599e-07 0)
(0.057533197 1.0609692e-07 0)
(0.057266356 1.0225707e-07 0)
(0.057002321 9.8575554e-08 0)
(0.056740763 9.5058148e-08 0)
(0.056481502 9.1659815e-08 0)
(0.056224402 8.8384958e-08 0)
(0.055969226 8.5243749e-08 0)
(0.055715757 8.2202633e-08 0)
(0.055463942 7.9254657e-08 0)
(0.055213575 7.6436407e-08 0)
(0.054964339 7.371729e-08 0)
(0.054716188 7.1062323e-08 0)
(0.054469024 6.8487965e-08 0)
(0.054222681 6.6004925e-08 0)
(0.053976945 6.3613192e-08 0)
(0.053731614 6.1291569e-08 0)
(0.053486609 5.901536e-08 0)
(0.053241917 5.6807899e-08 0)
(0.052997244 5.4701533e-08 0)
(0.052752258 5.2663915e-08 0)
(0.0525069 5.0651652e-08 0)
(0.052261227 4.8689505e-08 0)
(0.052014935 4.6835596e-08 0)
(0.051767436 4.5049015e-08 0)
(0.051518789 4.3260954e-08 0)
(0.051269134 4.1505212e-08 0)
(0.051018157 3.9827131e-08 0)
(0.050765418 3.8207706e-08 0)
(0.050510765 3.6605466e-08 0)
(0.050254273 3.5039568e-08 0)
(0.049995505 3.3547575e-08 0)
(0.049733924 3.2097086e-08 0)
(0.049469501 3.0660292e-08 0)
(0.049202106 2.9267398e-08 0)
(0.048931159 2.7927704e-08 0)
(0.048656271 2.6607592e-08 0)
(0.048377431 2.5311756e-08 0)
(0.048094097 2.4080316e-08 0)
(0.047811739 2.2910888e-08 0)
(0.047539733 2.1816503e-08 0)
(0.047280409 2.0860417e-08 0)
(0.047031691 1.9978876e-08 0)
(0.046793835 1.9110153e-08 0)
(0.046566272 1.8303366e-08 0)
(0.046348067 1.7570863e-08 0)
(0.046138345 1.6894797e-08 0)
(0.045936604 1.6253397e-08 0)
(0.045742501 1.5649043e-08 0)
(0.045555479 1.5095062e-08 0)
(0.04537487 1.4587407e-08 0)
(0.045200212 1.4107173e-08 0)
(0.045031297 1.3647367e-08 0)
(0.044867838 1.3216143e-08 0)
(0.044709427 1.2827307e-08 0)
(0.044555439 1.2469318e-08 0)
(0.044405749 1.2175729e-08 0)
(0.044258912 1.1844499e-08 0)
(0.044117298 1.1828749e-08 0)
(0.043970845 1.1327915e-08 0)
(0.043841425 1.3933467e-08 0)
(0.043630954 8.6712212e-09 0)
(1 2.1073926e-09 0)
(0.9999832 7.0703212e-09 0)
(0.99994822 1.1775406e-08 0)
(0.99990583 1.546352e-08 0)
(0.99985834 1.9565212e-08 0)
(0.99980548 2.4588947e-08 0)
(0.99974706 3.0672546e-08 0)
(0.99968295 3.8036746e-08 0)
(0.99961285 4.705423e-08 0)
(0.99953619 5.8204523e-08 0)
(0.9994522 7.2080994e-08 0)
(0.99935987 8.946389e-08 0)
(0.99925787 1.114199e-07 0)
(0.99914442 1.3950628e-07 0)
(0.999017 1.7589057e-07 0)
(0.99887218 2.2446881e-07 0)
(0.99870406 2.8957207e-07 0)
(0.99850626 3.869142e-07 0)
(0.99825807 5.1606458e-07 0)
(0.99795762 7.9294845e-07 0)
(0.99747658 1.0749154e-06 0)
(0.99695365 3.3216831e-06 0)
(0.99454825 2.6648581e-06 0)
(0.99462474 0.0010398152 0)
(0.22255712 0.0011038361 0)
(0.12166795 6.5761754e-05 0)
(0.11836727 1.8945052e-06 0)
(0.11835164 1.3632724e-06 1.2501906e-20)
(0.11592674 3.0808547e-06 0)
(0.1128635 3.2915468e-06 0)
(0.11002155 2.9253642e-06 0)
(0.10757111 2.5039518e-06 0)
(0.10544696 2.1649894e-06 0)
(0.10357562 1.8991244e-06 0)
(0.10190639 1.6846362e-06 0)
(0.1004022 1.520511e-06 0)
(0.099011283 1.3928889e-06 0)
(0.097720942 1.279729e-06 0)
(0.096520102 1.1778198e-06 0)
(0.0954017 1.0848832e-06 0)
(0.09435859 1.0021998e-06 0)
(0.093380698 9.2979968e-07 0)
(0.0924603 8.6529126e-07 0)
(0.091591649 8.0802394e-07 0)
(0.090767912 7.5704506e-07 0)
(0.089984917 7.1082745e-07 0)
(0.089238736 6.6856614e-07 0)
(0.088526609 6.2974319e-07 0)
(0.087845522 5.9457135e-07 0)
(0.087192066 5.6198886e-07 0)
(0.086565313 5.3178691e-07 0)
(0.085962186 5.0468902e-07 0)
(0.085379962 4.7936754e-07 0)
(0.084818394 4.5550065e-07 0)
(0.084275429 4.3386975e-07 0)
(0.083748862 4.1363144e-07 0)
(0.083238496 3.9431304e-07 0)
(0.082743204 3.7665943e-07 0)
(0.082260854 3.6036983e-07 0)
(0.081790958 3.4461858e-07 0)
(0.081333402 3.2975115e-07 0)
(0.080886756 3.1619141e-07 0)
(0.080449697 3.0336764e-07 0)
(0.080022239 2.9129246e-07 0)
(0.07960289 2.8022748e-07 0)
(0.079190872 2.6963878e-07 0)
(0.07878621 2.5922172e-07 0)
(0.078388972 2.4904185e-07 0)
(0.077998961 2.3939588e-07 0)
(0.077615317 2.3040646e-07 0)
(0.077237409 2.2181574e-07 0)
(0.076865121 2.1349543e-07 0)
(0.076498193 2.055643e-07 0)
(0.076136077 1.9806403e-07 0)
(0.075778339 1.908914e-07 0)
(0.075424738 1.8399062e-07 0)
(0.075074985 1.773334e-07 0)
(0.074728901 1.7095016e-07 0)
(0.074386066 1.6484916e-07 0)
(0.074046246 1.5895516e-07 0)
(0.073709256 1.5327675e-07 0)
(0.073374785 1.4783038e-07 0)
(0.073042547 1.4255644e-07 0)
(0.072712479 1.3744338e-07 0)
(0.072384311 1.3255575e-07 0)
(0.072057625 1.2784124e-07 0)
(0.071732353 1.2323771e-07 0)
(0.071408376 1.1877263e-07 0)
(0.071085478 1.1446617e-07 0)
(0.070763375 1.1031883e-07 0)
(0.070441799 1.0629323e-07 0)
(0.070120649 1.023458e-07 0)
(0.06979991 9.8517245e-08 0)
(0.069479196 9.4864319e-08 0)
(0.06915807 9.133117e-08 0)
(0.068836454 8.7841742e-08 0)
(0.068514424 8.4438634e-08 0)
(0.068191585 8.1223413e-08 0)
(0.067867163 7.8125442e-08 0)
(0.067541232 7.5024795e-08 0)
(0.067213979 7.1979761e-08 0)
(0.066884995 6.9069476e-08 0)
(0.0665537 6.6261258e-08 0)
(0.066219895 6.3482788e-08 0)
(0.065883676 6.0767043e-08 0)
(0.065544476 5.8179507e-08 0)
(0.065201587 5.5664209e-08 0)
(0.06485497 5.3172573e-08 0)
(0.064504458 5.0756866e-08 0)
(0.064149291 4.8433546e-08 0)
(0.063788954 4.6144262e-08 0)
(0.063423436 4.3896964e-08 0)
(0.063052026 4.1761352e-08 0)
(0.062681895 3.973337e-08 0)
(0.062325333 3.7835449e-08 0)
(0.061985395 3.6177304e-08 0)
(0.061659359 3.4648537e-08 0)
(0.061347562 3.3142024e-08 0)
(0.061049256 3.1742829e-08 0)
(0.060763217 3.0472458e-08 0)
(0.060488298 2.9300038e-08 0)
(0.060223839 2.8187736e-08 0)
(0.059969393 2.7139608e-08 0)
(0.05972423 2.6178827e-08 0)
(0.059487473 2.5298428e-08 0)
(0.059258517 2.4465623e-08 0)
(0.059037088 2.3668207e-08 0)
(0.058822811 2.2920295e-08 0)
(0.058615153 2.2245882e-08 0)
(0.058413293 2.1624986e-08 0)
(0.058217067 2.111567e-08 0)
(0.058024588 2.0541174e-08 0)
(0.057838946 2.0512959e-08 0)
(0.057647004 1.9652524e-08 0)
(0.057477346 2.4171952e-08 -3.0115411e-22)
(0.057201437 1.5034871e-08 5.4581069e-23)
(1 2.64039e-09 0)
(0.99998318 8.8635138e-09 0)
(0.9999481 1.4769688e-08 0)
(0.99990554 1.9401951e-08 0)
(0.99985783 2.4551022e-08 0)
(0.99980473 3.0855012e-08 0)
(0.99974604 3.84875e-08 0)
(0.99968165 4.7725308e-08 0)
(0.99961125 5.903539e-08 0)
(0.99953427 7.3018543e-08 0)
(0.99944995 9.0418177e-08 0)
(0.99935727 1.1221175e-07 0)
(0.99925492 1.3973542e-07 0)
(0.99914111 1.7493977e-07 0)
(0.9990133 2.2053957e-07 0)
(0.99886808 2.8141466e-07 0)
(0.99869955 3.6298848e-07 0)
(0.99850131 4.849429e-07 0)
(0.99825265 6.4672959e-07 0)
(0.99795171 9.9354935e-07 0)
(0.99747007 1.3466419e-06 0)
(0.99694667 4.1605308e-06 0)
(0.99453986 3.3396985e-06 0)
(0.99461522 0.0012625348 0)
(0.27117804 0.0013591518 0)
(0.15230391 9.9428477e-05 0)
(0.14815818 2.9864894e-06 0)
(0.14809985 2.1557938e-06 0)
(0.14506342 4.8513675e-06 0)
(0.1412325 5.1806309e-06 0)
(0.13768198 4.6025951e-06 0)
(0.13462041 3.9399474e-06 0)
(0.13196568 3.4070334e-06 0)
(0.1296266 2.9887269e-06 0)
(0.12754011 2.6511787e-06 0)
(0.12565983 2.3929288e-06 0)
(0.12392104 2.1921228e-06 0)
(0.12230791 2.014057e-06 0)
(0.12080662 1.8536888e-06 0)
(0.11940833 1.707443e-06 0)
(0.11810412 1.5773329e-06 0)
(0.1168814 1.4634025e-06 0)
(0.11573053 1.3618884e-06 0)
(0.11464433 1.2717669e-06 -6.276816e-33)
(0.11361426 1.191542e-06 0)
(0.11263511 1.1188042e-06 0)
(0.11170197 1.0522984e-06 0)
(0.11081139 9.912027e-07 0)
(0.10995961 9.3584251e-07 0)
(0.10914237 8.8456854e-07 0)
(0.1083585 8.3704007e-07 0)
(0.10760416 7.9438502e-07 0)
(0.10687597 7.5453645e-07 0)
(0.10617358 7.1697815e-07 0)
(0.10549445 6.8292781e-07 0)
(0.10483583 6.5107484e-07 0)
(0.10419745 6.2067552e-07 0)
(0.10357791 5.9288855e-07 0)
(0.10297456 5.6724462e-07 0)
(0.10238679 5.4245752e-07 0)
(0.10181443 5.190621e-07 0)
(0.1012557 4.9771521e-07 0)
(0.10070898 4.7752717e-07 0)
(0.10017426 4.5852614e-07 0)
(0.099649657 4.4111394e-07 0)
(0.099134226 4.244432e-07 0)
(0.098628002 4.0804372e-07 0)
(0.098131059 3.9202426e-07 0)
(0.097643142 3.7684481e-07 0)
(0.097163182 3.6269282e-07 0)
(0.096690403 3.4916822e-07 0)
(0.096224651 3.3607338e-07 0)
(0.095765593 3.2359233e-07 0)
(0.095312546 3.1178628e-07 0)
(0.094864978 3.0049388e-07 0)
(0.094422585 2.8963086e-07 0)
(0.093985001 2.7915453e-07 0)
(0.093551995 2.6910847e-07 0)
(0.093123052 2.5950308e-07 0)
(0.092697883 2.5022417e-07 0)
(0.092276251 2.4128699e-07 0)
(0.091857761 2.3271542e-07 0)
(0.09144206 2.2441349e-07 0)
(0.091029074 2.1636375e-07 0)
(0.090618465 2.086696e-07 0)
(0.090209706 2.0124983e-07 0)
(0.089802707 1.9400428e-07 0)
(0.089397325 1.8697464e-07 0)
(0.088993295 1.8019502e-07 0)
(0.088590256 1.7366709e-07 0)
(0.08818787 1.6733103e-07 0)
(0.087786013 1.611171e-07 0)
(0.087384668 1.5508972e-07 0)
(0.086983355 1.4933931e-07 0)
(0.086581521 1.4377829e-07 0)
(0.086179067 1.3828569e-07 0)
(0.085776093 1.3292805e-07 0)
(0.085372107 1.2786646e-07 0)
(0.084966136 1.2299018e-07 0)
(0.084558271 1.181095e-07 0)
(0.084148748 1.133157e-07 0)
(0.08373706 1.0873411e-07 0)
(0.083322475 1.0431372e-07 0)
(0.082904742 9.9940067e-08 0)
(0.082483988 9.5664687e-08 0)
(0.082059501 9.1591197e-08 0)
(0.081630394 8.7631817e-08 0)
(0.081196617 8.3709544e-08 0)
(0.080757962 7.9906484e-08 0)
(0.080313479 7.6249045e-08 0)
(0.079862522 7.2645296e-08 0)
(0.079405077 6.9107469e-08 0)
(0.078940256 6.5745469e-08 0)
(0.078477031 6.2553031e-08 0)
(0.078030783 5.9565209e-08 0)
(0.07760534 5.6954756e-08 0)
(0.077197293 5.4548115e-08 0)
(0.076807063 5.2176561e-08 0)
(0.076433714 4.9973799e-08 0)
(0.076075718 4.7973829e-08 0)
(0.075731637 4.6128183e-08 0)
(0.075400646 4.4377174e-08 0)
(0.075082185 4.2727077e-08 0)
(0.074775341 4.1214465e-08 0)
(0.074479016 3.9828461e-08 0)
(0.074192454 3.8517448e-08 0)
(0.073915312 3.7262083e-08 0)
(0.07364712 3.6084555e-08 0)
(0.073387212 3.5022702e-08 0)
(0.073134563 3.4045156e-08 0)
(0.072888963 3.3243052e-08 0)
(0.07264806 3.233862e-08 0)
(0.072415703 3.2292494e-08 0)
(0.072175516 3.093737e-08 0)
(0.071963163 3.8062939e-08 0)
(0.071617817 2.3660606e-08 -3.1124176e-23)
(1 3.2135691e-09 0)
(0.99998315 1.0794334e-08 0)
(0.99994796 1.7997635e-08 0)
(0.99990521 2.3650924e-08 0)
(0.99985726 2.9931387e-08 0)
(0.9998039 3.7617027e-08 0)
(0.99974491 4.6920326e-08 0)
(0.9996802 5.8178557e-08 0)
(0.99960946 7.1960057e-08 0)
(0.99953213 8.8996041e-08 0)
(0.99944744 1.1019125e-07 0)
(0.99935438 1.3673516e-07 0)
(0.99925163 1.7025359e-07 0)
(0.9991374 2.1311984e-07 0)
(0.99900917 2.6863669e-07 0)
(0.99886351 3.427412e-07 0)
(0.99869451 4.4203011e-07 0)
(0.99849579 5.9044948e-07 0)
(0.99824661 7.8732029e-07 0)
(0.99794512 1.2093048e-06 0)
(0.99746282 1.6388126e-06 0)
(0.99693891 5.0619662e-06 0)
(0.99453061 4.0657756e-06 0)
(0.99460491 0.0014861136 0)
(0.3203963 0.001623334 0)
(0.18509404 0.00014136883 0)
(0.17997464 4.450644e-06 0)
(0.17981708 3.21965e-06 -3.2634785e-20)
(0.17613004 7.1901348e-06 1.5217935e-20)
(0.17149108 7.6730059e-06 0)
(0.16719602 6.8143573e-06 0)
(0.16349171 5.8339974e-06 0)
(0.16027832 5.045687e-06 0)
(0.15744641 4.4264092e-06 0)
(0.15492005 3.9265594e-06 0)
(0.15264309 3.5441942e-06 0)
(0.15053722 3.2468873e-06 0)
(0.14858334 2.983222e-06 0)
(0.14676472 2.7457505e-06 0)
(0.14507071 2.5291901e-06 0)
(0.14349051 2.3365227e-06 0)
(0.14200891 2.1678086e-06 0)
(0.14061425 2.0174752e-06 0)
(0.13929785 1.8840086e-06 6.7216475e-33)
(0.13804938 1.7651974e-06 0)
(0.13686254 1.657465e-06 0)
(0.1357314 1.5589697e-06 0)
(0.13465177 1.4684841e-06 0)
(0.13361912 1.3864778e-06 0)
(0.13262831 1.3105388e-06 0)
(0.13167787 1.2401453e-06 0)
(0.1307632 1.1769531e-06 0)
(0.1298802 1.1179324e-06 0)
(0.12902843 1.0623052e-06 0)
(0.12820483 1.0118578e-06 0)
(0.12740608 9.6467285e-07 0)
(0.12663184 9.1964963e-07 0)
(0.1258804 8.7848426e-07 0)
(0.12514859 8.4048776e-07 0)
(0.12443565 8.0377424e-07 0)
(0.12374135 7.6912315e-07 0)
(0.12306358 7.374922e-07 0)
(0.12240035 7.0757845e-07 0)
(0.12175167 6.7943617e-07 0)
(0.12111522 6.5364575e-07 0)
(0.12048989 6.2894138e-07 0)
(0.11987572 6.0464034e-07 0)
(0.11927279 5.8091235e-07 0)
(0.11868078 5.5842818e-07 0)
(0.11809841 5.3745731e-07 0)
(0.11752474 5.1741544e-07 0)
(0.11695959 4.9801651e-07 0)
(0.11640253 4.7952868e-07 0)
(0.11585276 4.6203611e-07 0)
(0.11530962 4.4530122e-07 0)
(0.11477275 4.2920484e-07 0)
(0.1142417 4.1368625e-07 0)
(0.11371619 3.9880358e-07 0)
(0.11319559 3.8456844e-07 0)
(0.11267958 3.7081786e-07 0)
(0.11216784 3.5757721e-07 0)
(0.1116599 3.4487875e-07 0)
(0.11115532 3.3257712e-07 0)
(0.11065404 3.2064746e-07 0)
(0.11015563 3.0924585e-07 0)
(0.10965946 2.9825354e-07 0)
(0.10916541 2.8751861e-07 0)
(0.1086733 2.7710053e-07 0)
(0.10818284 2.6705334e-07 0)
(0.10769357 2.5738098e-07 0)
(0.10720507 2.479932e-07 0)
(0.10671721 2.3878497e-07 0)
(0.10622995 2.2985226e-07 0)
(0.10574274 2.2133075e-07 0)
(0.10525487 2.130911e-07 0)
(0.10476624 2.0495221e-07 0)
(0.10427697 1.9701188e-07 0)
(0.10378646 1.8951067e-07 0)
(0.10329354 1.8228519e-07 0)
(0.10279829 1.7505284e-07 0)
(0.10230103 1.6794819e-07 0)
(0.10180113 1.6115816e-07 0)
(0.1012977 1.546078e-07 0)
(0.10079044 1.4812651e-07 0)
(0.1002795 1.4179014e-07 0)
(0.099764013 1.3575303e-07 0)
(0.099242908 1.2988561e-07 0)
(0.098716117 1.2407293e-07 0)
(0.098183394 1.1843644e-07 0)
(0.097643584 1.1301601e-07 0)
(0.097095898 1.076753e-07 0)
(0.096540319 1.02432e-07 0)
(0.095975773 9.7449282e-08 0)
(0.095413153 9.2718034e-08 0)
(0.094871138 8.8289818e-08 0)
(0.094354386 8.4420732e-08 0)
(0.093858758 8.0853938e-08 0)
(0.09338476 7.7339159e-08 0)
(0.09293126 7.4074333e-08 0)
(0.092496403 7.1110046e-08 0)
(0.092078442 6.8374662e-08 0)
(0.091676373 6.5779523e-08 0)
(0.091289521 6.3333767e-08 0)
(0.090916776 6.1091744e-08 0)
(0.090556807 5.9037471e-08 0)
(0.090208692 5.7094434e-08 0)
(0.089872014 5.5233774e-08 0)
(0.089546207 5.3488332e-08 0)
(0.089230462 5.1914281e-08 0)
(0.088923534 5.0465283e-08 0)
(0.088625167 4.9275956e-08 0)
(0.088332512 4.7935497e-08 0)
(0.088050223 4.7864297e-08 0)
(0.08775849 4.5853221e-08 -3.6685398e-23)
(0.087500499 5.6429447e-08 0)
(0.087080923 3.5062203e-08 0)
(1 3.8356581e-09 0)
(0.99998313 1.2892868e-08 0)
(0.99994781 2.1510654e-08 0)
(0.99990484 2.8279072e-08 0)
(0.99985663 3.5793677e-08 0)
(0.99980296 4.4984861e-08 0)
(0.99974365 5.6107866e-08 0)
(0.99967858 6.9565746e-08 0)
(0.99960746 8.6036888e-08 0)
(0.99952974 1.0639405e-07 0)
(0.99944463 1.3171707e-07 0)
(0.99935115 1.6342545e-07 0)
(0.99924795 2.0345921e-07 0)
(0.99913327 2.5465014e-07 0)
(0.99900456 3.2093869e-07 0)
(0.99885841 4.0940845e-07 0)
(0.99868889 5.279279e-07 0)
(0.99848963 7.0506756e-07 0)
(0.99823987 9.4000184e-07 0)
(0.99793778 1.4435132e-06 0)
(0.99745474 1.9558653e-06 0)
(0.99693027 6.0395316e-06 0)
(0.99452039 4.8542803e-06 0)
(0.99459369 0.0017112408 -6.829718e-54)
(0.37039915 0.0018980727 1.1142729e-53)
(0.22034689 0.00019278921 -6.1511292e-19)
(0.21397382 6.4383266e-06 0)
(0.2136065 4.6422403e-06 -3.763177e-20)
(0.20923167 1.022596e-05 0)