/*--------------------------------*- C++ -*----------------------------------*\
  =========                 |
  \\      /  F ield         | OpenFOAM: The Open Source CFD Toolbox
   \\    /   O peration     | Website:  https://openfoam.org
    \\  /    A nd           | Version:  12
     \\/     M anipulation  |
\*---------------------------------------------------------------------------*/
FoamFile
{
    format      ascii;
    class       volVectorField;
    location    "500";
    object      wallShearStress;
}
// * * * * * * * * * * * * * * * * * * * * * * * * * * * * * * * * * * * * * //

dimensions      [0 2 -2 0 0 0 0];

internalField   uniform (0 0 0);

boundaryField
{
    bottom
    {
        type            calculated;
        value           nonuniform List<vector> 
112
(
(-0.0052355385 -3.4971062e-05 0)
(-0.0025680891 -5.6834785e-07 7.1471019e-19)
(-0.0024985014 -8.0258339e-09 8.5394097e-19)
(-0.0024987289 -5.7305917e-09 -3.0924596e-19)
(-0.0024476605 -1.3049488e-08 0)
(-0.00238315 -1.3974641e-08 0)
(-0.0023230505 -1.2443607e-08 0)
(-0.0022712243 -1.064525e-08 0)
(-0.0022263407 -9.198852e-09 0)
(-0.0021868097 -8.0690375e-09 -8.6003971e-19)
(-0.0021515446 -7.1583423e-09 0)
(-0.0021197655 -6.4607966e-09 -6.8858417e-19)
(-0.0020903815 -5.9183496e-09 6.3077298e-19)
(-0.002063123 -5.4374583e-09 -5.7952252e-19)
(-0.0020377554 -5.0045121e-09 0)
(-0.0020141294 -4.6095558e-09 4.912782e-19)
(-0.0019920947 -4.2581464e-09 0)
(-0.0019714384 -3.9504665e-09 -2.1051898e-19)
(-0.0019519971 -3.67631e-09 0)
(-0.0019336491 -3.4329996e-09 -3.6588671e-19)
(-0.0019162502 -3.2163211e-09 3.4280036e-19)
(-0.0018997121 -3.0200251e-09 0)
(-0.0018839515 -2.8403972e-09 0)
(-0.0018689112 -2.6753568e-09 0)
(-0.0018545261 -2.5260805e-09 -2.6922371e-19)
(-0.0018407244 -2.3875409e-09 0)
(-0.0018274879 -2.2591298e-09 0)
(-0.00181475 -2.144168e-09 0)
(-0.0018024531 -2.0364984e-09 0)
(-0.0017905937 -1.9349988e-09 -2.0624376e-19)
(-0.0017791269 -1.8432262e-09 1.9645101e-19)
(-0.0017680059 -1.757237e-09 0)
(-0.0017572278 -1.6750568e-09 0)
(-0.0017467684 -1.6000842e-09 0)
(-0.0017365817 -1.5309844e-09 1.6316981e-19)
(-0.001726658 -1.4639843e-09 0)
(-0.0017169958 -1.400735e-09 0)
(-0.001707564 -1.3432121e-09 -1.4316334e-19)
(-0.0016983339 -1.2888013e-09 0)
(-0.0016893067 -1.2374158e-09 0)
(-0.0016804517 -1.1903451e-09 0)
(-0.0016717514 -1.1454394e-09 1.2208404e-19)
(-0.0016632057 -1.1012352e-09 -5.8684497e-20)
(-0.0016548169 -1.0579281e-09 1.1275771e-19)
(-0.0016465815 -1.016892e-09 0)
(-0.0016384805 -9.7875207e-10 0)
(-0.0016305002 -9.4229784e-10 -1.5064653e-19)
(-0.0016226385 -9.0692804e-10 0)
(-0.0016148905 -8.7318825e-10 9.3070314e-20)
(-0.0016072443 -8.4133488e-10 0)
(-0.0015996904 -8.1090178e-10 0)
(-0.0015922234 -7.8160388e-10 -4.1651962e-20)
(-0.0015848379 -7.5328058e-10 -4.0144183e-20)
(-0.0015775304 -7.2613617e-10 0)
(-0.0015702915 -7.0025753e-10 -7.4635922e-20)
(-0.0015631158 -6.7523858e-10 0)
(-0.0015559999 -6.5109951e-10 0)
(-0.0015489376 -6.2793788e-10 0)
(-0.0015419225 -6.0554085e-10 0)
(-0.0015349532 -5.8383981e-10 0)
(-0.0015280236 -5.6308815e-10 0)
(-0.0015211255 -5.4303765e-10 0)
(-0.0015142577 -5.234652e-10 0)
(-0.0015074172 -5.0451891e-10 0)
(-0.0015005992 -4.862349e-10 -5.1824316e-20)
(-0.001493798 -4.68609e-10 0)
(-0.0014870081 -4.5149549e-10 -2.4061622e-20)
(-0.0014802274 -4.3472975e-10 0)
(-0.0014734552 -4.1847647e-10 -2.2301535e-20)
(-0.0014666835 -4.0296246e-10 4.2949258e-20)
(-0.0014599031 -3.8794161e-10 4.1349279e-20)
(-0.0014531126 -3.7311266e-10 -1.9884648e-20)
(-0.0014463134 -3.5866673e-10 0)
(-0.0014394969 -3.450153e-10 0)
(-0.001432647 -3.3184724e-10 3.5370393e-20)
(-0.0014257655 -3.1866887e-10 -3.3966566e-20)
(-0.0014188561 -3.0573993e-10 0)
(-0.0014119099 -2.9338096e-10 0)
(-0.0014049151 -2.8144624e-10 -2.99992e-20)
(-0.0013978674 -2.6963965e-10 0)
(-0.0013907688 -2.5810763e-10 0)
(-0.001383607 -2.4711893e-10 0)
(-0.0013763675 -2.3642976e-10 0)
(-0.0013690494 -2.2584375e-10 0)
(-0.001361649 -2.1558599e-10 0)
(-0.0013541503 -2.0571649e-10 0)
(-0.0013465426 -1.9599025e-10 0)
(-0.0013388254 -1.8644535e-10 1.9874136e-20)
(-0.0013309839 -1.7737477e-10 -1.8907256e-20)
(-0.0013231694 -1.6875916e-10 0)
(-0.0013156415 -1.6069733e-10 0)
(-0.0013084646 -1.5365648e-10 0)
(-0.0013015811 -1.4716302e-10 0)
(-0.0012949983 -1.4076334e-10 0)
(-0.0012887003 -1.3482144e-10 0)
(-0.0012826614 -1.2942686e-10 0)
(-0.0012768571 -1.2444661e-10 0)
(-0.0012712738 -1.1972176e-10 -1.2761577e-20)
(-0.001265902 -1.1527133e-10 0)
(-0.001260726 -1.1119189e-10 0)
(-0.0012557275 -1.0745303e-10 0)
(-0.0012508937 -1.0391552e-10 0)
(-0.0012462189 -1.0052928e-10 0)
(-0.001241695 -9.735473e-11 0)
(-0.0012373108 -9.4492215e-11 0)
(-0.0012330489 -9.1857173e-11 0)
(-0.001228906 -8.9696259e-11 0)
(-0.0012248417 -8.726386e-11 0)
(-0.0012209225 -8.7155739e-11 0)
(-0.0012168665 -1.5034695e-10 0)
(-0.0012132848 -1.0224949e-10 -1.0980681e-20)
(-0.00120746 -1.1556822e-10 0)
)
;
    }
    back
    {
        type            empty;
    }
    front
    {
        type            empty;
    }
    inlet
    {
        type            calculated;
        value           uniform (0 0 0);
    }
    outlet
    {
        type            calculated;
        value           uniform (0 0 0);
    }
    top
    {
        type            calculated;
        value           uniform (0 0 0);
    }
    slipsurface
    {
        type            calculated;
        value           uniform (0 0 0);
    }
}


// ************************************************************************* //
