# y+ ()         
# Time          	patch           	min             	max             	average         
3000            	lowerWall	1.62112219e-01	1.34525238e+00	2.32877656e-01
