/*--------------------------------*- C++ -*----------------------------------*\
  =========                 |
  \\      /  F ield         | OpenFOAM: The Open Source CFD Toolbox
   \\    /   O peration     | Website:  https://openfoam.org
    \\  /    A nd           | Version:  12
     \\/     M anipulation  |
\*---------------------------------------------------------------------------*/
FoamFile
{
    format      ascii;
    class       volScalarField;
    location    "1800";
    object      k;
}
// * * * * * * * * * * * * * * * * * * * * * * * * * * * * * * * * * * * * * //

dimensions      [0 2 -2 0 0 0 0];

internalField   nonuniform List<scalar> 
7480
(
0.00019662034
0.00028501631
0.00041851892
0.00060678245
0.00086364762
0.0012029403
0.0016348337
0.0021618884
0.0027756292
0.0034541733
0.0041629966
0.0048608899
0.0055067267
0.0060663551
0.0065169889
0.0068507416
0.0070625846
0.0072079901
0.0072025634
0.0071605216
0.0070693694
0.0069434996
0.0067963857
0.0066395532
0.0064826532
0.0063337166
0.0061993399
0.0060846241
0.0059931051
0.0059262436
0.0058826531
0.0058578553
0.0058449153
0.0058361791
0.0058254336
0.0058092674
0.0057871104
0.0057602623
0.005730557
0.0056993634
0.0056672755
0.005634356
0.0056005787
0.0055661223
0.0055313688
0.0054967245
0.0054624571
0.005428665
0.0053953535
0.0053625169
0.0053301648
0.0052983021
0.0052669306
0.0052360404
0.0052056175
0.005175651
0.005146132
0.0051170473
0.0050883831
0.0050601358
0.0050322934
0.0050048374
0.004977753
0.0049510295
0.0049246571
0.0048986283
0.0048729354
0.0048475694
0.0048225223
0.0047977861
0.0047733525
0.0047492137
0.0047253631
0.004701793
0.0046784964
0.0046554668
0.0046326981
0.0046101843
0.0045879197
0.0045658986
0.0045441154
0.0045225648
0.0045012414
0.0044801402
0.0044592558
0.0044385833
0.0044181175
0.0043978533
0.0043777857
0.0043579078
0.004338216
0.0043186982
0.0042993586
0.0042801552
0.004261142
0.0042421296
0.0042234425
0.0042039372
0.0041875053
0.0041571368
0.00014904428
0.00015169918
0.0001558435
0.00016183603
0.00017042966
0.00018286644
0.00020091768
0.00022684165
0.00026303989
0.00031198259
0.00037615927
0.0004561818
0.00055036177
0.00065520464
0.00076624665
0.00087944911
0.00099070406
0.0011024961
0.0012126778
0.0013286832
0.0014609922
0.0016303109
0.0018440262
0.0020821452
0.0023450332
0.0026361299
0.0029554064
0.003299283
0.0036586924
0.0040170172
0.0043522112
0.0046423846
0.0048711838
0.0050340217
0.0051388619
0.0052011233
0.0052373711
0.0052603688
0.0052767519
0.0052881115
0.0052938527
0.0052936118
0.0052883096
0.005279749
0.0052696119
0.0052588283
0.0052475859
0.005235741
0.0052232239
0.0052101289
0.0051965811
0.0051826415
0.0051683049
0.0051535694
0.005138464
0.0051230219
0.0051072608
0.0050911913
0.0050748407
0.0050582597
0.0050414409
0.0050243843
0.0050071063
0.0049896292
0.0049719763
0.0049541681
0.004936222
0.0049181544
0.0048999806
0.0048817141
0.0048633688
0.0048449581
0.0048264929
0.0048079859
0.0047894495
0.004770895
0.0047523322
0.0047337704
0.0047152181
0.0046966832
0.004678173
0.0046596942
0.0046412528
0.0046228542
0.0046045034
0.0045862049
0.0045679628
0.0045497808
0.0045316621
0.0045136084
0.0044956224
0.0044777073
0.0044598607
0.004442088
0.0044243727
0.0044067358
0.0043891377
0.0043713268
0.0043554205
0.0043273165
0.00014781003
0.0001481083
0.0001485386
0.00014908633
0.00014975009
0.00015053495
0.00015144764
0.000152493
0.00015366721
0.00015495948
0.00015637335
0.00015791445
0.00015957648
0.00016134653
0.00016321478
0.00016518598
0.00016728083
0.00016960233
0.00017230101
0.00017571171
0.00018034291
0.0001875025
0.00019799092
0.00021776843
0.00025042537
0.00029913552
0.00036819465
0.00046278897
0.0005908149
0.00076440246
0.0010119954
0.0013151851
0.0016608374
0.0020333386
0.0024127462
0.0027759843
0.0031009796
0.0033724888
0.0035860326
0.0037472945
0.0038683577
0.0039626336
0.0040408082
0.004108901
0.0041689953
0.0042213017
0.0042659928
0.0043039844
0.0043366315
0.0043651122
0.0043901162
0.0044119734
0.0044309231
0.0044472478
0.0044612372
0.004473123
0.0044830764
0.0044912444
0.004497762
0.0045027366
0.0045062932
0.0045085382
0.0045095664
0.0045094644
0.004508312
0.0045061821
0.0045031419
0.0044992533
0.004494573
0.0044891538
0.0044830457
0.0044762958
0.0044689479
0.0044610438
0.0044526232
0.0044437234
0.0044343793
0.0044246234
0.0044144863
0.0044039966
0.0043931809
0.0043820642
0.0043706696
0.0043590189
0.0043471323
0.0043350289
0.0043227265
0.0043102419
0.0042975905
0.0042847885
0.0042718479
0.0042587836
0.0042456004
0.004232324
0.004218929
0.0042055005
0.0041919
0.0041782467
0.0041656286
0.0041436341
0.00014766998
0.00014773128
0.00014782236
0.0001479353
0.00014806382
0.00014820183
0.00014834272
0.00014847916
0.00014860234
0.00014870196
0.00014876784
0.00014878988
0.00014875706
0.00014865705
0.00014847687
0.00014820072
0.00014781406
0.00014730773
0.00014667908
0.00014593098
0.00014506872
0.00014412447
0.00014311454
0.00014215515
0.00014140466
0.00014113838
0.00014160376
0.00014319917
0.00014669829
0.00015309878
0.00016515003
0.00018556339
0.00022359126
0.00028725575
0.00038419556
0.00052231179
0.00072095219
0.00098028331
0.001278407
0.0015966694
0.0019151868
0.002213895
0.0024773875
0.0026986906
0.0028795388
0.003027664
0.003152553
0.0032618102
0.0033596341
0.0034475706
0.0035261563
0.0035961349
0.0036586672
0.0037149401
0.0037658237
0.0038118733
0.0038535152
0.0038911597
0.0039251916
0.0039559286
0.0039836409
0.0040085692
0.0040309321
0.0040509253
0.0040687235
0.0040844843
0.0040983512
0.0041104543
0.0041209126
0.0041298354
0.0041373239
0.0041434726
0.0041483686
0.0041520936
0.0041547239
0.0041563308
0.0041569812
0.0041567372
0.0041556573
0.0041537958
0.0041512034
0.0041479275
0.0041440126
0.0041394999
0.0041344285
0.0041288346
0.0041227526
0.0041162146
0.0041092506
0.0041018902
0.0040941587
0.0040860841
0.0040776823
0.0040689934
0.0040599975
0.0040508087
0.0040412548
0.0040316543
0.004022417
0.0040062543
0.00014764066
0.00014765009
0.00014767014
0.00014769788
0.00014773016
0.00014776367
0.00014779495
0.00014782035
0.00014783595
0.00014783749
0.00014782066
0.00014778117
0.00014771471
0.00014761683
0.00014748304
0.0001473092
0.00014708975
0.00014681826
0.00014648669
0.00014609071
0.00014562724
0.00014509591
0.00014449744
0.00014383901
0.00014313643
0.00014241579
0.00014170292
0.00014102842
0.00014042396
0.000139943
0.00013960937
0.00013975689
0.00014043457
0.00014231239
0.00014612719
0.0001529107
0.00016522858
0.0001863332
0.00022596894
0.00029240703
0.00039341081
0.00053997631
0.00074303169
0.00098410755
0.0012472916
0.0015153196
0.001771348
0.0020030225
0.0022050682
0.0023787921
0.0025294767
0.0026629909
0.0027834471
0.0028928668
0.0029921528
0.0030821169
0.0031638057
0.003238279
0.0033063717
0.0033686904
0.0034257387
0.0034779839
0.00352585
0.0035697039
0.0036098636
0.0036466135
0.00368021
0.0037108828
0.0037388393
0.0037642683
0.0037873425
0.0038082204
0.0038270477
0.0038439589
0.0038590786
0.0038725227
0.0038843988
0.0038948071
0.0039038408
0.0039115868
0.0039181258
0.0039235333
0.0039278795
0.0039312302
0.003933647
0.0039351874
0.0039359054
0.003935852
0.0039350744
0.0039336185
0.0039315252
0.0039288372
0.0039255845
0.0039218202
0.0039175373
0.0039128668
0.0039076267
0.0039022765
0.0038966432
0.0038865295
0.00014763453
0.00014762772
0.00014762495
0.00014762563
0.00014762846
0.00014763169
0.00014763336
0.0001476315
0.00014762403
0.00014760873
0.00014758336
0.00014754567
0.00014749346
0.00014742456
0.00014733664
0.0001472267
0.00014709298
0.00014693325
0.00014674441
0.00014652342
0.00014626757
0.00014597458
0.00014564264
0.00014527062
0.00014485873
0.00014440901
0.00014392488
0.00014341007
0.00014287089
0.00014232851
0.00014179158
0.00014128928
0.00014083688
0.00014049925
0.00014026483
0.00014034846
0.00014073306
0.00014165666
0.00014361982
0.00014739004
0.00015399288
0.00016545713
0.00018504276
0.00022105433
0.00028160518
0.00037401201
0.00051135062
0.00069152445
0.00090150443
0.0011279615
0.0013562192
0.0015735716
0.0017722095
0.0019499152
0.0021087
0.0022521169
0.0023830608
0.0025031286
0.0026131808
0.0027140159
0.002806555
0.0028916783
0.0029700982
0.0030423897
0.0031090613
0.0031705784
0.0032273559
0.0032797582
0.0033281113
0.0033727107
0.0034138241
0.0034516948
0.0034865446
0.0035185768
0.0035479784
0.0035749219
0.0035995669
0.0036220612
0.0036425417
0.0036611356
0.0036779609
0.0036931275
0.0037067376
0.0037188868
0.003729664
0.0037391528
0.003747431
0.0037545718
0.0037606436
0.0037657116
0.0037698352
0.0037730744
0.0037754759
0.0037771073
0.0037779781
0.0037782329
0.0037776902
0.0037769312
0.0037752105
0.0037715647
0.00014763756
0.00014762436
0.00014761235
0.00014760185
0.00014759254
0.00014758355
0.00014757372
0.00014756186
0.0001475467
0.00014752689
0.00014750106
0.00014746781
0.00014742577
0.00014737354
0.00014730979
0.00014723295
0.00014714166
0.00014703458
0.00014691019
0.00014676684
0.00014660286
0.00014641662
0.00014620661
0.00014597145
0.00014571007
0.00014542186
0.00014510681
0.00014476532
0.00014439806
0.00014400886
0.00014360125
0.00014318169
0.00014275206
0.00014232724
0.00014191654
0.00014155106
0.00014124152
0.00014101418
0.00014090044
0.00014100272
0.00014137449
0.00014220939
0.0001437177
0.00014648679
0.0001514203
0.00015978196
0.0001740754
0.00019893376
0.00024227386
0.00031125888
0.00041549655
0.00055915916
0.00073272099
0.000926009
0.0011269436
0.0013241894
0.0015099283
0.0016809061
0.0018375106
0.0019816012
0.002114792
0.0022380188
0.002351924
0.0024572071
0.0025546251
0.0026448642
0.0027284997
0.0028060373
0.0028779421
0.0029446382
0.0030065059
0.0030638891
0.0031171016
0.0031664298
0.0032121363
0.0032544621
0.0032936296
0.0033298441
0.0033632953
0.0033941586
0.003422597
0.0034487616
0.003472793
0.0034948223
0.0035149714
0.0035333543
0.0035500777
0.0035652411
0.0035789378
0.003591256
0.0036022769
0.0036120805
0.0036207334
0.0036283197
0.0036348684
0.0036405383
0.0036451521
0.0036494117
0.003651971
0.0036553366
0.00014764431
0.00014762859
0.00014761267
0.00014759706
0.00014758196
0.00014756703
0.00014755165
0.00014753507
0.00014751647
0.00014749496
0.00014746961
0.00014743946
0.00014740355
0.0001473609
0.00014731057
0.00014725157
0.00014718294
0.00014710373
0.00014701296
0.0001469096
0.00014679257
0.00014666079
0.00014651313
0.00014634854
0.00014616598
0.00014596459
0.00014574372
0.00014550295
0.00014524196
0.00014496122
0.00014466161
0.00014434503
0.00014401268
0.00014366813
0.00014331497
0.00014296108
0.00014261325
0.00014227759
0.00014196545
0.00014169779
0.00014149507
0.00014135498
0.00014138277
0.00014154378
0.00014199515
0.00014289254
0.00014445611
0.00014708574
0.00015163592
0.00015929185
0.00017216105
0.0001939635
0.00023171515
0.00029195744
0.00038408121
0.0005093278
0.00066166375
0.00083285702
0.0010127362
0.0011916609
0.0013629017
0.0015235538
0.00167345
0.0018133788
0.0019440072
0.0020657779
0.0021791549
0.0022846996
0.0023829816
0.0024745131
0.0025597569
0.0026391465
0.0027130849
0.0027819416
0.0028460567
0.0029057447
0.0029612957
0.0030129782
0.0030610403
0.0031057122
0.0031472073
0.0031857239
0.0032214463
0.0032545463
0.0032851838
0.0033135081
0.0033396587
0.0033637659
0.0033859518
0.0034063311
0.0034250103
0.0034420925
0.0034576671
0.0034718372
0.0034846544
0.0034962932
0.0035065823
0.0035163519
0.0035236077
0.0035346212
0.00014765316
0.00014763642
0.00014761892
0.00014760103
0.00014758308
0.00014756507
0.0001475467
0.00014752755
0.00014750708
0.00014748469
0.00014745972
0.00014743148
0.00014739925
0.00014736231
0.00014731994
0.00014727143
0.00014721606
0.00014715312
0.0001470819
0.00014700166
0.00014691167
0.00014681114
0.00014669927
0.00014657524
0.00014643823
0.00014628749
0.0001461223
0.00014594208
0.00014574629
0.00014553465
0.00014530709
0.000145064
0.0001448058
0.00014453349
0.0001442484
0.00014395309
0.00014365077
0.00014334457
0.00014303837
0.00014273874
0.00014245272
0.0001421833
0.00014195566
0.0001417751
0.00014163475
0.000141647
0.00014175249
0.0001420502
0.00014267063
0.0001437653
0.00014558573
0.00014852913
0.00015348289
0.00016168725
0.00017533405
0.00019840195
0.00023702953
0.00029771889
0.00038847169
0.00050681878
0.00064854927
0.00080635613
0.00097121814
0.0011351731
0.0012932098
0.0014432993
0.0015850951
0.0017187097
0.0018442799
0.0019620234
0.0020722914
0.002175498
0.0022720513
0.0023623429
0.0024467533
0.0025256462
0.002599364
0.0026682281
0.00273254
0.0027925814
0.0028486159
0.0029008895
0.0029496323
0.0029950589
0.00303737
0.0030767533
0.0031133843
0.0031474274
0.0031790364
0.0032083558
0.0032355205
0.0032606594
0.0032838876
0.0033053301
0.003325063
0.0033432798
0.0033598151
0.0033756391
0.0033880518
0.0034074278
0.00014766374
0.00014764647
0.00014762834
0.00014760952
0.00014759027
0.0001475707
0.0001475507
0.00014753007
0.00014750849
0.00014748554
0.00014746076
0.00014743364
0.00014740364
0.0001473702
0.00014733277
0.00014729078
0.00014724367
0.0001471909
0.00014713191
0.00014706614
0.00014699303
0.000146912
0.00014682244
0.00014672372
0.00014661521
0.00014649627
0.00014636629
0.00014622469
0.00014607093
0.00014590457
0.00014572525
0.00014553282
0.00014532723
0.00014510867
0.00014487752
0.00014463463
0.00014438134
0.00014411923
0.00014385014
0.0001435767
0.00014330244
0.0001430293
0.00014276458
0.00014251488
0.00014227556
0.00014207784
0.00014192324
0.00014180048
0.00014180681
0.0001418916
0.0001421474
0.00014264945
0.00014352346
0.00014496723
0.00014728048
0.00015100073
0.00015710855
0.00016710308
0.00018346667
0.00021113979
0.00025545383
0.00032423624
0.00041855788
0.0005369361
0.00067466526
0.00082426708
0.00097791174
0.0011297089
0.0012764493
0.0014168246
0.0015503442
0.0016767885
0.0017961282
0.0019085151
0.0020142059
0.0021134949
0.0022066918
0.0022941143
0.0023760774
0.002452887
0.0025248373
0.0025922092
0.0026552694
0.00271427
0.0027694494
0.0028210319
0.0028692287
0.0029142385
0.0029562481
0.0029954335
0.0030319593
0.0030659825
0.0030976459
0.0031270983
0.0031544426
0.0031798937
0.0032032919
0.0032257609
0.0032438308
0.0032723528
0.00014767599
0.00014765834
0.00014763991
0.00014762072
0.00014760092
0.00014758063
0.00014755981
0.00014753837
0.00014751613
0.00014749281
0.0001474681
0.00014744163
0.00014741297
0.00014738171
0.00014734741
0.00014730962
0.00014726788
0.00014722176
0.00014717081
0.00014711457
0.00014705261
0.00014698448
0.00014690968
0.00014682774
0.00014673813
0.00014664035
0.00014653387
0.00014641821
0.00014629286
0.00014615737
0.00014601132
0.0001458544
0.00014568635
0.00014550703
0.00014531641
0.00014511467
0.00014490226
0.00014467987
0.0001444484
0.00014420903
0.00014396353
0.00014371325
0.00014346088
0.00014321034
0.00014296109
0.00014272161
0.00014249825
0.00014228555
0.00014211223
0.00014197767
0.00014188091
0.00014189191
0.00014197914
0.000142224
0.00014269459
0.00014348318
0.00014476233
0.00014679894
0.00014995967
0.00015507459
0.0001633199
0.00017675896
0.00019895131
0.00023467531
0.00029056198
0.00036943896
0.00047145593
0.0005937281
0.0007301787
0.00087361369
0.0010180567
0.0011597796
0.0012968695
0.0014283629
0.0015537308
0.001672733
0.0017853523
0.0018917067
0.0019919851
0.0020864186
0.0021752628
0.0022587842
0.0023372505
0.0024109263
0.002480069
0.002544927
0.0026057382
0.0026627296
0.0027161171
0.0027661053
0.0028128879
0.0028566493
0.0028975602
0.002935794
0.0029714812
0.0030048602
0.0030357757
0.003065519
0.0030897815
0.0031282933
0.00014768989
0.00014767192
0.00014765328
0.00014763391
0.0001476139
0.00014759331
0.00014757212
0.00014755028
0.00014752768
0.00014750416
0.00014747948
0.00014745337
0.00014742553
0.00014739564
0.00014736335
0.0001473283
0.00014729012
0.00014724847
0.00014720297
0.00014715324
0.00014709894
0.00014703968
0.00014697509
0.00014690475
0.00014682825
0.00014674517
0.00014665508
0.00014655756
0.00014645217
0.0001463385
0.00014621616
0.00014608478
0.00014594403
0.00014579365
0.00014563342
0.00014546325
0.00014528317
0.00014509339
0.00014489424
0.00014468627
0.00014447031
0.00014424719
0.00014401812
0.00014378515
0.00014354892
0.00014331221
0.00014307906
0.00014284858
0.00014262922
0.00014242553
0.00014223631
0.0001420845
0.00014196965
0.00014189904
0.00014192277
0.00014203176
0.00014229407
0.00014277462
0.00014354885
0.00014478484
0.00014671984
0.00014971472
0.00015444163
0.00016195402
0.00017404449
0.00019370051
0.00022519188
0.00027436792
0.00034416193
0.00043580795
0.00054741262
0.00067385599
0.00080862749
0.00094606394
0.0010823698
0.0012153551
0.0013437665
0.0014668635
0.0015842542
0.0016957954
0.0018014984
0.0019014684
0.0019958705
0.0020849071
0.0021688011
0.0022477857
0.0023220969
0.0023919694
0.0024576328
0.0025193098
0.002577215
0.0026315551
0.0026825248
0.00273032
0.0027750971
0.0028171183
0.0028562296
0.0028939042
0.0029249209
0.002974316
0.00014770541
0.00014768717
0.00014766834
0.00014764885
0.00014762873
0.00014760801
0.00014758667
0.00014756466
0.00014754191
0.00014751829
0.00014749364
0.00014746777
0.00014744045
0.00014741142
0.00014738043
0.00014734719
0.00014731141
0.00014727281
0.00014723106
0.00014718588
0.00014713696
0.00014708399
0.00014702664
0.00014696459
0.00014689748
0.00014682496
0.00014674667
0.00014666226
0.00014657135
0.00014647358
0.00014636859
0.00014625603
0.00014613557
0.0001460069
0.00014586973
0.00014572384
0.00014556908
0.00014540539
0.00014523281
0.00014505152
0.00014486185
0.00014466425
0.00014445929
0.000144248
0.00014403107
0.00014380966
0.00014358595
0.00014336043
0.00014313603
0.00014291612
0.00014270092
0.00014249821
0.00014231173
0.00014214326
0.00014201116
0.00014191787
0.00014187929
0.00014192223
0.00014206383
0.00014236624
0.00014288354
0.00014370701
0.00014498927
0.00014696402
0.00014999003
0.00015469161
0.00016207882
0.00017384272
0.000192759
0.00022281778
0.00026898692
0.00033426891
0.00042028508
0.00052540136
0.00064495243
0.00077303049
0.00090445821
0.0010356357
0.0011643317
0.0012891732
0.0014093172
0.0015242892
0.0016338673
0.0017379921
0.0018367098
0.0019301364
0.0020184325
0.0021017862
0.0021804016
0.0022544904
0.0023242664
0.0023899428
0.0024517266
0.0025098279
0.0025644225
0.0026157928
0.0026637809
0.0027100533
0.0027483973
0.0028096025
0.0001477225
0.00014770403
0.00014768503
0.00014766543
0.00014764524
0.00014762445
0.00014760304
0.00014758097
0.00014755816
0.00014753453
0.00014750993
0.00014748423
0.00014745724
0.00014742878
0.00014739865
0.00014736661
0.00014733246
0.00014729595
0.00014725683
0.00014721485
0.00014716977
0.00014712132
0.00014706923
0.00014701321
0.00014695297
0.00014688822
0.00014681865
0.00014674394
0.0001466638
0.00014657789
0.0001464859
0.00014638752
0.00014628243
0.00014617031
0.00014605088
0.00014592385
0.00014578899
0.0001456461
0.00014549507
0.00014533587
0.00014516857
0.00014499331
0.00014481036
0.00014462019
0.00014442327
0.00014422018
0.00014401204
0.00014379952
0.00014358388
0.00014336711
0.00014314994
0.00014293542
0.00014272652
0.00014252442
0.00014233602
0.00014216528
0.00014201826
0.00014190765
0.00014182897
0.00014183714
0.00014190851
0.00014210164
0.00014245914
0.00014304696
0.00014396339
0.00014536229
0.00014748433
0.00015070975
0.00015567831
0.00016343359
0.00017561441
0.00019504995
0.00022570517
0.00027150964
0.00033572825
0.00041969185
0.00052154829
0.00063676454
0.00075994116
0.00088644959
0.001013025
0.0011375463
0.0012586499
0.0013754803
0.0014875388
0.0015945678
0.0016964706
0.0017932583
0.0018850148
0.0019718717
0.0020539917
0.0021315565
0.0022047578
0.002273799
0.0023388596
0.0024002315
0.0024577417
0.0025132582
0.0025594902
0.0026334377
0.00014774108
0.00014772243
0.00014770329
0.0001476836
0.00014766334
0.0001476425
0.00014762106
0.00014759895
0.00014757614
0.00014755252
0.00014752798
0.00014750242
0.00014747567
0.0001474476
0.00014741804
0.00014738683
0.00014735379
0.00014731872
0.00014728145
0.00014724175
0.00014719942
0.00014715426
0.00014710601
0.00014705445
0.00014699932
0.00014694037
0.00014687734
0.00014680996
0.00014673796
0.00014666107
0.000146579
0.00014649149
0.00014639823
0.00014629894
0.00014619332
0.0001460811
0.00014596198
0.00014583575
0.00014570218
0.00014556113
0.00014541251
0.00014525631
0.00014509258
0.00014492149
0.00014474328
0.00014455824
0.00014436693
0.00014416986
0.00014396768
0.00014376149
0.00014355201
0.00014334066
0.00014312929
0.00014291898
0.0001427127
0.00014251325
0.00014232354
0.00014215004
0.00014199156
0.00014186935
0.00014178126
0.00014174145
0.00014177421
0.00014189823
0.00014215675
0.00014259487
0.00014328712
0.00014434178
0.00014592855
0.000148317
0.00015190474
0.00015741791
0.00016599118
0.00017939443
0.00020052729
0.00023309065
0.00028077534
0.00034659241
0.00043117424
0.00053211733
0.00064489148
0.00076457035
0.00088709658
0.0010095992
0.0011301554
0.0012475005
0.0013608322
0.0014696721
0.0015737624
0.001672996
0.0017673691
0.0018569489
0.0019418494
0.002022222
0.0020982156
0.0021701068
0.0022376854
0.0023030216
0.0023576519
0.0024452348
0.00014776107
0.00014774229
0.00014772306
0.0001477033
0.00014768298
0.0001476621
0.00014764063
0.00014761851
0.00014759569
0.0001475721
0.00014754763
0.00014752217
0.00014749562
0.00014746783
0.00014743869
0.00014740805
0.00014737578
0.00014734173
0.00014730576
0.00014726769
0.00014722735
0.00014718458
0.00014713917
0.00014709092
0.00014703961
0.00014698504
0.00014692697
0.00014686517
0.00014679942
0.00014672947
0.00014665508
0.00014657601
0.00014649198
0.00014640274
0.00014630802
0.00014620753
0.00014610099
0.00014598815
0.00014586876
0.00014574261
0.00014560953
0.0001454694
0.00014532213
0.00014516774
0.00014500628
0.00014483787
0.00014466276
0.00014448124
0.00014429366
0.00014410063
0.00014390268
0.00014370057
0.00014349539
0.00014328799
0.00014307987
0.0001428728
0.00014266847
0.00014247037
0.00014227869
0.00014210191
0.00014194264
0.00014180662
0.00014170495
0.00014163853
0.00014164639
0.00014172601
0.00014191496
0.00014225285
0.00014279625
0.00014363282
0.00014488003
0.00014674045
0.0001495237
0.00015370129
0.00016009631
0.00016994568
0.00018535612
0.00020924064
0.00024518311
0.00029678006
0.0003662972
0.00045337117
0.00055493738
0.00066648687
0.0007836012
0.00090280208
0.0010216273
0.0011383991
0.0012520044
0.0013617334
0.001467158
0.0015680452
0.0016642979
0.0017559176
0.0018429505
0.0019256056
0.0020035927
0.0020791692
0.0021425958
0.0022445927
0.0001477824
0.00014776354
0.00014774424
0.00014772443
0.00014770409
0.00014768319
0.00014766169
0.00014763957
0.00014761676
0.00014759319
0.00014756878
0.00014754343
0.00014751703
0.00014748946
0.00014746063
0.00014743042
0.00014739871
0.0001473654
0.00014733036
0.00014729346
0.00014725457
0.00014721355
0.00014717023
0.00014712445
0.00014707603
0.00014702477
0.00014697049
0.00014691298
0.00014685206
0.0001467875
0.0001467191
0.00014664664
0.00014656988
0.0001464886
0.00014640253
0.00014631142
0.000146215
0.000146113
0.00014600517
0.00014589127
0.00014577109
0.00014564444
0.00014551117
0.00014537118
0.00014522441
0.00014507086
0.00014491058
0.0001447437
0.0001445704
0.00014439098
0.00014420576
0.00014401519
0.00014381989
0.00014362047
0.00014341777
0.00014321288
0.00014300686
0.0001428017
0.00014259804
0.00014239954
0.00014220883
0.00014202881
0.00014186529
0.00014171976
0.0001416084
0.00014153355
0.00014151196
0.00014155921
0.00014170024
0.0001419705
0.00014241227
0.00014309663
0.00014412537
0.00014564543
0.00014789858
0.00015123679
0.0001562692
0.00016391851
0.00017571875
0.00019399119
0.00022184775
0.00026288109
0.0003201871
0.00039494076
0.00048562757
0.00058861153
0.00069955206
0.00081460177
0.00093084519
0.0010462194
0.0011593116
0.0012691836
0.0013752375
0.001477117
0.0015746146
0.0016677624
0.0017561064
0.0018420457
0.0019144483
0.0020314018
0.00014780499
0.0001477861
0.00014776676
0.00014774694
0.00014772659
0.00014770568
0.00014768419
0.00014766208
0.00014763929
0.00014761576
0.0001475914
0.00014756614
0.00014753987
0.0001475125
0.00014748392
0.00014745404
0.00014742277
0.00014739001
0.00014735566
0.00014731963
0.00014728181
0.00014724209
0.00014720033
0.00014715639
0.00014711014
0.0001470614
0.00014701002
0.00014695582
0.00014689864
0.00014683829
0.00014677459
0.00014670734
0.00014663635
0.0001465614
0.00014648226
0.00014639868
0.00014631043
0.00014621725
0.00014611888
0.00014601507
0.0001459056
0.00014579026
0.00014566883
0.00014554117
0.00014540714
0.00014526664
0.00014511962
0.0001449661
0.00014480611
0.00014463977
0.00014446725
0.00014428879
0.00014410472
0.00014391545
0.00014372146
0.00014352342
0.00014332203
0.00014311843
0.0001429133
0.00014270839
0.00014250559
0.00014230666
0.00014211487
0.00014193157
0.00014176401
0.00014161574
0.00014149499
0.00014140884
0.00014136851
0.0001413926
0.00014149733
0.0001417185
0.00014209046
0.00014267243
0.00014354903
0.00014483679
0.0001467299
0.00014951274
0.0001536468
0.00015986164
0.00016934134
0.00018392742
0.00020625175
0.00023964918
0.00028749848
0.00035195431
0.00043282561
0.00052751092
0.00063206727
0.00074252972
0.00085565945
0.00096906564
0.0010810645
0.0011905094
0.0012966242
0.0013990397
0.0014969684
0.0015928468
0.0016740054
0.0018060193
0.00014782877
0.00014780987
0.00014779054
0.00014777073
0.00014775039
0.00014772951
0.00014770805
0.00014768596
0.00014766321
0.00014763973
0.00014761544
0.00014759027
0.00014756413
0.00014753693
0.00014750858
0.00014747898
0.00014744807
0.00014741575
0.00014738195
0.00014734659
0.00014730958
0.00014727083
0.00014723025
0.00014718771
0.0001471431
0.00014709629
0.00014704713
0.00014699549
0.00014694122
0.00014688416
0.00014682415
0.00014676103
0.00014669462
0.00014662472
0.00014655114
0.00014647365
0.00014639203
0.00014630604
0.00014621542
0.00014611995
0.00014601939
0.0001459135
0.00014580208
0.00014568492
0.00014556185
0.00014543272
0.00014529741
0.00014515583
0.00014500794
0.00014485374
0.00014469328
0.00014452665
0.00014435401
0.00014417559
0.00014399166
0.00014380263
0.00014360893
0.00014341124
0.00014321011
0.00014300647
0.00014280154
0.00014259651
0.00014239329
0.00014219303
0.00014199926
0.00014181478
0.00014164398
0.00014149124
0.00014136308
0.00014126819
0.00014120982
0.00014122148
0.00014129956
0.0001414852
0.00014180761
0.0001423152
0.00014308141
0.00014420864
0.00014585262
0.00014824904
0.00015177443
0.00015702798
0.00016496357
0.00017707899
0.00019560781
0.00022355369
0.00026428056
0.00032048308
0.00039295932
0.00048008954
0.00057849267
0.00068428976
0.000794059
0.00090516222
0.0010156686
0.0011243625
0.001229787
0.0013341922
0.0014231679
0.0015695582
0.00014785366
0.00014783479
0.00014781549
0.00014779572
0.00014777543
0.00014775459
0.00014773318
0.00014771115
0.00014768845
0.00014766504
0.00014764083
0.00014761577
0.00014758977
0.00014756273
0.00014753459
0.00014750526
0.00014747466
0.00014744272
0.00014740938
0.00014737456
0.0001473382
0.00014730023
0.00014726056
0.0001472191
0.00014717576
0.00014713042
0.00014708299
0.00014703333
0.00014698133
0.00014692685
0.00014686975
0.00014680989
0.00014674713
0.00014668128
0.00014661217
0.0001465396
0.00014646336
0.00014638323
0.00014629899
0.0001462104
0.00014611724
0.00014601928
0.00014591629
0.00014580806
0.00014569438
0.00014557509
0.00014545
0.00014531898
0.00014518193
0.00014503876
0.00014488944
0.00014473395
0.00014457234
0.0001444047
0.00014423118
0.00014405198
0.00014386736
0.00014367771
0.00014348342
0.00014328504
0.00014308332
0.00014287905
0.00014267341
0.00014246731
0.00014226261
0.00014206125
0.00014186584
0.00014167919
0.00014150497
0.00014134844
0.00014121225
0.00014111145
0.00014104154
0.00014104175
0.00014110333
0.00014126063
0.00014154442
0.00014199842
0.00014268542
0.00014369519
0.00014516237
0.00014729246
0.00015040392
0.0001550009
0.00016188303
0.00017231564
0.00018822366
0.0002122957
0.00024775131
0.00029753372
0.00036311424
0.00044369273
0.00053648213
0.00063782352
0.00074421241
0.00085297168
0.0009613983
0.0010711291
0.0011656925
0.0013243818
0.00014787957
0.00014786077
0.00014784153
0.00014782182
0.0001478016
0.00014778084
0.0001477595
0.00014773754
0.00014771493
0.00014769161
0.00014766751
0.00014764257
0.00014761671
0.00014758986
0.00014756193
0.00014753285
0.00014750255
0.00014747097
0.00014743803
0.00014740369
0.00014736788
0.00014733054
0.00014729162
0.00014725102
0.00014720868
0.00014716452
0.00014711843
0.00014707033
0.00014702011
0.00014696766
0.00014691286
0.0001468556
0.00014679574
0.00014673313
0.00014666762
0.00014659902
0.00014652716
0.00014645183
0.00014637282
0.00014628992
0.0001462029
0.00014611156
0.00014601566
0.00014591499
0.00014580934
0.00014569851
0.00014558231
0.00014546056
0.00014533311
0.00014519983
0.00014506061
0.00014491539
0.00014476412
0.00014460679
0.00014444345
0.00014427417
0.00014409909
0.0001439184
0.00014373237
0.00014354129
0.00014334563
0.00014314591
0.00014294285
0.00014273714
0.00014252984
0.00014232224
0.00014211596
0.00014191286
0.00014171519
0.00014152621
0.00014134781
0.00014118774
0.00014104615
0.00014093956
0.00014086753
0.00014085132
0.00014089964
0.00014103684
0.00014129248
0.00014170643
0.00014233531
0.00014326119
0.00014460503
0.00014654932
0.00014937345
0.00015351618
0.00015967435
0.0001689518
0.00018304446
0.000204378
0.00023599102
0.00028090388
0.00034101049
0.00041614369
0.00050402917
0.00060143162
0.0007042057
0.00081288346
0.00090850664
0.0010749487
0.00014790644
0.00014788774
0.00014786858
0.00014784896
0.00014782883
0.00014780816
0.00014778692
0.00014776507
0.00014774257
0.00014771936
0.00014769539
0.00014767059
0.0001476449
0.00014761823
0.00014759052
0.00014756171
0.00014753171
0.00014750046
0.00014746792
0.00014743401
0.0001473987
0.00014736193
0.00014732364
0.00014728377
0.00014724226
0.00014719905
0.00014715405
0.0001471072
0.0001470584
0.00014700757
0.00014695461
0.00014689942
0.00014684188
0.00014678187
0.00014671926
0.00014665388
0.00014658557
0.00014651416
0.00014643944
0.00014636123
0.00014627931
0.00014619349
0.00014610355
0.00014600928
0.00014591045
0.00014580688
0.00014569834
0.00014558466
0.00014546565
0.00014534115
0.00014521101
0.0001450751
0.00014493333
0.00014478563
0.00014463195
0.00014447229
0.00014430667
0.00014413518
0.00014395795
0.00014377514
0.00014358702
0.0001433939
0.00014319623