/*--------------------------------*- C++ -*----------------------------------*\
  =========                 |
  \\      /  F ield         | OpenFOAM: The Open Source CFD Toolbox
   \\    /   O peration     | Website:  https://openfoam.org
    \\  /    A nd           | Version:  12
     \\/     M anipulation  |
\*---------------------------------------------------------------------------*/
FoamFile
{
    format      ascii;
    class       volScalarField;
    location    "1800";
    object      p;
}
// * * * * * * * * * * * * * * * * * * * * * * * * * * * * * * * * * * * * * //

dimensions      [0 2 -2 0 0 0 0];

internalField   nonuniform List<scalar> 
7480
(
0.0060474304
0.0060799083
0.0060449277
0.0060347833
0.0060552592
0.0060703065
0.0060732475
0.0060411239
0.0059696752
0.0058796966
0.0057631449
0.0056201538
0.0054559828
0.0052767639
0.0050864652
0.0048965336
0.0047043426
0.0045153301
0.0043319388
0.0041600211
0.0039957118
0.003839912
0.0036960875
0.0035658952
0.0034492594
0.0033468521
0.0032592394
0.0031865524
0.0031281511
0.003081936
0.0030462486
0.0030176352
0.0029906608
0.0029618207
0.0029292731
0.0028929848
0.0028548675
0.0028169244
0.0027791453
0.0027409651
0.0027020232
0.0026623271
0.0026227627
0.0025834733
0.0025439917
0.0025044023
0.0024651922
0.0024265988
0.002388088
0.0023494319
0.0023108788
0.0022727091
0.0022346621
0.0021964165
0.0021582482
0.0021202791
0.0020821982
0.0020439184
0.0020056847
0.0019674361
0.0019288658
0.0018902047
0.001851442
0.0018123054
0.0017729722
0.0017334346
0.0016934879
0.0016532632
0.0016127343
0.0015717518
0.001530397
0.0014886277
0.0014464074
0.0014037237
0.001360532
0.0013168471
0.0012726349
0.0012278718
0.0011825484
0.0011366536
0.0010901779
0.0010431152
0.00099546388
0.00094722753
0.00089841877
0.000849057
0.00079918343
0.00074883944
0.00069813969
0.00064712733
0.00059617276
0.00054509153
0.00049539555
0.00044511354
0.00040160502
0.00035192405
0.0003344336
0.00025203652
0.00055735214
-0.00046765926
0.0059680423
0.0059954136
0.0059615588
0.0059720971
0.0060027624
0.0060215456
0.0060149811
0.0059856725
0.0059384864
0.0058667446
0.005767032
0.0056405433
0.0054916698
0.0053252714
0.0051476674
0.004961383
0.0047743459
0.0045872657
0.0044033677
0.0042298124
0.004063624
0.0039054562
0.0037577754
0.0036229198
0.0035018876
0.0033951563
0.0033030952
0.0032257654
0.0031623129
0.0031103831
0.0030686921
0.0030345682
0.0030031229
0.0029711583
0.0029369531
0.0029001987
0.0028623616
0.0028249642
0.0027875785
0.0027494721
0.0027103479
0.0026703588
0.0026304987
0.002590932
0.0025511816
0.0025113271
0.0024718491
0.0024329846
0.0023942056
0.0023552917
0.0023164906
0.0022780799
0.0022397969
0.0022013219
0.0021629339
0.0021247538
0.0020864692
0.002047994
0.0020095743
0.0019711473
0.0019324055
0.0018935814
0.001854663
0.0018153777
0.0017759033
0.001736231
0.0016961557
0.0016558088
0.0016151635
0.00157407
0.0015326098
0.00149074
0.0014484242
0.0014056496
0.0013623713
0.0013186042
0.0012743136
0.0012294759
0.0011840814
0.001138119
0.001091579
0.0010444549
0.00099674523
0.00094845325
0.0008995915
0.00085017925
0.00080025761
0.00074986782
0.00069912448
0.0006480706
0.00059707662
0.00054595781
0.00049622665
0.00044591069
0.00040237233
0.00035266149
0.00033513071
0.00025283854
0.00055820802
-0.0004669906
0.0059059975
0.0059454228
0.0059356704
0.0059514867
0.0059764643
0.0059877104
0.0059777351
0.005950303
0.0059016288
0.0058237441
0.0057184198
0.0055877933
0.0054358504
0.0052676616
0.0050889234
0.0049030869
0.0047181969
0.0045342265
0.0043548515
0.0041858995
0.0040259206
0.0038746979
0.0037339038
0.0036060235
0.0034923592
0.0033930843
0.0033084306
0.0032381479
0.0031811528
0.0031352448
0.0030974393
0.0030643892
0.0030323416
0.0029982774
0.0029609216
0.0029202488
0.0028781524
0.0028368952
0.002796578
0.0027565905
0.0027165087
0.0026762514
0.002636532
0.0025971806
0.0025574944
0.002517528
0.0024778407
0.0024387363
0.0023997161
0.0023605781
0.0023215681
0.002282957
0.002244478
0.0022058147
0.0021672507
0.0021289027
0.0020904545
0.0020518212
0.0020132507
0.0019746778
0.001935794
0.0018968345
0.0018577855
0.0018183735
0.0017787784
0.0017389897
0.001698802
0.0016583476
0.0016175989
0.0015764058
0.0015348503
0.001492889
0.0014504854
0.0014076267
0.0013642677
0.0013204233
0.0012760587
0.0012311501
0.0011856877
0.0011396603
0.0010930579
0.0010458742
0.00099810738
0.00094976069
0.00090084656
0.00085138416
0.00080141452
0.00075097878
0.0007001915
0.00064909557
0.00059806151
0.00054690422
0.00049713696
0.00044678555
0.00040321651
0.00035347124
0.00033592138
0.00025371257
0.00055910715
-0.00046633243
0.0058487199
0.0058943205
0.0058962771
0.0059107005
0.0059311433
0.0059404901
0.0059316919
0.0059049137
0.0058562566
0.0057813484
0.0056820483
0.0055594405
0.0054164552
0.005257445
0.0050874464
0.0049101039
0.0047320054
0.0045537733
0.004378988
0.0042121339
0.0040534364
0.0039022558
0.0037603589
0.0036303757
0.0035136401
0.0034104803
0.0033213693
0.0032463992
0.0031850593
0.0031359771
0.0030958322
0.0030615885
0.0030305157
0.0029992353
0.0029658194
0.0029299008
0.0028920623
0.0028530959
0.0028133451
0.0027726669
0.0027308248
0.0026880912
0.0026458534
0.0026044963
0.0025635214
0.0025228809
0.0024829974
0.0024439507
0.0024049901
0.0023658098
0.0023266725
0.0022878952
0.0022492362
0.002210394
0.0021716606
0.0021331466
0.0020945334
0.0020557414
0.0020170209
0.0019783028
0.0019392771
0.0019001834
0.0018610048
0.0018214666
0.001781751
0.0017418459
0.0017015449
0.0016609823
0.001620129
0.0015788348
0.0015371823
0.0014951274
0.0014526339
0.0014096888
0.0013662466
0.0013223225
0.0012778812
0.0012328991
0.001187366
0.0011412708
0.0010946035
0.0010473574
0.00099953084
0.00095112685
0.00090215779
0.00085264276
0.00080262268
0.00075213862
0.00070130509
0.00065016484
0.00059908846
0.00054789049
0.00049808478
0.00044769573
0.000404093
0.00035431021
0.00033674294
0.00025447804
0.00055999105
-0.00046574217
0.0057937817
0.0058426607
0.0058536655
0.0058700148
0.0058893652
0.005897893
0.0058889275
0.005861797
0.0058138904
0.005741675
0.0056456833
0.0055267242
0.0053875249
0.0052322216
0.005065644
0.0048914695
0.0047155966
0.0045396169
0.0043668722
0.0042013932
0.004044355
0.0038950826
0.0037552407
0.0036272575
0.0035124472
0.0034111816
0.0033238125
0.0032503341
0.0031900968
0.0031414843
0.0031011394
0.0030660946
0.0030336113
0.0030004039
0.0029649302
0.0029275997
0.0028890864
0.0028500942
0.0028115354
0.0027732976
0.0027347448
0.0026955541
0.0026557069
0.0026152515
0.0025742553
0.0025326655
0.0024912575
0.0024507021
0.0024105868
0.0023706838
0.0023312107
0.0022923618
0.0022537049
0.002214824
0.0021760054
0.002137377
0.0020986341
0.0020597113
0.0020208631
0.0019820153
0.0019428584
0.0019036402
0.0018643403
0.0018246821
0.0017848518
0.0017448347
0.0017044239
0.0016637559
0.0016228
0.0015814056
0.0015396567
0.0014975081
0.001454924
0.0014118913
0.0013683644
0.0013243585
0.0012798383
0.00123478
0.0011891736
0.0011430077
0.0010962723
0.0010489607
0.001001071
0.00095260641
0.00090357903
0.00085400795
0.00080393401
0.00075339821
0.00070251502
0.00065132707
0.00060020494
0.00054896296
0.00049911524
0.0004486853
0.0004050445
0.00035522056
0.00033762866
0.00025527006
0.00056090354
-0.0004650456
0.0057415222
0.0057924585
0.0058107329
0.0058292217
0.0058473617
0.0058544376
0.0058447888
0.0058175024
0.0057703731
0.0057001487
0.0056069303
0.0054917105
0.0053570497
0.0052067501
0.005045304
0.0048763006
0.0047050619
0.0045336122
0.0043651232
0.0042028877
0.004048699
0.0039018894
0.0037640641
0.003637471
0.0035234694
0.0034225487
0.0033350104
0.0032608283
0.0031994092
0.00314924
0.0031072769
0.0030707376
0.0030370117
0.0030030562
0.0029674154
0.0029302021
0.0028916789
0.0028523738
0.002813097
0.0027737446
0.0027340791
0.0026942186
0.0026540339
0.0026140227
0.0025746101
0.0025354951
0.0024964649
0.0024573161
0.0024178236
0.0023778276
0.0023376474
0.0022978902
0.0022584296
0.0022189904
0.0021798787
0.0021411553
0.0021023795
0.0020634137
0.0020245028
0.0019855741
0.0019463247
0.001907016
0.0018676217
0.0018278644
0.0017879377
0.0017478248
0.0017073178
0.0016665564
0.0016255085
0.0015840231
0.0015421857
0.0014999504
0.0014572815
0.0014141662
0.0013705586
0.0013264743
0.0012818778
0.0012367454
0.0011910671
0.0011448314
0.0010980285
0.0010506514
0.0010026985
0.00095417268
0.00090508621
0.00085545805
0.00080532905
0.00075474013
0.00070380571
0.00065256838
0.00060139867
0.00055011078
0.00050021878
0.00044974585
0.00040606361
0.0003561957
0.00033857339
0.00025612173
0.00056182257
-0.00046419098
0.0056917167
0.0057437951
0.0057676018
0.0057876807
0.0058046136
0.0058103951
0.0058002628
0.0057730243
0.005726638
0.005658279
0.0055679115
0.0054565311
0.005326434
0.0051810681
0.0050245916
0.0048604941
0.0046936076
0.0045262165
0.0043612861
0.0042019553
0.0040500369
0.0039052232
0.003769094
0.0036437718
0.0035306051
0.0034301235
0.0033426391
0.0032681265
0.0032060411
0.0031549867
0.0031121031
0.003074651
0.0030401157
0.003005628
0.0029696613
0.0029321706
0.002893411
0.0028539433
0.0028145386
0.002775148
0.0027355752
0.0026957443
0.0026554367
0.002615118
0.0025751472
0.0025354983
0.0024959681
0.0024565427
0.0024176072
0.0023790561
0.0023406262
0.0023021335
0.0022633473
0.0022240913
0.0021846837
0.0021454647
0.0021061988
0.0020668657
0.0020277601
0.0019887579
0.0019494677
0.0019101213
0.0018706776
0.0018308589
0.0017908706
0.0017506913
0.0017101122
0.0016692785
0.0016281567
0.0015865962
0.0015446844
0.0015023745
0.0014596319
0.0014164436
0.0013727638
0.0013286087
0.0012839424
0.0012387415
0.0011929961
0.0011466948
0.0010998278
0.0010523882
0.0010043744
0.00095578929
0.00090664519
0.00085696107
0.00080677774
0.00075613614
0.00070515066
0.00065386387
0.00060264619
0.00055131186
0.00050137456
0.00045085773
0.00040713164
0.00035721788
0.00033956108
0.00025701262
0.00056271067
-0.00046316683
0.005643982
0.0056963157
0.0057241887
0.0057454957
0.0057614622
0.0057662287
0.0057557573
0.0057286524
0.0056830482
0.0056165481
0.0055290008
0.0054213233
0.0052955896
0.0051549491
0.0050032605
0.0048439029
0.0046812932
0.0045178869
0.0043565057
0.0042001433
0.0040506265
0.0039080039
0.0037737585
0.0036498894
0.0035377222
0.0034378274
0.0033505345
0.0032758354
0.0032131977
0.0031612791
0.00311741
0.0030789355
0.003043458
0.0030082784
0.0029718437
0.0029340476
0.0028951291
0.0028555909
0.0028161178
0.0027766734
0.0027370452
0.0026971322
0.0026567854
0.0026164391
0.002576435
0.0025367381
0.0024971056
0.0024575454
0.0024183738
0.0023795089
0.0023407205
0.0023018977
0.0022633077
0.0022250241
0.0021867979
0.0021484441
0.0021097452
0.0020706118
0.0020313838
0.0019921048
0.0019525238
0.0019129683
0.0018734206
0.0018335503
0.0017935321
0.001753321
0.0017127024
0.0016718276
0.0016306599
0.001589048
0.0015470826
0.0015047165
0.0014619161
0.0014186688
0.0013749293
0.0013307144
0.0012859882
0.0012407276
0.0011949228
0.0011485627
0.0011016375
0.0010541406
0.0010060704
0.00095742986
0.00090823142
0.00085849409
0.00080825875
0.00075756636
0.0007065313
0.00065519619
0.00060393129
0.00055255104
0.00050256834
0.0004520076
0.00040823591
0.00035827512
0.00034058025
0.00025792703
0.0005635375
-0.00046195223
0.0055979893
0.0056498186
0.0056805501
0.0057028216
0.0057180425
0.0057220044
0.0057112952
0.0056844214
0.0056396874
0.0055750512
0.0054902713
0.0053861826
0.0052646771
0.0051286388
0.004981645
0.0048269498
0.0046686122
0.0045091892
0.0043513936
0.0041980602
0.0040510388
0.0039106613
0.0037783355
0.003655952
0.0035448141
0.0034455318
0.0033584498
0.0032835728
0.0032203809
0.0031675922
0.0031227268
0.0030832458
0.0030468381
0.0030109515
0.0029740586
0.0029359849
0.0028969124
0.002857276
0.0028176896
0.0027781285
0.0027383937
0.0026984049
0.0026580436
0.0026176957
0.0025776829
0.0025379638
0.0024983186
0.0024587591
0.0024195469
0.0023805938
0.0023416868
0.0023027546
0.0022640442
0.0022256143
0.0021871005
0.0021484674
0.0021099865
0.0020716098
0.0020331559
0.0019944325
0.0019552621
0.0019158453
0.0018762382
0.0018362012
0.0017960166
0.0017557015
0.0017150281
0.0016741268
0.0016329375
0.0015913004
0.0015493083
0.0015069108
0.0014640748
0.0014207882
0.0013770061
0.0013327467
0.001287974
0.0012426656
0.0011968121
0.0011504027
0.0011034279
0.0010558812
0.0010077611
0.00095907107
0.00090982342
0.00086003736
0.00080975386
0.00075901399
0.00070793215
0.00065655106
0.0006052408
0.00055381614
0.00050378885
0.00045318501
0.00040936663
0.00035935829
0.00034162209
0.00025885574
0.00056427513
-0.00046051785
0.0055534512
0.0056041885
0.0056367656
0.0056597271
0.0056743498
0.0056776724
0.005666829
0.0056402983
0.0055965316
0.0055337788
0.0054517424
0.0053511771
0.0052338108
0.0051022839
0.0049599073
0.0048098018
0.0046557143
0.0045002506
0.0043460315
0.004195747
0.0040512616
0.0039131389
0.0037827407
0.0036618591
0.0035517732
0.0034531263
0.0033662774
0.0032912429
0.0032275217
0.0031738963
0.0031280636
0.0030876005
0.0030502795
0.0030136904
0.0029763377
0.0029379746
0.0028987299
0.0028589764
0.0028192644
0.0027795849
0.002739755
0.0026997029
0.0026593216
0.0026189557
0.0025789072
0.0025391397
0.0024994597
0.002459879
0.0024206357
0.0023816547
0.0023427392
0.002303815
0.0022650813
0.0022265556
0.0021879231
0.0021492148
0.0021106714
0.0020721914
0.0020334735
0.0019946191
0.0019558329
0.0019169453
0.0018777898
0.0018381877
0.0017982631
0.0017580233
0.0017172857
0.0016762783
0.0016350081
0.0015933249
0.0015513108
0.0015088987
0.0014660484
0.0014227449
0.001378942
0.0013346578
0.0012898564
0.0012445159
0.0011986277
0.0011521815
0.0011051681
0.0010575816
0.0010094206
0.0009606889
0.00091139909
0.00086157054
0.0008112444
0.00076046187
0.00070933744
0.00065791401
0.0006065614
0.00055509494
0.00050502482
0.00045437959
0.00041051412
0.00036045835
0.00034267799
0.00025979017
0.00056489639
-0.0004588305
0.0055101218
0.0055593333
0.0055929113
0.0056162734
0.0056303837
0.0056331955
0.0056223108
0.005596224
0.0055535135
0.0054926726
0.0054133731
0.005316288
0.0052029914
0.0050758994
0.0049380725
0.0047924915
0.0046426291
0.0044910997
0.0043404433
0.0041932226
0.0040513066
0.0039154524
0.0037869938
0.0036676323
0.0035586223
0.0034606348
0.0033740428
0.0032988756
0.0032346545
0.0031802262
0.0031334516
0.0030920236
0.003053801
0.0030165086
0.0029786847
0.0029400175
0.0029005863
0.0028607068
0.0028208677
0.0027810711
0.0027411472
0.0027010276
0.0026606168
0.0026202246
0.0025801336
0.0025403178
0.0025006032
0.0024609972
0.0024217179
0.0023827007
0.0023437561
0.0023048073
0.00226604
0.0022274779
0.0021888454
0.0021501475
0.0021115659
0.0020729875
0.0020341815
0.0019952959
0.0019564971
0.0019174169
0.0018780503
0.0018386185
0.0017990279
0.0017591393
0.001718781
0.0016780597
0.0016369254
0.0015952433
0.0015531708
0.0015107033
0.0014678219
0.0014245039
0.0013806925
0.0013364012
0.0012915902
0.0012462366
0.001200331
0.0011538636
0.0011068257
0.0010592119
0.0010110213
0.00096225805
0.00091293511
0.00086307218
0.0008127106
0.00076189185
0.00071073049
0.0006592697
0.00060787902
0.00055637449
0.00050626433
0.00045558036
0.00041166815
0.00036156579
0.00034373898
0.00026072062
0.00056537663
-0.00045685269
0.0054677948
0.0055151702
0.0055490583
0.0055725363
0.0055861711
0.0055885622
0.0055777055
0.0055521406
0.005510558
0.005451654
0.0053750855
0.0052814439
0.0051721589
0.0050494385
0.0049161068
0.0047750001
0.0046293459
0.0044817368
0.0043346391
0.004190502
0.0040511913
0.0039176251
0.0037911199
0.0036732961
0.0035653837
0.0034680772
0.0033817636
0.0033064863
0.0032417918
0.0031865904
0.0031388965
0.0030965203
0.0030574078
0.0030194114
0.002981106
0.0029421229
0.0029024936
0.0028624792
0.0028225092
0.0027825925
0.0027425712
0.0027023803
0.0026619357
0.0026215153
0.0025813818
0.0025415179
0.0025017665
0.0024621311
0.0024228103
0.0023837466
0.0023447634
0.0023057875
0.0022669894
0.0022283948
0.0021897471
0.0021510271
0.0021124047
0.0020737961
0.0020349995
0.0019961169
0.0019572472
0.0019180813
0.0018786904
0.0018392679
0.0017995383
0.0017594682
0.0017191862
0.0016786685
0.0016377941
0.0015964383
0.0015546386
0.0015123137
0.0014694623
0.0014261188
0.0013822751
0.0013379661
0.0012931486
0.0012477928
0.001201885
0.0011554129
0.0011083667
0.0010607407
0.0010125342
0.00096375182
0.00091440691
0.0008645196
0.00081413159
0.00076328467
0.00071209359
0.00066060184
0.00060917866
0.00055764101
0.00050749469
0.00045677564
0.00041281785
0.00036267047
0.00034479553
0.00026163641
0.00056566725
-0.00045454254
0.0054262979
0.0054716237
0.0055052689
0.0055285958
0.0055417558
0.0055437832
0.0055330004
0.0055080116
0.0054676073
0.0054106522
0.0053368004
0.0052465639
0.0051412358
0.0050228304
0.0048939486
0.004757277
0.0046158222
0.0044721302
0.0043285966
0.0041875692
0.0040509036
0.00391965
0.0037951154
0.0036788486
0.0035720564
0.0034754528
0.0033894394
0.0033140744
0.0032489327
0.0031929877
0.0031443985
0.0031010924
0.0030611033
0.0030224038
0.0029836084
0.0029442986
0.0029044595
0.0028643004
0.0028241944
0.0027841538
0.0027440321
0.0027037673
0.0026632855
0.0026228345
0.0025826579
0.0025427449
0.0025029547
0.0024632878
0.0024239239
0.0023848119
0.0023457883
0.0023067833
0.00226795
0.0022293129
0.0021906323
0.0021518853
0.0021132332
0.0020746015
0.002035796
0.0019968906
0.001957978
0.0019188028
0.0018794264
0.0018399646
0.0018001676
0.0017600723
0.0017198003
0.0016791613
0.001638147
0.0015968269
0.0015551641
0.0015130587
0.0014704836
0.0014273776
0.0013836628
0.0013393891
0.0012945628
0.0012491926
0.0012032784
0.0011568065
0.0011097625
0.0010621377
0.0010139298
0.00096514231
0.00091578856
0.00086588886
0.00081548526
0.00076461994
0.00071340789
0.00066189306
0.00061044432
0.00055887974
0.0005087023
0.00045795286
0.00041395154
0.00036376144
0.00034583739
0.00026252759
0.00056572252
-0.00045186037
0.0053854876
0.005428625
0.0054615932
0.0054845279
0.0054971896
0.0054988858
0.0054882043
0.0054638255
0.0054246291
0.0053696202
0.0052984577
0.0052115796
0.0051101504
0.0049960031
0.0048715274
0.0047392573
0.0046019965
0.0044622255
0.0043222694
0.0041843834
0.0040504071
0.0039214972
0.0037989563
0.0036842708
0.0035786248
0.0034827494
0.0033970604
0.0033216328
0.0032560718
0.0031994146
0.0031499562
0.0031057405
0.0030648893
0.0030254894
0.0029861968
0.0029465498
0.0029064895
0.0028661756
0.0028259282
0.0027857601
0.0027455352
0.0027051939
0.0026646709
0.0026241866
0.0025839654
0.0025440023
0.0025041717
0.0024644716
0.0024250638
0.0023859031
0.0023468382
0.0023078019
0.002268931
0.0022302483
0.0021915318
0.0021527565
0.0021140706
0.0020754039
0.0020365716
0.0019976394
0.0019587002
0.001919516
0.0018801295
0.0018406366
0.0018008217
0.0017607291
0.0017204372
0.0016797532
0.0016387197
0.0015973826
0.0015556085
0.0015134274
0.0014708602
0.0014278514
0.0013843477
0.0013403164
0.0012956801
0.0012504118
0.0012045297
0.0011580595
0.0011110134
0.0010633906
0.0010151876
0.0009664053
0.0009170549
0.00086715547
0.00081674849
0.00076587613
0.00071465345
0.00066312487
0.00061165888
0.00056007487
0.00050987251
0.0004590985
0.00041505661
0.00036482684
0.00034685351
0.00026338156
0.00056550331
-0.00044875622
0.0053452444
0.0053861116
0.0054180701
0.0054404017
0.0054525264
0.0054539067
0.0054433409
0.0054195903
0.0053816145
0.0053285352
0.0052600222
0.0051764456
0.0050788491
0.0049688971
0.0048487799
0.004720877
0.004587804
0.0044519609
0.0043156003
0.0041808916
0.0040496528
0.003923124
0.0038026064
0.0036895321
0.0035850634
0.0034899459
0.0034046101
0.0033291485
0.0032631995
0.0032058638
0.003155565
0.003110462
0.0030687651
0.0030286692
0.0029888737
0.0029488801
0.0029085873
0.0028681092
0.0028277149
0.0027874157
0.0027470846
0.002706664
0.0026660958
0.0026255751
0.0025853076
0.0025452935
0.002505421
0.0024656859
0.0024262334
0.0023870232
0.0023479158
0.0023088464
0.0022699366
0.0022312076
0.0021924544
0.0021536492
0.0021149263
0.0020762206
0.0020373585
0.0019983978
0.0019594261
0.001920218
0.0018808069
0.001841288
0.0018014621
0.0017613604
0.0017210518
0.0016803564
0.0016393128
0.0015979597
0.0015561646
0.0015139787
0.001471351
0.0014282407
0.0013846908
0.0013406741
0.0012961525
0.0012510799
0.0012053987
0.0011590742
0.0011121035
0.0010645077
0.0010163125
0.00096753555
0.00091819224
0.00086830061
0.00081790026
0.00076703193
0.00071580972
0.00066427793
0.00061280431
0.0005612096
0.00051098974
0.00046019801
0.00041611948
0.00036585382
0.00034783198
0.00026418326
0.00056497294
-0.00044517067
0.0053054698
0.0053440282
0.0053747283
0.005396278
0.0054078191
0.0054088868
0.0053984418
0.005375326
0.005338571
0.0052873945
0.0052214806
0.0051411386
0.0050473
0.0049414723
0.0048256586
0.0047020837
0.0045731876
0.0044412777
0.0043085317
0.0041770375
0.0040485862
0.0039244807
0.003806022
0.0036945943
0.0035913393
0.0034970147
0.0034120656
0.0033366033
0.0032703014
0.003212324
0.0031612167
0.0031152515
0.0030727273
0.003031942
0.0029916397
0.0029512909
0.0029107555
0.0028701039
0.0028295573
0.0027891234
0.0027486832
0.0027081805
0.0026675631
0.0026270028
0.0025866874
0.0025466213
0.0025067052
0.0024669333
0.0024274351
0.0023881748
0.0023490235
0.0023099194
0.0022709697
0.0022321938
0.0021934028
0.0021545659
0.0021158044
0.0020770589
0.002038166
0.0019991752
0.0019601669
0.0019209305
0.0018814926
0.0018419441
0.0018020966
0.0017619732
0.0017216413
0.0016809337
0.0016398804
0.0015985166
0.0015567224
0.0015145225
0.0014718765
0.0014287627
0.0013851878
0.0013410964
0.0012965007
0.0012513971
0.0012057618
0.0011595669
0.0011127711
0.0010653355
0.0010172476
0.00096852436
0.00091920318
0.00086932265
0.0008189318
0.00076807307
0.00071685938
0.00066533385
0.0006138624
0.00056226651
0.00051203756
0.00046123599
0.00041712573
0.00036682858
0.00034875999
0.00026491832
0.00056409374
-0.00044104801
0.0052660832
0.0053023263
0.0053315887
0.0053522096
0.0053631178
0.0053638676
0.005353542
0.0053310595
0.0052955158
0.005246208
0.0051828353
0.0051056534
0.0050154901
0.0049137077
0.0048021337
0.0046828406
0.0045581029
0.0044301269
0.0043010122
0.0041727682
0.0040471537
0.0039255164
0.0038091562
0.0036994151
0.003597415
0.0035039232
0.0034193992
0.0033439745
0.003277359
0.0032187806
0.0031669
0.0031201007
0.0030767701
0.0030353041
0.002994493
0.002953782
0.0029129948
0.0028721611
0.0028314571
0.0027908851
0.002750333
0.0027097453
0.0026690749
0.0026284719
0.002588107
0.0025479878
0.0025080266
0.0024682161
0.0024286711
0.0023893598
0.0023501637
0.0023110233
0.0022720326
0.0022332091
0.0021943788
0.0021555087
0.0021167079
0.0020779215
0.0020389966
0.0019999739
0.0019609278
0.0019216619
0.0018821962
0.0018426152
0.0018027417
0.0017625933
0.0017222342
0.0016815064
0.0016404341
0.0015990514
0.001557245
0.0015150331
0.0014723834
0.0014292727
0.0013856913
0.0013415892
0.001296971
0.0012518204
0.0012061262
0.0011598847
0.0011130883
0.0010657241
0.0010177696
0.00096919717
0.00091999816
0.00087019237
0.00081983855
0.00076899814
0.00071779662
0.00066628179
0.0006148189
0.00056322975
0.00051299986
0.00046219666
0.0004180603
0.0003677365
0.00034962405
0.00026557076
0.00056280308
-0.00043632809
0.0052270184
0.005260964
0.0052886656
0.0053082415
0.0053184691
0.0053188901
0.0053086773
0.0052868203
0.0052524716
0.0052049931
0.0051440991
0.0050699975
0.0049834211
0.0048855977
0.0047781917
0.0046631262
0.0045425196
0.0044184715
0.0042929999
0.0041680378
0.0040453066
0.0039261826
0.0038119629
0.0037039517
0.0036032512
0.0035106364
0.0034265808
0.0033512364
0.0032843511
0.0032252158
0.003172601
0.0031249989
0.0030808853
0.00303875
0.00299743
0.0029563513
0.0029153041
0.0028742806
0.0028334145
0.0027927014
0.0027520348
0.0027113595
0.0026706324
0.0026299838
0.0025895678
0.0025493945
0.0025093866
0.0024695357
0.002429943
0.0023905801
0.0023513379
0.0023121596
0.0022731269
0.002234255
0.0021953842
0.0021564796
0.0021176385
0.0020788104
0.002039852
0.0020007963
0.0019617114
0.0019224148
0.00188292
0.0018433051
0.0018034041
0.0017632296
0.0017228413
0.0016820897
0.0016409947
0.0015995883
0.0015577621
0.0015155324
0.0014728692
0.0014297468
0.0013861562
0.0013420531
0.0012974349
0.0012522805
0.0012065735
0.0011603019
0.0011134596
0.0010660479
0.00101807
0.00096952819
0.00092042187
0.00087074486
0.00082051352
0.00076976016
0.00071860777
0.00066711818
0.00061566927
0.00056409079
0.00051386478
0.00046306617
0.00041890875
0.00036856273
0.0003504103
0.000266123
0.00056104429
-0.00043094742
0.0051882219
0.0052199062
0.0052459689
0.0052644121
0.0052739155
0.0052739937
0.0052638837
0.0052426392
0.0052094636
0.0051637713
0.00510529
0.0050341856
0.0049511035
0.0048571477
0.004753831
0.0046429317
0.00452642
0.0044062862
0.0042844634
0.0041628091
0.004043003
0.0039264359
0.0038143992
0.0037081627
0.0036088092
0.0035171189
0.0034335787
0.0033583618
0.0032912544
0.0032316101
0.0031783035
0.0031299333
0.0030850626
0.0030422719
0.0030004454
0.0029589951
0.0029176812
0.0028764609
0.0028354286
0.0027945717
0.0027537885
0.0027130233
0.0026722362
0.0026315392
0.0025910705
0.0025508422
0.0025107863
0.0024708934
0.0024312519
0.0023918367
0.0023525474
0.0023133297
0.0022742539
0.0022353331
0.0021964207
0.0021574801
0.0021185979
0.0020797272
0.0020407339
0.0020016441
0.0019625196
0.001923191
0.0018836658
0.001844016
0.0018040864
0.0017638846
0.0017234658
0.001682689
0.0016415696
0.0016001375
0.001558289
0.0015160381
0.0014733552
0.0014302145
0.0013866081
0.0013424935
0.0012978668
0.0012527081
0.0012069997
0.0011607265
0.0011138781
0.0010664481
0.0010184366
0.00096985303
0.00092071537
0.0008710442
0.00082087269
0.00077022266
0.0007191834
0.00066778446
0.00061639135
0.00056484273
0.00051462778
0.00046383728
0.00041966103
0.00036929446
0.00035110584
0.00026655672
0.00055876387
-0.00042484297
0.0051496507
0.0051791237
0.0052035052
0.0052207535
0.0052294958
0.0052292156
0.0052191957
0.0051985469
0.0051665178
0.0051225656
0.005066429
0.0049982365
0.0049185537
0.0048283703
0.0047290584
0.0046222573
0.0045097967
0.0043935555
0.0042753803
0.0041570533
0.0040402087
0.0039262391
0.0038164269
0.0037120102
0.0036140522
0.0035233361
0.0034403614
0.0033653227
0.0032980446
0.0032379425
0.00318399
0.0031348893
0.0030892905
0.0030458607
0.0030035324
0.0029617084
0.0029201224
0.0028786994
0.0028374973
0.0027964946
0.0027555929
0.0027147359
0.0026738857
0.0026331378
0.0025926152
0.0025523311
0.002512226
0.0024722895
0.0024325986
0.0023931304
0.0023537931
0.0023145346
0.0022754148
0.0022364444
0.0021974892
0.0021585114
0.0021195871
0.002080673
0.0020416437
0.0020025186
0.0019633538
0.001923992
0.0018844353
0.0018447497
0.0018047904
0.00176456
0.0017241096
0.0016833064
0.0016421615
0.0016007025
0.0015588305
0.0015165565
0.0014738518
0.0014306907
0.0013870649
0.001342933
0.0012982907
0.0012531191
0.0012074011
0.0011611221
0.001114271
0.0010668398
0.0010188253
0.00097023066
0.00092106914
0.00087136364
0.00082115986
0.00077050179
0.00071949832
0.00066817891
0.00061688404
0.00056542221
0.00051526063
0.00046449964
0.00042031197
0.00036992441
0.00035170214
0.00026685526
0.00055591273
-0.00041795703
0.0051112703
0.0051385927
0.0051612789
0.0051772927
0.0051852447
0.0051845909
0.0051746468
0.0051545738
0.005123661
0.0050814
0.0050275383
0.0049621711
0.0048857908
0.004799282
0.004703886
0.0046011097
0.0044926489
0.0043802717
0.0042657361
0.004150749
0.0040368958
0.0039255605
0.0038180126
0.00371546
0.0036189463
0.0035292555
0.0034468987
0.0033720915
0.003304697
0.0032441912
0.0031896419
0.0031398513
0.0030935559
0.003049506
0.0030066829
0.0029644851
0.002922623
0.0028809925
0.0028396179
0.0027984677
0.002757446
0.0027164956
0.0026755799
0.0026347788
0.0025942012
0.0025538608
0.0025137055
0.0024737242
0.0024339831
0.0023944615
0.0023550754
0.0023157749
0.00227661
0.0022375895
0.0021985905
0.0021595743
0.0021206072
0.0020816488
0.0020425824
0.002003421
0.001964215
0.0019248189
0.0018852297
0.0018455075
0.0018055172
0.0017652573
0.0017247744
0.0016839437
0.0016427722
0.0016012852
0.0015593885
0.0015170901
0.0014743625
0.0014311797
0.0013875327
0.0013433815
0.0012987208
0.0012535322
0.0012077989
0.0011615068
0.0011146453
0.0010672071
0.0010191888
0.00097059257
0.00092142892
0.0008717162
0.00082149529
0.00077080948
0.00071977546
0.00066844042
0.00061716366
0.0005657602
0.00051567615
0.00046499054
0.00042083039
0.00037043882
0.00035219375
0.00026700581
0.00055245663
-0.00041024603
0.0050730538
0.0050982943
0.0051192931
0.0051340523
0.0051411935
0.0051401521
0.0051302688
0.0051107495
0.0050809195
0.0050402987
0.0049886411
0.0049260115
0.0048528358
0.0047699014
0.0046783292
0.0045794995
0.0044749811
0.0043664323
0.0042555215
0.0041438806
0.0040330425
0.0039243737
0.0038191272
0.0037184816
0.0036234604
0.0035348467
0.0034531615
0.0033786414
0.0033111872
0.0032503344
0.0031952399
0.0031448031
0.003097845
0.0030531966
0.0030098879
0.0029673181
0.0029251775
0.0028833359
0.0028417865
0.0028004877
0.0027593453
0.0027183003
0.0026773168
0.0026364608
0.0025958275
0.0025554305
0.0025152242
0.002475197
0.0024354052
0.00239583
0.0023563944
0.0023170506
0.00227784
0.002238769
0.0021997252
0.0021606694
0.0021216586
0.0020826553
0.0020435506
0.002004352
0.0019651042
0.0019256727
0.00188605
0.0018462904
0.0018062682
0.0017659777
0.0017254615
0.0016846023
0.0016434032
0.0016018872
0.0015599647
0.001517641
0.0014748892
0.0014316835
0.0013880142
0.0013438423
0.0012991619
0.0012539546
0.0012082036
0.0011618951
0.0011150188
0.0010675674
0.0010195384
0.00097093416
0.00092176557
0.00087205032
0.00082182728
0.00077113602
0.00072008863
0.00066873011
0.00061742386
0.00056599927
0.00051591617
0.00046526738
0.00042114485
0.00037077881
0.00035255032
0.00026698228
0.00054839267
-0.00040169722
0.0050349805
0.005058214
0.0050775501
0.0050910511
0.0050973695
0.0050959292
0.0050860916
0.0050671023
0.0050383193
0.0049992859
0.0049497604
0.0048897802
0.0048197103
0.0047402489
0.0046524051
0.0045574397
0.0044568008
0.0043520386
0.0042447317
0.0041364363
0.0040286309
0.0039226565
0.0038197455
0.0037210478
0.0036275663
0.0035400811
0.0034591223
0.0033849464
0.0033174913
0.0032563502
0.0032007647
0.0031497276
0.0031021433
0.0030569203
0.0030131379
0.0029701997
0.0029277798
0.0028857245
0.0028439991
0.0028025512
0.0027612875
0.0027201472
0.0026790942
0.0026381818