/*--------------------------------*- C++ -*----------------------------------*\
  =========                 |
  \\      /  F ield         | OpenFOAM: The Open Source CFD Toolbox
   \\    /   O peration     | Website:  https://openfoam.org
    \\  /    A nd           | Version:  12
     \\/     M anipulation  |
\*---------------------------------------------------------------------------*/
FoamFile
{
    format      ascii;
    class       surfaceScalarField;
    location    "1800";
    object      phi;
}
// * * * * * * * * * * * * * * * * * * * * * * * * * * * * * * * * * * * * * //

dimensions      [0 3 -1 0 0 0 0];

internalField   nonuniform List<scalar> 
14782
(
0.00079745238
1.4452111e-06
-0.00079889759
0.00079529572
2.1566581e-06
0.00079257768
2.7180399e-06
0.00078928449
3.2931907e-06
0.00078535785
3.9266379e-06
0.00078071924
4.6386146e-06
0.00077532175
5.3974836e-06
0.00076912773
6.1940241e-06
0.00076210888
7.0188475e-06
0.00075428044
7.8284424e-06
0.00074568026
8.6001817e-06
0.00073638025
9.3000081e-06
0.00072647713
9.9031228e-06
0.00071608653
1.0390596e-05
0.00070532593
1.0760597e-05
0.00069433244
1.0993497e-05
0.00068321559
1.1116851e-05
0.00067209541
1.1120176e-05
0.00066108778
1.1007635e-05
0.00065029275
1.0795025e-05
0.00063981105
1.0481697e-05
0.00062975926
1.005179e-05
0.00062025253
9.5067299e-06
0.00061138341
8.8691223e-06
0.00060322405
8.1593604e-06
0.00059582647
7.3975837e-06
0.00058921908
6.6073827e-06
0.00058340484
5.8142484e-06
0.00057835122
5.0536144e-06
0.00057398196
4.3692632e-06
0.00057018795
3.79401e-06
0.00056684131
3.3466403e-06
0.00056381093
3.0303724e-06
0.00056098593
2.8250084e-06
0.00055828894
2.6969891e-06
0.00055567579
2.6131488e-06
0.00055312681
2.5489755e-06
0.00055063469
2.4921269e-06
0.00054819213
2.4425546e-06
0.00054578816
2.4039737e-06
0.0005434104
2.3777597e-06
0.00054104968
2.3607139e-06
0.00053870477
2.3449181e-06
0.00053638049
2.3242728e-06
0.00053408297
2.2975244e-06
0.00053181623
2.2667376e-06
0.00052958156
2.234672e-06
0.00052737912
2.2024408e-06
0.00052520872
2.1704005e-06
0.00052307053
2.1381913e-06
0.0005209649
2.1056253e-06
0.00051889227
2.0726302e-06
0.0005168525
2.0397717e-06
0.00051484475
2.0077541e-06
0.00051286848
1.9762608e-06
0.00051092352
1.9449659e-06
0.00050900928
1.9142346e-06
0.00050712491
1.8843776e-06
0.00050526988
1.8550294e-06
0.00050344375
1.826126e-06
0.00050164545
1.7982997e-06
0.00049987423
1.7712214e-06
0.00049812948
1.7447452e-06
0.00049641027
1.7192103e-06
0.00049471598
1.6942913e-06
0.00049304607
1.6699169e-06
0.00049139969
1.6463768e-06
0.00048977624
1.623445e-06
0.00048817515
1.6010969e-06
0.00048659564
1.57951e-06
0.00048503711
1.5585241e-06
0.00048349893
1.5381836e-06
0.00048198046
1.518467e-06
0.00048048114
1.4993221e-06
0.00047900036
1.4807763e-06
0.00047753761
1.4627574e-06
0.00047609234
1.4452692e-06
0.00047466404
1.4282973e-06
0.00047325222
1.411823e-06
0.00047185639
1.3958302e-06
0.00047047608
1.3803033e-06
0.00046911086
1.3652288e-06
0.00046776026
1.3505952e-06
0.00046642387
1.3363936e-06
0.00046510125
1.3226157e-06
0.00046379199
1.3092595e-06
0.00046249567
1.2963199e-06
0.00046121185
1.2838169e-06
0.00045994011
1.2717407e-06
0.00045867992
1.2601912e-06
0.00045743086
1.2490607e-06
0.00045619201
1.238851e-06
0.00045496318
1.2288342e-06
0.00045374157
1.2216017e-06
0.00045252915
1.2124298e-06
0.00045131335
1.2157904e-06
0.00045010983
1.2035242e-06
0.00044883125
1.2785809e-06
0.00044775544
1.0758144e-06
1.6211091e-06
0.00082626828
1.5246924e-06
-0.00082634776
0.00082618897
2.2359718e-06
0.00082606736
2.8396492e-06
0.00082591586
3.4446852e-06
0.00082572581
4.1166909e-06
0.00082548895
4.8754751e-06
0.00082518089
5.7055444e-06
0.00082476517
6.6097432e-06
0.00082420271
7.5813055e-06
0.00082344204
8.5891145e-06
0.00082242553
9.6166966e-06
0.00082109176
1.0633777e-05
0.00081938035
1.1614531e-05
0.00081723448
1.2536467e-05
0.00081460756
1.3387517e-05
0.000811459
1.4142051e-05
0.0008077613
1.4814555e-05
0.00080349671
1.5384768e-05
0.00079865751
1.5846834e-05
0.00079324334
1.6209197e-05
0.00078725055
1.6474484e-05
0.0007806925
1.6609835e-05
0.00077362676
1.6572475e-05
0.00076613582
1.6360063e-05
0.00075830722
1.5987957e-05
0.00075024673
1.5458078e-05
0.00074207645
1.4777661e-05
0.00073392821
1.3962487e-05
0.00072594324
1.3038585e-05
0.00071827545
1.2037052e-05
0.00071107241
1.0997047e-05
0.00070442931
9.9897479e-06
0.00069836811
9.0915668e-06
0.00069285093
8.3421921e-06
0.00068780093
7.7469923e-06
0.00068312301
7.2910609e-06
0.00067872907
6.9429205e-06
0.00067455458
6.6666192e-06
0.0006705591
6.4380312e-06
0.00066672056
6.2425168e-06
0.00066302636
6.0719524e-06
0.0006594655
5.9215815e-06
0.00065602597
5.784446e-06
0.00065269398
5.6562584e-06
0.00064945515
5.5363519e-06
0.00064629721
5.4246839e-06
0.00064321202
5.319856e-06
0.00064019575
5.218712e-06
0.0006372461
5.1200488e-06
0.00063436046
5.0238393e-06
0.00063153548
4.930601e-06
0.00062876816
4.8399533e-06
0.00062605609
4.7518358e-06
0.00062339717
4.6666787e-06
0.00062078968
4.5837516e-06
0.00061823212
4.5025279e-06
0.00061572278
4.4235748e-06
0.00061325986
4.3472947e-06
0.00061084187
4.2730194e-06
0.00060846748
4.2005115e-06
0.00060613514
4.1306462e-06
0.00060384356
4.0627955e-06
0.00060159163
3.9966747e-06
0.00059937796
3.9328811e-06
0.00059720137
3.8708817e-06
0.00059506078
3.8105055e-06
0.00059295495
3.7522148e-06
0.00059088278
3.6956145e-06
0.00058884326
3.6406159e-06
0.00058683527
3.5874963e-06
0.00058485781
3.53598e-06
0.00058290989
3.4861056e-06
0.00058099055
3.4378138e-06
0.00057909886
3.391007e-06
0.00057723392
3.3457161e-06
0.00057539488
3.3018018e-06
0.0005735809
3.2592436e-06
0.0005717912
3.2179994e-06
0.000570025
3.1780218e-06
0.00056828156
3.1392671e-06
0.00056656017
3.1016935e-06
0.00056486014
3.065264e-06
0.00056318079
3.0299459e-06
0.00056152147
2.9957122e-06
0.00055988155
2.9625393e-06
0.00055826039
2.9304139e-06
0.00055665739
2.8993253e-06
0.00055507191
2.8692948e-06
0.00055350332
2.840327e-06
0.00055195097
2.8125401e-06
0.0005504141
2.7859332e-06
0.00054889191
2.7610447e-06
0.00054738319
2.7375522e-06
0.00054588675
2.7180412e-06
0.00054439988
2.6993016e-06
0.00054291933
2.6963396e-06
0.00054143429
2.6885661e-06
0.00053995498
2.757889e-06
0.00053835618
2.674617e-06
3.1467382e-06
0.00085394341
1.569198e-06
-0.00085398792
0.00085392849
2.2508968e-06
0.0008539068
2.8613329e-06
0.00085388308
3.4684024e-06
0.00085386217
4.1376086e-06
0.00085385021
4.8874287e-06
0.00085384751
5.7082515e-06
0.00085385806
6.5991893e-06
0.0008538859
7.5534684e-06
0.00085392792
8.547093e-06
0.00085398205
9.5625667e-06
0.00085404227
1.0573557e-05
0.0008541006
1.1556197e-05
0.00085414699
1.2490082e-05
0.0008541711
1.3363406e-05
0.0008541562
1.4156951e-05
0.00085409071
1.4880042e-05
0.00085395505
1.5520426e-05
0.00085372607
1.6075817e-05
0.00085338013
1.6555141e-05
0.0008528853
1.6969314e-05
0.00085218365
1.7311485e-05
0.00085117737
1.7578748e-05
0.00084976276
1.7774681e-05
0.00084784357
1.7907143e-05
0.00084531855
1.7983099e-05
0.00084208485
1.8011362e-05
0.00083804619
1.8001148e-05
0.00083312417
1.7960604e-05
0.00082726798
1.789324e-05
0.00082052225
1.7742771e-05
0.00081304713
1.7464871e-05
0.00080507743
1.7061273e-05
0.00079690174
1.6517873e-05
0.00078881014
1.5838596e-05
0.00078105542
1.5045781e-05
0.00077382151
1.4176831e-05
0.00076718727
1.3300859e-05
0.00076112482
1.2500485e-05
0.0007555458
1.1821532e-05
0.00075034481
1.1272946e-05
0.00074543058
1.0835804e-05
0.00074074256
1.047247e-05
0.00073624703
1.0151784e-05
0.00073192574
9.8576508e-06
0.00072776579
9.5846251e-06
0.0007237545
9.331154e-06
0.00071987839
9.0948157e-06
0.00071612358
8.8748599e-06
0.00071247743
8.6699949e-06
0.00070892998
8.478046e-06
0.00070547447
8.2954669e-06
0.00070210588
8.1204215e-06
0.00069881938
7.9531841e-06
0.00069561025
7.7928736e-06
0.00069247434
7.6384382e-06
0.00068940798
7.4899439e-06
0.00068640789
7.3473826e-06
0.00068347128
7.2096221e-06
0.00068059559
7.0762062e-06
0.00067777812
6.9481152e-06
0.00067501664
6.824281e-06
0.00067230915
6.7041572e-06
0.00066965354
6.5884908e-06
0.00066704792
6.4765079e-06
0.00066449055
6.3678746e-06
0.00066197962
6.2631412e-06
0.00065951351
6.1617227e-06
0.00065709071
6.0634241e-06
0.00065470964
5.968566e-06
0.00065236887
5.8767451e-06
0.00065006702
5.7879585e-06
0.00064780275
5.7020856e-06
0.00064557478
5.6189699e-06
0.00064338187
5.5386254e-06
0.00064122284
5.4608369e-06
0.00063909654
5.3855401e-06
0.00063700189
5.3126501e-06
0.00063493784
5.2420782e-06
0.00063290336
5.1737405e-06
0.0006308975
5.1075576e-06
0.0006289193
5.0434577e-06
0.00062696787
4.981377e-06
0.00062504233
4.9212601e-06
0.00062314181
4.8630594e-06
0.00062126548
4.8067412e-06
0.00061941252
4.7522842e-06
0.00061758211
4.6996997e-06
0.00061577343
4.6490149e-06
0.00061398563
4.6003375e-06
0.00061221773
4.5538309e-06
0.00061046885
4.5099227e-06
0.00060873734
4.4690602e-06
0.00060702238
4.4330062e-06
0.00060531961
4.4020724e-06
0.00060362866
4.387292e-06
0.00060192919
4.3880322e-06
0.00060026713
4.4199502e-06
0.00059835665
4.5851012e-06
4.7406228e-06
0.00088248494
1.6174178e-06
-0.00088253316
0.00088247285
2.2629885e-06
0.00088246477
2.8694109e-06
0.00088245634
3.4768374e-06
0.00088245255
4.141397e-06
0.00088245933
4.8806508e-06
0.00088247929
5.6882925e-06
0.00088251644
6.5620347e-06
0.00088257378
7.4961269e-06
0.00088265044
8.4704402e-06
0.0008827464
9.4666046e-06
0.00088285916
1.0460796e-05
0.00088298517
1.1430185e-05
0.00088312011
1.2355143e-05
0.00088326036
1.3223158e-05
0.00088339973
1.4017583e-05
0.00088353717
1.4742606e-05
0.00088366793
1.5389658e-05
0.00088378734
1.5956411e-05
0.00088389314
1.6449336e-05
0.000883983
1.6879463e-05
0.00088405285
1.7241634e-05
0.00088409681
1.7534783e-05
0.00088410735
1.7764143e-05
0.00088407488
1.7939614e-05
0.00088398621
1.8071766e-05
0.00088382376
1.8173814e-05
0.00088356334
1.8261571e-05
0.00088316923
1.8354712e-05
0.00088258534
1.8477134e-05
0.00088168766
1.8640445e-05
0.00088030283
1.8849698e-05
0.00087825869
1.9105422e-05
0.00087538599
1.9390571e-05
0.00087154845
1.9676132e-05
0.00086666362
1.9930612e-05
0.00086076173
2.0078723e-05
0.00085402957
2.0033019e-05
0.00084675837
1.9771688e-05
0.00083927465
1.9305245e-05
0.0008318843
1.8663297e-05
0.00082482619
1.7893916e-05
0.00081823021
1.7068449e-05
0.00081210859
1.6273401e-05
0.00080639964
1.5566605e-05
0.00080101747
1.4966789e-05
0.00079588949
1.4459137e-05
0.00079097068
1.4013627e-05
0.00078623758
1.3607963e-05
0.00078167684
1.3230728e-05
0.00077727681
1.2878084e-05
0.00077302488
1.2547393e-05
0.00076890787
1.2237432e-05
0.00076491335
1.1947708e-05
0.00076103132
1.1674898e-05
0.00075725433
1.1415432e-05
0.00075357616
1.1168109e-05
0.000749991
1.0932541e-05
0.00074649357
1.0707058e-05
0.00074307917
1.0490602e-05
0.00073974342
1.0283864e-05
0.00073648261
1.008509e-05
0.00073329343
9.8933397e-06
0.00073017257
9.7093578e-06
0.0007271171
9.5319724e-06
0.00072412442
9.3605603e-06
0.00072119189
9.1956648e-06
0.00071831717
9.0364434e-06
0.00071549807
8.8825242e-06
0.00071273243
8.7342021e-06
0.00071001828
8.5909014e-06
0.0007073537
8.4525339e-06
0.00070473691
8.3188808e-06
0.00070216618
8.1896943e-06
0.00069963987
8.0649432e-06
0.00069715639
7.9443153e-06
0.00069471425
7.8276806e-06
0.000692312
7.7148927e-06
0.00068994828
7.6058035e-06
0.00068762175
7.5002732e-06
0.00068533113
7.3981698e-06
0.00068307522
7.2993726e-06
0.00068085282
7.2037734e-06
0.00067866281
7.1112765e-06
0.00067650407
7.021799e-06
0.00067437553
6.9352761e-06
0.00067227615
6.8516675e-06
0.00067020488
6.7709637e-06
0.00066816068
6.6932153e-06
0.00066614252
6.6185032e-06
0.00066414918
6.5471727e-06
0.00066217963
6.4794739e-06
0.0006602319
6.4167822e-06
0.00065830523
6.3596812e-06
0.00065639438
6.3129173e-06
0.00065450027
6.2814065e-06
0.00065259728
6.2910238e-06
0.00065075229
6.2649375e-06
0.00064857574
6.7616524e-06
6.4455098e-06
0.00091197828
1.6728236e-06
-0.00091203369
0.00091195995
2.2813153e-06
0.00091195229
2.8770728e-06
0.00091194713
3.4819953e-06
0.00091194808
4.1404496e-06
0.00091196039
4.8683383e-06
0.00091198684
5.6618406e-06
0.0009120304
6.5184782e-06
0.00091209369
7.4328345e-06
0.00091217684
8.387297e-06
0.00091227967
9.3637715e-06
0.0009124001
1.0340361e-05
0.00091253495
1.1295339e-05
0.00091268036
1.2209733e-05
0.0009128328
1.3070721e-05
0.00091298699
1.3863387e-05
0.0009131412
1.4588395e-05
0.0009132919
1.5238961e-05
0.00091343581
1.5812494e-05
0.00091357147
1.6313684e-05
0.00091369852
1.6752414e-05
0.00091381531
1.7124845e-05
0.00091391979
1.7430295e-05
0.00091401033
1.7673605e-05
0.00091408544
1.7864508e-05
0.00091414312
1.8014085e-05
0.00091418149
1.8135444e-05
0.00091419879
1.8244265e-05
0.00091419337
1.8360132e-05
0.00091416419
1.8506316e-05
0.00091410728
1.8697361e-05
0.0009140144
1.8942577e-05
0.00091387205
1.9247766e-05
0.000913658
1.9604629e-05
0.00091333633
1.9997802e-05
0.00091285212
2.0414814e-05
0.00091208825
2.0842598e-05
0.00091085406
2.126721e-05
0.00090894432
2.1681425e-05
0.00090617526
2.2074302e-05
0.00090241232
2.2426239e-05
0.00089761667
2.2689564e-05
0.00089191112
2.2773999e-05
0.00088555581
2.262872e-05
0.00087886054
2.2261867e-05
0.00087212854
2.1698792e-05
0.00086559504
2.0992634e-05
0.00085938267
2.0226e-05
0.00085350852
1.9482113e-05
0.00084793073
1.8808517e-05
0.0008425942
1.821461e-05
0.00083745845
1.7683145e-05
0.00083250121
1.7194674e-05
0.00082771046
1.6738463e-05
0.00082307676
1.6308597e-05
0.0008185898
1.5902389e-05
0.0008142383
1.5519608e-05
0.00081001161
1.5159235e-05
0.00080590112
1.4817546e-05
0.00080189999
1.4491728e-05
0.00079800196
1.4181892e-05
0.00079420139
1.3885665e-05
0.00079049313
1.3601598e-05
0.00078687236
1.3330126e-05
0.00078333491
1.3069423e-05
0.00077987702
1.2818454e-05
0.00077649502
1.2577658e-05
0.00077318565
1.234582e-05
0.00076994589
1.2122282e-05
0.00076677286
1.1907234e-05
0.0007636639
1.1699863e-05
0.00076061649
1.1499937e-05
0.00075762829
1.1307088e-05
0.00075469705
1.1120934e-05
0.00075182063
1.094136e-05
0.00074899702
1.0767925e-05
0.00074622429
1.0600406e-05
0.00074350062
1.0438571e-05
0.00074082423
1.028219e-05
0.00073819345
1.0131048e-05
0.00073560668
9.9849417e-06
0.00073306237
9.8436847e-06
0.00073055903
9.7071088e-06
0.00072809525
9.5750635e-06
0.00072566963
9.4474173e-06
0.00072328084
9.3240621e-06
0.00072092758
9.2049276e-06
0.00071860857
9.0899727e-06
0.00071632252
8.9792649e-06
0.00071406818
8.8728466e-06
0.0007118441
8.7712516e-06
0.00070964906
8.6745165e-06
0.00070748082
8.5850199e-06
0.00070533852
8.5019836e-06
0.00070321635
8.4350862e-06
0.0007011159
8.3818577e-06
0.00069900784
8.3990848e-06
0.00069697469
8.2980847e-06
0.00069454406
9.1922836e-06
8.281723e-06
0.00094246207
1.7343609e-06
-0.0009425236
0.00094243539
2.3079873e-06
0.00094242356
2.8889078e-06
0.00094241786
3.4876926e-06
0.00094242018
4.1381354e-06
0.00094243464
4.8538756e-06
0.00094246375
5.6327335e-06
0.00094250999
6.4722307e-06
0.00094257578
7.3670511e-06
0.00094266147
8.3016061e-06
0.00094276666
9.2585803e-06
0.0009428894
1.0217619e-05
0.00094302664
1.1158105e-05
0.00094317467
1.2061699e-05
0.00094333004
1.2915345e-05
0.00094348818
1.3705253e-05
0.00094364682
1.4429753e-05
0.00094380278
1.5083003e-05
0.00094395321
1.5662065e-05
0.00094409628
1.6170615e-05
0.00094423188
1.6616812e-05
0.0009443585
1.6998227e-05
0.0009444745
1.7314295e-05
0.00094457832
1.7569784e-05
0.00094466896
1.7773862e-05
0.00094474594
1.7937113e-05
0.00094480895
1.8072432e-05
0.00094485801
1.8195206e-05
0.00094489374
1.8324397e-05
0.00094491781
1.8482249e-05
0.00094493162
1.8683547e-05
0.00094493647
1.8937726e-05
0.00094493338
1.9250864e-05
0.00094492136
1.9616643e-05
0.00094489739
2.002177e-05
0.00094485699
2.0455218e-05
0.00094479221
2.090738e-05
0.00094468787
2.1371545e-05
0.00094452121
2.1848091e-05
0.00094425896
2.2336545e-05
0.00094385047
2.2834733e-05
0.00094320132
2.3338716e-05
0.00094214095
2.3834367e-05
0.00094046143
2.4308238e-05
0.00093797619
2.4747105e-05
0.00093454321
2.5131779e-05
0.00093013924
2.5396596e-05
0.00092490329
2.5461951e-05
0.00091908123
2.5304178e-05
0.00091296046
2.4929289e-05
0.00090680552
2.4369544e-05
0.00090079478
2.3693882e-05
0.00089500268
2.2986783e-05
0.00088943176
2.2309379e-05
0.00088405581
2.1684546e-05
0.00087885035
2.1107852e-05
0.00087380139
2.0568562e-05
0.00086890179
2.0058839e-05
0.00086414568
1.9573659e-05
0.0008595257
1.9111702e-05
0.00085503326
1.8674332e-05
0.00085066061
1.8258321e-05
0.00084640129
1.786092e-05
0.00084224946
1.748195e-05
0.00083819986
1.7119027e-05
0.00083424755
1.6770765e-05
0.00083038783
1.6437377e-05
0.00082661653
1.6117115e-05
0.00082292985
1.5808964e-05
0.00081932413
1.5512955e-05
0.00081579602
1.5227974e-05
0.00081234237
1.4953587e-05
0.00080896023
1.4689228e-05
0.00080564682
1.4434341e-05
0.0008023995
1.4188687e-05
0.00079921576
1.3951661e-05
0.00079609325
1.372292e-05
0.0007930297
1.3502119e-05
0.00079002296
1.3288927e-05
0.00078707098
1.3083031e-05
0.00078417178
1.2884138e-05
0.00078132349
1.269198e-05
0.00077852429
1.2506311e-05
0.00077577244
1.2326911e-05
0.00077306627
1.2153587e-05
0.00077040416
1.1986174e-05
0.00076778453
1.182456e-05
0.00076520584
1.1668661e-05
0.00076266655
1.1518554e-05
0.00076016516
1.1374231e-05
0.0007577
1.1236416e-05
0.0007552696
1.110491e-05
0.00075287149
1.0983133e-05
0.00075050463
1.0868843e-05
0.00074816276
1.0776955e-05
0.00074584787
1.0696746e-05
0.00074352758
1.0719378e-05
0.00074129776
1.0527911e-05
0.00073861225
1.1877785e-05
1.0264281e-05
0.00097396957
1.7998586e-06
-0.00097403507
0.0009739352
2.3423547e-06
0.00097391763
2.9064791e-06
0.00097390925
3.4960779e-06
0.00097391084
4.1365475e-06
0.00097392552
4.8391891e-06
0.00097395548
5.6027794e-06
0.00097400287
6.4248421e-06
0.00097406978
7.3001357e-06
0.00097415665
8.2147358e-06
0.00097426297
9.1522603e-06
0.00097438689
1.0093695e-05
0.00097452548
1.1019514e-05
0.00097467516
1.1912025e-05
0.00097483243
1.2758074e-05
0.00097499306
1.3544628e-05
0.00097515446
1.4268348e-05
0.00097531363
1.4923833e-05
0.00097546776
1.5507933e-05
0.00097561501
1.6023366e-05
0.00097575498
1.647685e-05
0.00097588624
1.6866964e-05
0.00097600726
1.7193269e-05
0.00097611673
1.7460317e-05
0.00097621379
1.7676803e-05
0.00097629793
1.7852976e-05
0.00097636904
1.8001323e-05
0.00097642732
1.8136921e-05
0.0009764737
1.827802e-05
0.00097651034
1.8445604e-05
0.00097653942
1.8654473e-05
0.00097656311
1.8914028e-05
0.00097658373
1.9230253e-05
0.00097660231
1.9598057e-05
0.00097661873
2.0005349e-05
0.00097663222
2.0441726e-05
0.00097664126
2.0898342e-05
0.00097664338
2.1369423e-05
0.00097663563
2.1855846e-05
0.00097661394
2.2358236e-05
0.00097657283
2.2875844e-05
0.00097650418
2.3407361e-05
0.00097639158
2.3946968e-05
0.00097620836
2.4491463e-05
0.00097591507
2.5040398e-05
0.00097545312
2.5593723e-05
0.00097470512
2.6144598e-05
0.00097348861
2.6678458e-05
0.00097161086
2.7181932e-05
0.00096890285
2.7637296e-05
0.00096527805
2.7994351e-05
0.00096079585
2.8176082e-05
0.00095564191
2.814072e-05
0.00095006705
2.7884241e-05
0.00094432397
2.7427621e-05
0.00093859927
2.6832551e-05
0.00093298906
2.6178771e-05
0.00092752172
2.5526182e-05
0.00092219459
2.4900789e-05
0.00091700018
2.4306114e-05
0.000911935
2.3739509e-05
0.00090699823
2.3195091e-05
0.00090218771
2.2671442e-05
0.0008974988
2.217086e-05
0.00089292622
2.1691601e-05
0.00088846511
2.1231881e-05
0.00088411086
2.0791622e-05
0.00087985922
2.0368754e-05
0.00087570607
1.9962123e-05
0.00087164734
1.9571676e-05
0.00086767933
1.9195991e-05
0.00086379847
1.8834447e-05
0.00086000139
1.84863e-05
0.00085628492
1.8150813e-05
0.000852646
1.7827612e-05
0.00084908174
1.7515921e-05
0.0008455894
1.7215263e-05
0.00084216634
1.6925176e-05
0.00083881005
1.6645213e-05
0.00083551813
1.6374953e-05
0.00083228826
1.6114004e-05
0.00082911824
1.5862e-05
0.00082600594
1.5618611e-05
0.00082294932
1.5383534e-05
0.0008199464
1.5156504e-05
0.00081699529
1.493729e-05
0.00081409412
1.472573e-05
0.00081124109
1.4521688e-05
0.0008084344
1.4325239e-05
0.00080567231
1.4136322e-05
0.00080295289
1.3955843e-05
0.00080027444
1.378336e-05
0.00079763422
1.362335e-05
0.00079503101
1.3472052e-05
0.00079245815
1.3349818e-05
0.00078991788
1.3237018e-05
0.00078737506
1.3262198e-05
0.00078493785
1.2965112e-05
0.00078199024
1.4825402e-05
1.2406561e-05
0.0010065334
1.8672356e-06
-0.0010066008
0.0010064932
2.3825765e-06
0.0010064701
2.9295897e-06
0.0010064581
3.5080613e-06
0.0010064577
4.1369635e-06
0.0010064713
4.8255625e-06
0.0010065009
5.5732025e-06
0.0010065483
6.3774179e-06
0.0010066154
7.2330489e-06
0.0010067026
8.1275515e-06
0.0010068093
9.0455252e-06
0.0010069339
9.969182e-06
0.0010070733
1.0880056e-05
0.0010072242
1.1761112e-05
0.0010073831
1.2599209e-05
0.0010075459
1.3381861e-05
0.0010077097
1.410448e-05
0.0010078717
1.476182e-05
0.0010080291
1.5350567e-05
0.0010081799
1.5872553e-05
0.0010083235
1.6333271e-05
0.0010084585
1.6731963e-05
0.0010085834
1.7068376e-05
0.0010086969
1.7346816e-05
0.0010087982
1.7575507e-05
0.0010088868
1.7764368e-05
0.0010089626
1.7925488e-05
0.001009026
1.807352e-05
0.001009078
1.8226018e-05
0.0010091208
1.8402879e-05
0.0010091565
1.861872e-05
0.0010091876
1.8882937e-05
0.0010092165
1.9201338e-05
0.0010092448
1.9569746e-05
0.0010092729
1.9977249e-05
0.0010093006
2.0414031e-05
0.0010093272
2.0871764e-05
0.0010093516
2.1344992e-05
0.0010093731
2.1834333e-05
0.0010093909
2.2340522e-05
0.0010094037
2.2863006e-05
0.0010094103
2.3400716e-05
0.0010094081
2.3949196e-05
0.001009393
2.450662e-05
0.0010093592
2.5074132e-05
0.0010092997
2.5653284e-05
0.0010092016
2.6242693e-05
0.0010090412
2.683878e-05
0.0010087824
2.7440764e-05
0.001008372
2.8047727e-05
0.0010077125
2.8653794e-05
0.0010066448
2.9243819e-05
0.0010049843
2.9801189e-05
0.0010025601
3.030852e-05
0.00099927718
3.0710501e-05
0.00099517358
3.0936142e-05
0.00099040245
3.0949905e-05
0.00098518838
3.0740258e-05
0.00097975896
3.0330207e-05
0.00097428244
2.9782634e-05
0.00096885184
2.9170106e-05
0.00096350438
2.8542553e-05
0.00095825138
2.7924437e-05
0.00095309815
2.7324092e-05
0.0009480501
2.6739647e-05
0.00094311087
2.6171119e-05
0.00093828074
2.5621744e-05
0.00093355811
2.5091386e-05
0.00092894067
2.457957e-05
0.00092442578
2.4086562e-05
0.00092001068
2.3611089e-05
0.00091569237
2.3152755e-05
0.00091146781
2.2710867e-05
0.00090733397
2.2284652e-05
0.00090328786
2.1873723e-05
0.00089932656
2.147722e-05
0.00089544722
2.1094603e-05
0.00089164706
2.0725332e-05
0.00088792339
2.0368883e-05
0.00088427359
2.0024751e-05
0.00088069514
1.9692458e-05
0.00087718558
1.9371557e-05
0.00087374256
1.9061636e-05
0.00087036377
1.8762318e-05
0.00086704701
1.8473266e-05
0.00086379012
1.8194183e-05
0.00086059099
1.7924855e-05
0.00085744759
1.7665093e-05
0.00085435786
1.7414969e-05
0.00085131982
1.7174363e-05
0.0008483313
1.6944364e-05
0.00084539037
1.6724287e-05
0.00084249405
1.6519667e-05
0.0008396409
1.6325205e-05
0.00083682389
1.6166827e-05
0.00083404544
1.6015468e-05
0.0008312678
1.6039836e-05
0.00082861097
1.5621943e-05
0.00082539023
1.8046146e-05
1.4721589e-05
0.0010401874
1.9349944e-06
-0.0010402552
0.0010401433
2.4267009e-06
0.0010401157
2.9571111e-06
0.0010401003
3.5234935e-06
0.0010400974
4.1398343e-06
0.0010401093
4.8137099e-06
0.0010401377
5.5448374e-06
0.0010401843
6.3308068e-06
0.0010402507
7.1665754e-06
0.0010403375
8.0407809e-06
0.001040444
8.9390154e-06
0.0010405686
9.8446374e-06
0.0010407084
1.0740206e-05
0.0010408602
1.160936e-05
0.0010410203
1.2439054e-05
0.001041185
1.3217229e-05
0.0010413511
1.393834e-05
0.0010415158
1.459713e-05
0.0010416762
1.5190119e-05
0.0010418304
1.5718346e-05
0.0010419775
1.6186221e-05
0.0010421161
1.6593409e-05
0.0010422446
1.6939854e-05
0.0010423618
1.722962e-05
0.0010424668
1.7470461e-05
0.0010425592
1.7671948e-05
0.0010426389
1.7845773e-05
0.0010427063
1.8006129e-05
0.0010427625
1.8169876e-05
0.0010428094
1.8355914e-05
0.0010428496
1.8578603e-05
0.0010428852
1.8847293e-05
0.0010429189
1.9167675e-05
0.0010429522
1.9536389e-05
0.0010429859
1.9943593e-05
0.0010430199
2.0380061e-05
0.0010430537
2.0837963e-05
0.0010430866
2.1312064e-05
0.0010431183
2.1802626e-05
0.0010431485
2.2310325e-05
0.0010431769
2.2834636e-05
0.001043203
2.3374523e-05
0.0010432262
2.3926073e-05
0.0010432451
2.4487728e-05
0.0010432583
2.5060857e-05
0.0010432645
2.5647151e-05
0.0010432612
2.6245968e-05
0.0010432445
2.6855479e-05
0.0010432084
2.7476825e-05
0.001043145
2.8111204e-05
0.0010430411
2.875765e-05
0.0010428729
2.9411992e-05
0.0010426024
3.0071692e-05
0.0010421745
3.0736417e-05
0.0010414878
3.1397263e-05
0.0010403867
3.2037209e-05
0.0010386976
3.2639023e-05
0.0010362626
3.3175214e-05
0.0010330113
3.3581536e-05
0.0010289957
3.3798188e-05
0.0010243668
3.3799024e-05
0.0010193339
3.3575513e-05
0.0010140942
3.3164113e-05
0.0010087867
3.263154e-05
0.0010034883
3.2038041e-05
0.00099823509
3.1424377e-05
0.00099304581
3.0811022e-05
0.00098793421
3.0202984e-05
0.00098291019
2.960359e-05
0.00097797925
2.9017506e-05
0.00097314377
2.8446566e-05
0.00096840441
2.7892116e-05
0.00096376087
2.7354406e-05
0.00095921215
2.6833376e-05
0.00095475665
2.632922e-05
0.00095039247
2.58414e-05
0.00094611747
2.53696e-05
0.00094192938
2.4913429e-05
0.00093782581
2.4472453e-05
0.00093380435
2.404621e-05
0.00092986257
2.3634233e-05
0.00092599806
2.3236066e-05
0.00092220842
2.2851276e-05
0.00091849129
2.2479454e-05
0.00091484433
2.2120227e-05
0.00091126525
2.1773259e-05
0.0009077518
2.1438302e-05
0.00090430177
2.111513e-05
0.00090091291
2.0803825e-05
0.00089758306
2.0504216e-05
0.00089430984
2.0217583e-05
0.00089109112
1.9943006e-05
0.0008879237
1.9687086e-05
0.00088480592
1.9442985e-05
0.00088173044
1.9242304e-05
0.00087869981
1.9046106e-05
0.00087567373
1.9065907e-05
0.00087278388
1.8511797e-05
0.00086927662
2.1553408e-05
1.7222527e-05
0.0010749668
2.0022121e-06
-0.001075034
0.0010749203
2.4731679e-06
0.0010748897
2.9877071e-06
0.0010748716
3.5416161e-06
0.0010748665
4.1449305e-06
0.0010748765
4.803768e-06
0.0010749032
5.518077e-06
0.0010749485
6.2855455e-06
0.0010750138
7.1013032e-06
0.0010750995
7.9550362e-06
0.0010752052
8.8333269e-06
0.0010753292
9.7206232e-06
0.0010754689
1.0600482e-05
0.0010756211
1.1457229e-05
0.0010757821
1.2277993e-05
0.0010759483
1.305107e-05
0.0010761164
1.3770179e-05
0.0010762836
1.4429955e-05
0.001076447
1.5026745e-05
0.0010766045
1.556087e-05
0.0010767549
1.6035769e-05
0.001076897
1.645136e-05
0.0010770291
1.6807763e-05
0.0010771499
1.7108801e-05
0.0010772586
1.7361775e-05
0.0010773546
1.7575881e-05
0.001077438
1.7762411e-05
0.001077509
1.7935078e-05
0.0010775689
1.8110056e-05
0.0010776195
1.8305312e-05
0.0010776632
1.8534892e-05
0.0010777024
1.8808083e-05
0.0010777396
1.91305e-05
0.0010777764
1.9499518e-05
0.0010778137
1.9906307e-05
0.0010778515
2.034224e-05
0.0010778895
2.0799959e-05
0.0010779272
2.1274443e-05
0.0010779642
2.1765631e-05
0.0010780004
2.2274071e-05
0.0010780358
2.2799227e-05
0.0010780703
2.3340068e-05
0.0010781033
2.3893058e-05
0.0010781343
2.4456717e-05
0.0010781628
2.5032356e-05
0.0010781883
2.5621643e-05
0.0010782101
2.6224152e-05
0.0010782271
2.6838513e-05
0.0010782377
2.74662e-05
0.0010782401
2.8108814e-05
0.0010782316
2.876613e-05
0.0010782078
2.9435855e-05
0.0010781615
3.0117995e-05
0.0010780833
3.0814548e-05
0.0010779573
3.1523288e-05
0.0010777549
3.2239593e-05
0.0010774328
3.2961145e-05
0.0010769231
3.3684907e-05
0.0010761077
3.4396941e-05
0.0010748283
3.5077613e-05
0.0010729182
3.5709083e-05
0.0010702563
3.6237436e-05
0.00106682
3.6600372e-05
0.0010626915
3.6760037e-05
0.0010580392
3.6690354e-05
0.001053057
3.6406579e-05
0.0010479056
3.5962466e-05
0.0010426895
3.5419119e-05
0.0010374667
3.4826392e-05
0.0010322704
3.421379e-05
0.0010271233
3.3593595e-05
0.0010220417
3.2973729e-05
0.001017036
3.2360086e-05
0.0010121126
3.1756783e-05
0.0010072752
3.1166655e-05
0.0010025258
3.0590816e-05
0.00099786518
3.0030207e-05
0.00099329325
2.9485355e-05
0.00098880924
2.8956463e-05
0.00098441194
2.8443517e-05
0.0009800998
2.7946374e-05
0.00097587105
2.7464809e-05
0.00097172378
2.6998552e-05
0.00096765593
2.6547304e-05
0.00096366539
2.6110767e-05
0.00095974999
2.5688653e-05
0.00095590754
2.5280752e-05
0.00095213582
2.4886855e-05
0.00094843255
2.4507094e-05
0.00094479548
2.4141288e-05
0.00094122213
2.379093e-05
0.00093771024
2.3454898e-05
0.00093425646
2.3140867e-05
0.00093085894
2.28405e-05
0.00092751011
2.2591138e-05
0.0009242126
2.2343617e-05
0.00092092368
2.2354823e-05
0.00091778665
2.1648824e-05
0.00091397799
2.5362074e-05
1.9922852e-05
0.0011109087
2.0683554e-06
-0.0011109749
0.001110861
2.5208848e-06
0.0011108285
3.020249e-06
0.0011108085
3.5615334e-06
0.0011108018
4.1516559e-06
0.0011108102
4.7954266e-06
0.0011108354
5.4928809e-06
0.0011108791
6.2418091e-06
0.0011109428
7.0375518e-06
0.0011110271
7.8707431e-06
0.0011111315
8.7289438e-06
0.0011112545
9.5976507e-06
0.0011113936
1.0461398e-05
0.0011115456
1.1305216e-05
0.0011117071
1.2116474e-05
0.0011118744
1.2883795e-05
0.0011120442
1.3600335e-05
0.0011122136
1.4260571e-05
0.0011123797
1.4860666e-05
0.0011125403
1.5400294e-05
0.001112694
1.5882018e-05
0.0011128395
1.6305883e-05
0.0011129751
1.6672143e-05
0.0011130995
1.6984384e-05
0.0011132118
1.7249463e-05
0.0011133115
1.7476192e-05
0.0011133985
1.7675447e-05
0.0011134731
1.7860451e-05
0.0011135365
1.8046697e-05
0.0011135905
1.8251267e-05
0.0011136376
1.8487858e-05
0.00111368
1.8765676e-05
0.0011137202
1.9090285e-05
0.00111376
1.945973e-05
0.0011138001
1.9866142e-05
0.0011138409
2.0301501e-05
0.0011138819
2.0758907e-05
0.0011139228
2.1233555e-05
0.0011139633
2.1725102e-05
0.0011140035
2.2233952e-05
0.0011140431
2.2759541e-05
0.0011140824
2.3300844e-05
0.0011141208
2.3854638e-05
0.001114158
2.4419492e-05
0.0011141938
2.4996587e-05
0.0011142279
2.5587503e-05
0.0011142601
2.6191937e-05
0.0011142899
2.6808736e-05
0.0011143167
2.7439373e-05
0.00111434
2.8085516e-05
0.001114359
2.8747174e-05
0.0011143722
2.9422629e-05
0.0011143778
3.0112441e-05
0.0011143733
3.081899e-05
0.0011143553
3.1541297e-05
0.0011143178
3.2277072e-05
0.0011142521
3.3026869e-05
0.0011141456
3.3791467e-05
0.0011139756
3.4566893e-05
0.001113705
3.5348243e-05
0.0011132798
3.6134259e-05
0.0011126043
3.6912933e-05
0.0011115393
3.766537e-05
0.0011099257