/*--------------------------------*- C++ -*----------------------------------*\
  =========                 |
  \\      /  F ield         | OpenFOAM: The Open Source CFD Toolbox
   \\    /   O peration     | Website:  https://openfoam.org
    \\  /    A nd           | Version:  12
     \\/     M anipulation  |
\*---------------------------------------------------------------------------*/
FoamFile
{
    format      ascii;
    class       volVectorField;
    location    "1800";
    object      U;
}
// * * * * * * * * * * * * * * * * * * * * * * * * * * * * * * * * * * * * * //

dimensions      [0 1 -1 0 0 0 0];

internalField   nonuniform List<vector> 
7480
(
(0.99633674 0.00031406609 0)
(0.99395036 0.00034221051 -1.7171328e-20)
(0.99091171 0.00051164666 0)
(0.98718698 0.00068516067 0)
(0.98269497 0.00086846396 0)
(0.97736564 0.00099881673 -1.6094052e-17)
(0.9710991 0.0010806633 -2.9627045e-19)
(0.96387042 0.0013107702 0)
(0.95562589 0.0015539881 0)
(0.94634708 0.0017885677 0)
(0.93606918 0.0020076373 0)
(0.92486653 0.0022021244 0)
(0.91284514 0.0023631992 0)
(0.90014033 0.0024782687 0)
(0.88690104 0.0025656806 0)
(0.87328301 0.0025653586 0)
(0.85945676 0.0025402912 0)
(0.84553677 0.0024673027 0)
(0.83170249 0.0023500578 0)
(0.81807017 0.0022005754 0)
(0.80476274 0.0020207564 0)
(0.79191539 0.0018146903 0)
(0.77968506 0.0015937233 0)
(0.7682 0.0013685334 0)
(0.75756157 0.0011448973 0)
(0.74784952 0.00092879815 0)
(0.73911325 0.00072497513 0)
(0.73137388 0.00054015271 0)
(0.7246172 0.00038159864 0)
(0.71877441 0.00025566319 0)
(0.71372485 0.0001677774 0)
(0.7093155 0.00011754237 0)
(0.70537835 9.8656674e-05 0)
(0.70175615 0.00010133161 0)
(0.69832974 0.00011441035 0)
(0.69502595 0.00012852141 0)
(0.69180904 0.00013796241 0)
(0.68866605 0.00014078254 0)
(0.68559029 0.00013865877 0)
(0.68257054 0.00013466013 0)
(0.67959079 0.00013118404 0)
(0.67663605 0.00012907359 0)
(0.67369937 0.0001277989 0)
(0.67078404 0.00012646612 0)
(0.66789856 0.00012451957 0)
(0.66505017 0.00012184235 0)
(0.66224183 0.00011862414 0)
(0.65947366 0.00011511976 0)
(0.65674534 0.00011151348 0)
(0.65405709 0.0001078569 0)
(0.65140934 0.00010415794 0)
(0.64880258 0.00010043192 0)
(0.646237 9.6735148e-05 0)
(0.64371201 9.3132976e-05 0)
(0.64122661 8.963322e-05 0)
(0.6387803 8.6223896e-05 0)
(0.63637276 8.2918613e-05 0)
(0.63400311 7.9735261e-05 0)
(0.6316703 7.6660352e-05 0)
(0.62937386 7.368692e-05 0)
(0.62711291 7.0840515e-05 0)
(0.62488618 6.8112376e-05 0)
(0.62269279 6.5491566e-05 0)
(0.62053189 6.298468e-05 0)
(0.61840244 6.0577587e-05 0)
(0.61630372 5.8262141e-05 0)
(0.61423492 5.6044578e-05 0)
(0.61219509 5.3916121e-05 0)
(0.6101835 5.1871847e-05 0)
(0.60819934 4.9914299e-05 0)
(0.60624172 4.803657e-05 0)
(0.60430988 4.6236467e-05 0)
(0.60240301 4.4510791e-05 0)
(0.60052038 4.2855129e-05 0)
(0.59866126 4.1267326e-05 0)
(0.59682495 3.9743123e-05 0)
(0.59501077 3.828009e-05 0)
(0.59321809 3.6875738e-05 0)
(0.59144627 3.552749e-05 0)
(0.58969469 3.4232877e-05 0)
(0.58796278 3.2989546e-05 0)
(0.58624995 3.1795309e-05 0)
(0.58455565 3.0648105e-05 0)
(0.58287933 2.954602e-05 0)
(0.58122047 2.8487228e-05 0)
(0.57957853 2.7470091e-05 0)
(0.577953 2.6492985e-05 0)
(0.57634333 2.5554779e-05 0)
(0.57474904 2.4653955e-05 0)
(0.5731694 2.379079e-05 0)
(0.57160414 2.2962191e-05 0)
(0.57005175 2.2174754e-05 0)
(0.56851314 2.1416352e-05 0)
(0.56698286 2.07245e-05 0)
(0.56546885 2.0028365e-05 0)
(0.56394588 1.9563119e-05 0)
(0.56245708 1.8314519e-05 -1.167857e-20)
(0.56087334 3.200799e-05 8.3374532e-20)
(0.5595708 1.829127e-05 -2.5460704e-19)
(0.55711047 3.3707628e-05 -4.2758027e-18)
(0.99784344 0.00049208436 0)
(0.99774213 0.00072930944 0)
(0.99764163 0.00093119005 0)
(0.99748631 0.0010915441 -5.3824739e-19)
(0.9972774 0.0012414467 0)
(0.99702045 0.0013948624 0)
(0.99669904 0.0015770734 0)
(0.99627414 0.001769394 0)
(0.99569647 0.0019220725 0)
(0.99491136 0.0020460345 0)
(0.99385361 0.0021461472 0)
(0.99245003 0.0022205451 0)
(0.99062586 0.0022683183 0)
(0.9883088 0.0022930123 0)
(0.98543609 0.0022901986 0)
(0.98195332 0.0022782694 0)
(0.97782441 0.0022516525 0)
(0.97301145 0.0022141393 0)
(0.96751295 0.0021688108 0)
(0.96131667 0.0021205797 0)
(0.95442484 0.0020706857 0)
(0.94683166 0.0020123088 0)
(0.93857588 0.001932968 0)
(0.92975843 0.0018344839 0)
(0.92047688 0.0017244388 0)
(0.91084551 0.0016037023 0)
(0.9010061 0.0014741478 0)
(0.89111209 0.0013365548 0)
(0.88132857 0.0011919127 0)
(0.87183066 0.0010418113 0)
(0.86281703 0.00089470163 0)
(0.85444418 0.00076110673 0)
(0.84678266 0.0006463972 0)
(0.8398151 0.00055527471 0)
(0.8334664 0.00048927097 0)
(0.82762543 0.00044656322 0)
(0.8221742 0.00042229585 0)
(0.81701824 0.00040923871 0)
(0.81209555 0.00040006852 0)
(0.8073712 0.00039002923 0)
(0.80282728 0.00037734449 0)
(0.79845127 0.00036218387 0)
(0.79422964 0.00034535544 0)
(0.79014637 0.00032806376 0)
(0.78618387 0.00031150856 0)
(0.78232541 0.00029630869 0)
(0.77855824 0.00028239984 0)
(0.77487554 0.0002694241 0)
(0.77127447 0.00025716566 0)
(0.7677526 0.00024549823 0)
(0.76430617 0.0002343691 0)
(0.76093092 0.0002237365 0)
(0.75762355 0.00021359623 0)
(0.75438157 0.00020395706 0)
(0.7512027 0.00019476034 0)
(0.74808497 0.00018596343 0)
(0.7450265 0.00017757946 0)
(0.74202519 0.0001696135 0)
(0.73907896 0.00016202171 0)
(0.7361861 0.00015477736 0)
(0.73334499 0.00014790137 0)
(0.73055382 0.00014135453 0)
(0.72781115 0.00013511257 0)
(0.72511556 0.00012918548 0)
(0.72246541 0.00012353957 0)
(0.71985935 0.00011815628 0)
(0.71729603 0.00011304061 0)
(0.71477398 0.00010816734 0)
(0.71229194 0.0001035228 0)
(0.70984866 9.9105968e-05 0)
(0.70744283 9.4898057e-05 0)
(0.70507324 9.0890863e-05 0)
(0.70273872 8.7073901e-05 0)
(0.70043814 8.3435979e-05 0)
(0.6981704 7.9969981e-05 0)
(0.69593442 7.666457e-05 0)
(0.69372919 7.3512182e-05 0)
(0.69155375 7.0505095e-05 0)
(0.68940713 6.763579e-05 0)
(0.68728844 6.4897231e-05 0)
(0.68519678 6.2282776e-05 0)
(0.68313132 5.9786223e-05 0)
(0.68109123 5.7401762e-05 0)
(0.67907571 5.5123979e-05 0)
(0.67708399 5.2947771e-05 0)
(0.67511531 5.0868483e-05 0)
(0.67316891 4.8881661e-05 0)
(0.67124404 4.6983709e-05 0)
(0.66933998 4.5170558e-05 0)
(0.66745584 4.3440841e-05 0)
(0.6655911 4.1789647e-05 0)
(0.66374405 4.0224076e-05 0)
(0.66191538 3.8729191e-05 0)
(0.66009932 3.7351897e-05 0)
(0.65830376 3.6010125e-05 0)
(0.65650257 3.4966527e-05 0)
(0.65473988 3.3852389e-05 1.1846491e-20)
(0.65287982 3.51599e-05 0)
(0.65132423 3.019224e-05 0)
(0.6484633 3.8918678e-05 0)
(0.99791307 0.00049612266 0)
(0.99788195 0.00069613052 0)
(0.99787394 0.00084994747 0)
(0.99785088 0.00098931824 0)
(0.99782045 0.0011430764 0)
(0.99779819 0.0013172683 0)
(0.99778955 0.0015031078 0)
(0.99779419 0.0016891642 0)
(0.99781566 0.0018793385 0)
(0.99785653 0.0020787794 0)
(0.99791399 0.0022817243 0)
(0.99798264 0.0024792282 0)
(0.99805448 0.0026643472 0)
(0.99811873 0.0028310061 0)
(0.99816339 0.0029767734 0)
(0.99817315 0.0030978264 0)
(0.99813049 0.0031928668 0)
(0.99801786 0.0032604785 0)
(0.99781139 0.0033009152 0)
(0.99748329 0.0033114413 0)
(0.9970001 0.0032973594 0)
(0.99632325 0.0032561883 0)
(0.99535559 0.0031899807 0)
(0.99396546 0.0031004789 0)
(0.99204171 0.002988648 0)
(0.98947018 0.0028572879 0)
(0.98612883 0.0027099024 0)
(0.98189931 0.0025512878 0)
(0.97667509 0.0023881017 0)
(0.97037973 0.0022280967 0)
(0.96297142 0.0020625938 0)
(0.95459932 0.0018898982 0)
(0.94548934 0.0017225568 0)
(0.93596594 0.0015620669 0)
(0.92638007 0.0014078607 0)
(0.91705795 0.0012580508 0)
(0.90826394 0.0011158217 0)
(0.90016226 0.000990149 0)
(0.89276956 0.00088682973 0)
(0.8860027 0.00080720687 0)
(0.87973797 0.0007494741 0)
(0.87385265 0.00070893753 0)
(0.86825725 0.0006785545 0)
(0.86289969 0.00065167713 0)
(0.85775346 0.00062432423 0)
(0.85280294 0.00059570423 0)
(0.8480338 0.00056645323 0)
(0.84343057 0.00053750978 0)
(0.83897689 0.00050986455 0)
(0.83465688 0.00048402936 0)
(0.83045704 0.00045997959 0)
(0.8263677 0.00043740756 0)
(0.82238251 0.00041611167 0)
(0.81849613 0.00039602385 0)
(0.81470286 0.00037702027 0)
(0.81099729 0.00035900229 0)
(0.80737492 0.00034194291 0)
(0.80383182 0.00032580234 0)
(0.80036443 0.00031048416 0)
(0.79696963 0.00029593478 0)
(0.79364441 0.00028217044 0)
(0.7903858 0.0002691099 0)
(0.78719137 0.00025669881 0)
(0.78405882 0.00024493914 0)
(0.78098571 0.00023377005 0)
(0.77796994 0.00022315284 0)
(0.7750095 0.00021308417 0)
(0.77210232 0.0002035172 0)
(0.76924659 0.00019442257 0)
(0.76644053 0.00018579025 0)
(0.76368238 0.00017758508 0)
(0.76097048 0.00016978761 0)
(0.75830324 0.00016237539 0)
(0.75567915 0.00015532572 0)
(0.75309674 0.00014862238 0)
(0.75055458 0.00014224319 0)
(0.74805131 0.00013617167 0)
(0.74558564 0.00013039152 0)
(0.74315631 0.00012488713 0)
(0.74076213 0.00011964386 0)
(0.73840193 0.00011464794 0)
(0.73607459 0.00010988649 0)
(0.73377904 0.00010534746 0)
(0.73151424 0.0001010196 0)
(0.72927917 9.6892381e-05 0)
(0.72707284 9.2956063e-05 0)
(0.7248943 8.9201567e-05 0)
(0.72274257 8.562097e-05 0)
(0.72061674 8.2206642e-05 0)
(0.71851571 7.8953396e-05 0)
(0.71643878 7.585518e-05 0)
(0.71438404 7.2914782e-05 0)
(0.712352 7.0124689e-05 0)
(0.71033672 6.7520548e-05 0)
(0.70834583 6.506009e-05 0)
(0.70635312 6.2977934e-05 0)
(0.70440243 6.1068934e-05 8.2785001e-21)
(0.70235546 5.9775413e-05 0)
(0.70062951 5.8606005e-05 0)
(0.69749539 6.210517e-05 -2.5806313e-20)
(0.99794449 0.00050824803 0)
(0.99791718 0.00069795328 0)
(0.99791576 0.0008595995 0)
(0.99790861 0.0010127671 0)
(0.99789887 0.00117412 0)
(0.99789835 0.0013456313 0)
(0.9979129 0.0015224836 0)
(0.99794465 0.0017043451 0)
(0.99799735 0.0018912375 0)
(0.99807312 0.0020753304 0)
(0.99817121 0.0022489296 0)
(0.99828995 0.0024058714 0)
(0.9984261 0.002542003 0)
(0.99857495 0.0026546066 0)
(0.99873182 0.0027432142 0)
(0.99889138 0.0028056675 0)
(0.99904878 0.0028459845 0)
(0.99920129 0.0028656672 0)
(0.99934417 0.0028655422 0)
(0.99947244 0.0028526686 0)
(0.99958346 0.0028291546 0)
(0.99967463 0.0027971068 0)
(0.99974083 0.0027577309 0)
(0.99977399 0.0027129444 0)
(0.99976435 0.0026652707 0)
(0.99969969 0.0026166664 0)
(0.99956284 0.0025690952 0)
(0.99933103 0.0025241016 0)
(0.99897219 0.0024820938 0)
(0.99843761 0.0024418861 0)
(0.99764762 0.0024024947 0)
(0.99640032 0.0023610605 0)
(0.99450599 0.0023116517 0)
(0.99176384 0.0022500476 0)
(0.98799288 0.0021744781 0)
(0.98306692 0.0020891119 0)
(0.9769267 0.0019902103 0)
(0.96970268 0.0018714949 0)
(0.96168914 0.0017406577 0)
(0.9532514 0.0016055561 0)
(0.94476271 0.001469816 0)
(0.93654078 0.001337115 0)
(0.92880745 0.0012159891 0)
(0.92163168 0.001112582 0)
(0.91497017 0.0010277903 0)
(0.90872624 0.00096041118 0)
(0.90280255 0.00090669359 0)
(0.89713259 0.00086107785 0)
(0.89168112 0.00081901183 0)
(0.8864309 0.00077833139 0)
(0.88136921 0.00073868366 0)
(0.87648233 0.00070037395 0)
(0.87175527 0.00066397606 0)
(0.86717318 0.00062988953 0)
(0.86272311 0.0005980131 0)
(0.85839534 0.00056806423 0)
(0.85418258 0.00053988488 0)
(0.85007821 0.00051335941 0)
(0.84607582 0.00048832395 0)
(0.84216975 0.00046466718 0)
(0.83835495 0.00044236148 0)
(0.83462682 0.0004212624 0)
(0.83098144 0.00040127472 0)
(0.82741514 0.00038238079 0)
(0.82392431 0.00036448167 0)
(0.82050588 0.00034750778 0)
(0.81715692 0.00033143848 0)
(0.81387458 0.00031619951 0)
(0.8106563 0.00030173949 0)
(0.80749967 0.0002880335 0)
(0.80440232 0.00027502604 0)
(0.80136207 0.00026268195 0)
(0.79837682 0.00025096321 0)
(0.79544461 0.00023983274 0)
(0.79256352 0.00022926218 0)
(0.78973172 0.00021921602 0)
(0.78694749 0.00020966623 0)
(0.78420916 0.00020058571 0)
(0.78151514 0.00019194871 0)
(0.77886389 0.00018373107 0)
(0.77625397 0.00017591008 0)
(0.77368394 0.00016846457 0)
(0.77115247 0.00016137472 0)
(0.76865823 0.00015462202 0)
(0.76619997 0.00014818919 0)
(0.76377645 0.00014206022 0)
(0.76138648 0.00013622031 0)
(0.75902887 0.0001306561 0)
(0.75670249 0.00012535561 0)
(0.75440604 0.0001203086 0)
(0.7521386 0.00011550835 0)
(0.7498981 0.00011095004 0)
(0.74768482 0.00010663916 0)
(0.74549275 0.00010258626 0)
(0.74332909 9.8820964e-05 0)
(0.74116797 9.5476191e-05 0)
(0.73905241 9.272158e-05 6.6498983e-21)
(0.7368432 8.9923078e-05 0)
(0.73497031 9.2590749e-05 0)
(0.73159919 8.8884824e-05 2.0924985e-20)
(0.99797748 0.00052484774 0)
(0.99794319 0.0007031149 0)
(0.99793749 0.00086309779 0)
(0.99793233 0.0010147726 0)
(0.99792798 0.0011718126 0)
(0.99793353 0.0013378196 0)
(0.99795418 0.0015105712 0)
(0.99799202 0.0016888759 0)
(0.99804998 0.0018700868 0)
(0.99813007 0.0020482307 0)
(0.99823219 0.0022190129 0)
(0.99835502 0.0023779907 0)
(0.99849572 0.0025211297 0)
(0.99865018 0.0026453725 0)
(0.99881437 0.0027494015 0)
(0.99898336 0.0028315266 0)
(0.9991529 0.0028939929 0)
(0.99932041 0.0029365574 0)
(0.99948248 0.0029606955 0)
(0.99963601 0.0029671451 0)
(0.99977971 0.0029599385 0)
(0.9999133 0.0029385847 0)
(1.0000349 0.0029037705 0)
(1.0001421 0.0028570395 0)
(1.0002331 0.002800959 0)
(1.0003062 0.0027382132 0)
(1.0003592 0.0026711011 0)
(1.00039 0.0026022121 0)
(1.0003969 0.0025346233 0)
(1.0003782 0.0024718211 0)
(1.0003325 0.0024165875 0)
(1.0002531 0.0023705612 0)
(1.0001287 0.0023346837 0)
(0.99994001 0.0023083025 0)
(0.9996582 0.0022893372 0)
(0.99923378 0.0022728961 0)
(0.99859525 0.0022536466 0)
(0.99755588 0.0022274037 0)
(0.99588491 0.0021894992 0)
(0.99336358 0.0021369738 0)
(0.9898089 0.0020708465 0)
(0.98511073 0.0019920668 0)
(0.97929639 0.0018942091 0)
(0.97261056 0.0017802487 0)
(0.96537913 0.0016600242 0)
(0.95795438 0.0015372791 0)
(0.95064752 0.001418089 0)
(0.9436605 0.0013100208 0)
(0.93705706 0.0012158943 0)
(0.9308098 0.0011361178 0)
(0.92485411 0.0010691259 0)
(0.91913415 0.001011214 0)
(0.91361722 0.00095867236 0)
(0.90828758 0.00090926791 0)
(0.90313505 0.00086216426 0)
(0.89814901 0.00081726497 0)
(0.89331732 0.00077487906 0)
(0.88862755 0.00073515569 0)
(0.88406896 0.0006978904 0)
(0.87963336 0.0006628449 0)
(0.87531389 0.00062992007 0)
(0.87110397 0.00059889553 0)
(0.86699767 0.00056961857 0)
(0.86298961 0.00054202875 0)
(0.85907482 0.00051596621 0)
(0.85524903 0.00049131637 0)
(0.85150822 0.00046803013 0)
(0.84784855 0.00044599501 0)
(0.84426662 0.00042512775 0)
(0.84075922 0.00040538023 0)
(0.83732332 0.00038667009 0)
(0.83395608 0.00036894047 0)
(0.83065486 0.00035213265 0)
(0.82741715 0.00033619055 0)
(0.82424057 0.00032106963 0)
(0.82112282 0.00030671747 0)
(0.81806176 0.00029309128 0)
(0.81505534 0.0002801502 0)
(0.8121016 0.00026785564 0)
(0.80919866 0.00025617146 0)
(0.80634471 0.00024506377 0)
(0.80353805 0.00023450098 0)
(0.800777 0.00022445358 0)
(0.79805999 0.00021489403 0)
(0.79538548 0.00020579667 0)
(0.79275198 0.00019713766 0)
(0.79015806 0.00018889513 0)
(0.78760228 0.00018104892 0)
(0.78508331 0.00017358171 0)
(0.78259962 0.00016647689 0)
(0.78015008 0.00015972641 0)
(0.77773246 0.00015331595 0)
(0.77534677 0.00014726556 0)
(0.77298698 0.00014155454 0)
(0.77065983 0.0001362973 0)
(0.76833983 0.00013149052 0)
(0.76606918 0.00012781068 5.7563711e-21)
(0.76370799 0.00012298625 4.054933e-20)
(0.76169865 0.00013058194 0)
(0.75810715 0.00011724948 0)
(0.99801571 0.00054371062 0)
(0.99797336 0.00071022719 0)
(0.99795993 0.00086594945 0)
(0.99795243 0.0010157826 0)
(0.99794925 0.0011706345 0)
(0.99795685 0.0013337692 0)
(0.99797945 0.0015033281 0)
(0.99801894 0.0016776106 0)
(0.99807784 0.0018542084 0)
(0.99815804 0.0020284341 0)
(0.99825949 0.0021959868 0)
(0.99838085 0.0023521249 0)
(0.99851947 0.0024925921 0)
(0.99867156 0.0026142307 0)
(0.9988333 0.0027155266 0)
(0.99900038 0.0027949926 0)
(0.99916888 0.0028540881 0)
(0.99933612 0.0028930462 0)
(0.9994991 0.0029127371 0)
(0.99965493 0.0029160673 0)
(0.99980251 0.0029052183 0)
(0.9999415 0.0028811811 0)
(1.0000704 0.0028451898 0)
(1.0001872 0.0027992036 0)
(1.0002903 0.0027455879 0)
(1.000379 0.0026866028 0)
(1.0004531 0.0026248119 0)
(1.0005124 0.0025627655 0)
(1.000557 0.0025033574 0)
(1.0005882 0.0024497858 0)
(1.0006077 0.0024033649 0)
(1.0006172 0.0023644392 0)
(1.000618 0.0023329313 0)
(1.0006101 0.0023071512 0)
(1.0005919 0.0022845306 0)
(1.0005591 0.002263318 0)
(1.000506 0.0022430683 0)
(1.0004213 0.0022238328 0)
(1.0002845 0.0022061368 0)
(1.0000672 0.0021903451 0)
(0.99972715 0.0021756089 0)
(0.99919929 0.002158676 0)
(0.99834726 0.0021365595 0)
(0.9969453 0.0021053291 0)
(0.99477895 0.0020609536 0)
(0.99166761 0.0020044046 0)
(0.98749229 0.0019317128 0)
(0.98232568 0.0018398555 0)
(0.97639169 0.0017366683 0)
(0.96998819 0.0016280984 0)
(0.96342636 0.0015190947 0)
(0.95695451 0.0014163696 0)
(0.95069983 0.0013234228 0)
(0.94469128 0.0012413862 0)
(0.93890488 0.0011697725 0)
(0.9333088 0.0011061974 0)
(0.92788299 0.0010480724 0)
(0.92261823 0.0009937179 0)
(0.91750877 0.00094228783 0)
(0.91254777 0.00089359931 0)
(0.90772637 0.00084781493 0)
(0.90303548 0.00080479663 0)
(0.89846764 0.00076432672 0)
(0.89401657 0.00072628211 0)
(0.88967641 0.00069043278 0)
(0.88544173 0.00065661419 0)
(0.88130747 0.00062473813 0)
(0.8772689 0.00059463931 0)
(0.87332183 0.00056619189 0)
(0.86946235 0.00053931607 0)
(0.86568674 0.00051389445 0)
(0.86199155 0.00048984112 0)
(0.85837359 0.0004670703 0)
(0.85482981 0.00044550149 0)
(0.85135736 0.00042506911 0)
(0.8479535 0.00040569959 0)
(0.84461568 0.00038733159 0)
(0.84134144 0.00036990716 0)
(0.83812847 0.00035337178 0)
(0.83497452 0.00033767455 0)
(0.83187747 0.00032276785 0)
(0.82883528 0.00030860732 0)
(0.825846 0.00029515156 0)
(0.82290776 0.00028236202 0)
(0.82001875 0.00027020281 0)
(0.81717721 0.00025864056 0)
(0.81438148 0.00024764474 0)
(0.81162989 0.00023718695 0)
(0.80892086 0.00022724321 0)
(0.80625265 0.00021778927 0)
(0.80362393 0.00020881477 0)
(0.80103227 0.00020029442 0)
(0.79847747 0.00019226297 0)
(0.7959534 0.00018466513 0)
(0.79346641 0.00017770613 0)
(0.79099135 0.00017122737 0)
(0.78856972 0.00016648294 0)
(0.78606068 0.0001591031 0)
(0.78391979 0.00017265255 5.6207942e-20)
(0.78011525 0.00014766977 0)
(0.99805769 0.00056415172 0)
(0.9980094 0.00071975895 0)
(0.99798811 0.00087028443 0)
(0.99797643 0.001017679 0)
(0.99797206 0.00117001 0)
(0.99797946 0.0013298101 0)
(0.99800194 0.0014955344 0)
(0.99804121 0.0016655369 0)
(0.99809944 0.0018376307 0)
(0.99817827 0.002007605 0)
(0.99827764 0.0021711786 0)
(0.99839627 0.0023238832 0)
(0.99853169 0.002461737 0)
(0.99868039 0.0025817293 0)
(0.99883869 0.0026822908 0)
(0.99900258 0.0027620706 0)
(0.99916833 0.0028220875 0)
(0.99933325 0.0028627522 0)
(0.99949447 0.0028850147 0)
(0.99964928 0.0028909489 0)
(0.99979651 0.0028831503 0)
(0.99993566 0.0028625318 0)
(1.0000653 0.0028300298 0)
(1.0001837 0.0027874193 0)
(1.0002896 0.0027369791 0)
(1.0003824 0.0026810053 0)
(1.0004619 0.0026219093 0)
(1.0005281 0.0025622356 0)
(1.0005813 0.0025046267 0)
(1.0006232 0.0024517378 0)
(1.0006562 0.0024051226 0)
(1.0006827 0.0023654288 0)
(1.0007048 0.0023329142 0)
(1.0007246 0.0023063668 0)
(1.0007425 0.0022837697 0)
(1.0007581 0.0022637861 0)
(1.0007701 0.0022453529 0)
(1.0007765 0.0022276041 0)
(1.0007745 0.0022104477 0)
(1.0007605 0.0021937867 0)
(1.0007297 0.0021772004 0)
(1.0006759 0.0021606922 0)
(1.0005884 0.0021441824 0)
(1.0004443 0.0021274888 0)
(1.0002116 0.0021107912 0)
(0.99984119 0.0020931643 0)
(0.99926172 0.0020732139 0)
(0.99830236 0.0020485831 0)
(0.99675991 0.0020149734 0)
(0.99444238 0.0019703862 0)
(0.99119599 0.00191181 0)
(0.98699926 0.001835484 0)
(0.9819979 0.0017461036 0)
(0.97642797 0.0016498403 0)
(0.97056829 0.0015518926 0)
(0.96465737 0.0014579338 0)
(0.95883731 0.0013705911 0)
(0.95316182 0.0012913847 0)
(0.94763477 0.0012202032 0)
(0.94224645 0.0011555309 0)
(0.93699114 0.0010957018 0)
(0.93186783 0.0010395061 0)
(0.92687565 0.0009863737 0)
(0.9220109 0.0009362819 0)
(0.91726799 0.00088909715 0)
(0.91264157 0.00084464255 0)
(0.90812693 0.00080279065 0)
(0.90371955 0.00076332311 0)
(0.89941512 0.00072607489 0)
(0.89520945 0.00069093275 0)
(0.89109855 0.00065773766 0)
(0.8870787 0.00062636934 0)
(0.88314636 0.00059671026 0)
(0.87929819 0.00056865037 0)
(0.87553098 0.00054209815 0)
(0.87184169 0.00051695459 0)
(0.86822745 0.00049313604 0)
(0.86468551 0.00047056401 0)
(0.86121323 0.00044916504 0)
(0.85780809 0.0004288706 0)
(0.85446768 0.00040961674 0)
(0.85118969 0.00039134393 0)
(0.84797189 0.0003739967 0)
(0.84481216 0.0003575234 0)
(0.84170844 0.00034187602 0)
(0.83865874 0.0003270099 0)
(0.83566115 0.00031288421 0)
(0.83271379 0.0002994608 0)
(0.82981485 0.00028670759 0)
(0.8269624 0.0002745914 0)
(0.82415488 0.00026309847 0)
(0.82138971 0.00025219125 0)
(0.81866643 0.00024191869 0)
(0.81597888 0.00023218868 0)
(0.81333298 0.0002233008 0)
(0.81070389 0.00021492725 0)
(0.80813257 0.00020895246 0)
(0.80547688 0.00019863205 0)
(0.80320642 0.00021897218 5.2725506e-20)
(0.79919152 0.00018053842 0)
(0.99810121 0.00058549517 0)
(0.99804981 0.00073144946 0)
(0.9980223 0.00087646218 0)
(0.99800622 0.0010206632 0)
(0.99799951 0.001169837 0)
(0.99800535 0.0013258953 0)
(0.99802644 0.0014875529 0)
(0.99806431 0.0016532296 0)
(0.99812083 0.0018208025 0)
(0.99819738 0.0019864167 0)
(0.9982939 0.0021460023 0)
(0.99840919 0.0022953984 0)
(0.99854095 0.0024308321 0)
(0.99868588 0.0025493646 0)
(0.99884046 0.0026493368 0)
(0.9990009 0.0027294486 0)
(0.99916359 0.0027903546 0)
(0.99932583 0.0028324742 0)
(0.99948483 0.0028566677 0)
(0.99963801 0.0028647422 0)
(0.99978409 0.0028590671 0)
(0.99992242 0.002840588 0)
(1.0000516 0.0028103212 0)
(1.0001701 0.0027700019 0)
(1.0002767 0.0027218406 0)
(1.0003708 0.0026680858 0)
(1.0004523 0.0026110766 0)
(1.0005211 0.0025532686 0)
(1.0005779 0.0024972536 0)
(1.0006243 0.0024456608 0)
(1.0006625 0.0024000819 0)
(1.000695 0.002361268 0)
(1.0007242 0.002329357 0)
(1.0007522 0.0023032003 0)
(1.0007801 0.0022810604 0)
(1.0008078 0.0022614825 0)
(1.0008349 0.0022432526 0)
(1.0008605 0.0022256301 0)
(1.0008835 0.0022086321 0)
(1.0009031 0.0021922316 0)
(1.0009185 0.0021763373 0)
(1.0009285 0.002160913 0)
(1.0009315 0.0021454717 0)
(1.000924 0.0021297904 0)
(1.0009013 0.002113958 0)
(1.0008568 0.0020980852 0)
(1.0007826 0.0020821729 0)
(1.0006614 0.0020658274 0)
(1.0004636 0.0020488522 0)
(1.0001464 0.002030894 0)
(0.99964687 0.002011156 0)
(0.99883371 0.0019881277 0)
(0.99752185 0.001958369 0)
(0.99553048 0.0019194434 0)
(0.99270133 0.0018667602 0)
(0.98900679 0.0017977036 0)
(0.98455156 0.0017174688 0)
(0.97953611 0.0016306352 0)
(0.97420634 0.001542466 0)
(0.96876691 0.0014570197 0)
(0.96334546 0.0013763632 0)
(0.95799816 0.0013019191 0)
(0.95274182 0.0012335525 0)
(0.9475818 0.0011703046 0)
(0.94252352 0.0011110643 0)
(0.93757217 0.0010551163 0)
(0.93272963 0.0010022702 0)
(0.92799474 0.00095236455 0)
(0.92336532 0.0009052507 0)
(0.91883895 0.00086080079 0)
(0.91441295 0.0008188244 0)
(0.91008441 0.0007791767 0)
(0.90585032 0.00074171335 0)
(0.90170765 0.00070629517 0)
(0.89765343 0.0006728038 0)
(0.89368471 0.00064111343 0)
(0.88979864 0.00061111612 0)
(0.88599242 0.00058271049 0)
(0.88226335 0.0005558018 0)
(0.87860878 0.00053030171 0)
(0.87502617 0.0005061278 0)
(0.87151305 0.00048320333 0)
(0.86806704 0.00046145683 0)
(0.86468583 0.00044082174 0)
(0.86136719 0.0004212362 0)
(0.85810895 0.00040264262 0)
(0.85490901 0.00038498831 0)
(0.8517653 0.00036822393 0)
(0.84867584 0.00035230793 0)
(0.84563852 0.00033719691 0)
(0.8426516 0.00032287253 0)
(0.83971233 0.00030928384 0)
(0.83682005 0.00029649323 0)
(0.83396853 0.00028437009 0)
(0.83116334 0.00027331055 0)
(0.82837987 0.00026280618 0)
(0.82565873 0.00025542081 0)
(0.82285607 0.0002417926 -1.660934e-20)
(0.82045641 0.000269695 0)
(0.81623134 0.00021607522 -7.6213542e-21)
(0.99814484 0.00060714649 0)
(0.99809258 0.00074465064 0)
(0.99806101 0.00088418374 0)
(0.9980414 0.0010247155 0)
(0.99803222 0.0011703038 0)
(0.99803596 0.0013223655 0)
(0.99805496 0.0014797895 0)
(0.99809067 0.0016410344 0)
(0.99814472 0.0018040218 0)
(0.99821832 0.0019652256 0)
(0.99831141 0.0021208149 0)
(0.99842288 0.0022668812 0)
(0.99855057 0.0023998297 0)
(0.99869139 0.002516793 0)
(0.998842 0.0026160469 0)
(0.99899876 0.0026963151 0)
(0.9991582 0.0027579604 0)
(0.99931759 0.0028013615 0)
(0.99947422 0.0028272894 0)
(0.99962557 0.0028373691 0)
(0.99977027 0.0028337328 0)
(0.99990752 0.0028174102 0)
(1.000036 0.0027894523 0)
(1.0001541 0.0027515356 0)
(1.0002608 0.002705784 0)
(1.0003556 0.0026543848 0)
(1.0004381 0.0025996195 0)
(1.0005084 0.0025438871 0)
(1.0005673 0.0024897045 0)
(1.0006162 0.0024395891 0)
(1.0006573 0.0023951214 0)
(1.0006931 0.0023570373 0)
(1.0007257 0.0023255083 0)
(1.0007575 0.0022995457 0)
(1.0007895 0.0022774998 0)
(1.000822 0.0022579629 0)
(1.0008547 0.0022398374 0)
(1.0008868 0.0022224321 0)
(1.0009179 0.0022057199 0)
(1.0009477 0.0021897105 0)
(1.0009759 0.00217429 0)
(1.0010021 0.0021592899 0)
(1.001026 0.0021442565 0)
(1.0010465 0.0021290298 0)
(1.0010622 0.0021137199 0)
(1.0010719 0.0020984518 0)
(1.0010739 0.0020831633 0)
(1.0010654 0.0020676839 0)
(1.0010416 0.0020521478 0)
(1.0009959 0.0020366942 0)
(1.0009193 0.002021294 0)
(1.0007958 0.002005498 0)
(1.0005955 0.0019887884 0)
(1.0002749 0.0019706775 0)
(0.99977144 0.0019508621 0)
(0.9989521 0.0019279866 0)
(0.99765117 0.0018988072 0)
(0.9957007 0.0018605203 0)
(0.99296635 0.0018081787 0)
(0.98944917 0.0017420278 0)
(0.98524962 0.0016670352 0)
(0.98055834 0.0015874451 0)
(0.9755866 0.0015073557 0)
(0.97050096 0.0014290506 0)
(0.96540083 0.0013547525 0)
(0.96033326 0.0012853865 0)
(0.95531998 0.0012207563 0)
(0.95037551 0.0011600669 0)
(0.94551145 0.0011026832 0)
(0.94073511 0.0010483581 0)
(0.9360498 0.00099693017 0)
(0.93145666 0.00094828117 0)
(0.9269558 0.00090226626 0)
(0.92254656 0.00085873711 0)
(0.91822763 0.000817564 0)
(0.91399729 0.00077860382 0)
(0.90985357 0.00074172999 0)
(0.90579435 0.00070682152 0)
(0.90181737 0.00067376398 0)
(0.89792033 0.00064244955 0)
(0.8941009 0.00061277698 0)
(0.89035675 0.00058465173 0)
(0.88668556 0.00055798547 0)
(0.88308506 0.00053269572 0)
(0.87955298 0.00050870571 0)
(0.87608711 0.00048594381 0)
(0.87268529 0.00046434436 0)
(0.86934533 0.00044384565 0)
(0.86606517 0.00042439555 0)
(0.86284258 0.00040593936 0)
(0.85967567 0.00038845309 0)
(0.8565616 0.00037187146 0)
(0.85349954 0.00035626936 0)
(0.85048321 0.00034147656 0)
(0.84751788 0.00032798702 0)
(0.84457913 0.00031510201 0)
(0.84170736 0.00030611175 2.3505506e-21)
(0.83875676 0.0002887933 0)
(0.83622744 0.00032501343 4.9967568e-20)
(0.83179107 0.00025447672 0)
(0.9981879 0.00062873177 0)
(0.99813624 0.00075878232 0)
(0.99810247 0.00089302028 0)
(0.99808057 0.0010296767 0)
(0.9980695 0.0011714626 0)
(0.99807126 0.0013193794 0)
(0.99808801 0.0014724371 0)
(0.99812121 0.0016291431 0)
(0.99817235 0.0017874816 0)
(0.99824254 0.0019442198 0)
(0.99833176 0.0020957584 0)
(0.99843898 0.0022384174 0)
(0.99856221 0.0023687774 0)
(0.9986986 0.0024840528 0)
(0.99884493 0.0025824753 0)
(0.99899775 0.0026627752 0)
(0.99915371 0.0027250754 0)
(0.99931007 0.002769688 0)
(0.99946415 0.0027973002 0)
(0.99961351 0.0028093609 0)
(0.99975667 0.0028077915 0)
(0.99989272 0.0027936714 0)
(1.0000203 0.0027680637 0)
(1.0001379 0.0027325862 0)
(1.0002446 0.0026892775 0)
(1.0003397 0.0026402639 0)
(1.0004229 0.0025877692 0)
(1.0004944 0.0025341318 0)
(1.0005547 0.0024817836 0)
(1.0006054 0.0024331286 0)
(1.0006486 0.0023897364 0)
(1.0006865 0.0023523637 0)
(1.0007214 0.0023212079 0)
(1.0007554 0.0022954002 0)
(1.0007897 0.0022734188 0)
(1.0008246 0.0022539398 0)
(1.0008599 0.0022359251 0)
(1.0008951 0.0022187043 0)
(1.0009298 0.0022022049 0)
(1.0009638 0.0021864097 0)
(1.0009971 0.0021711898 0)
(1.0010296 0.0021563752 0)
(1.001061 0.0021415777 0)
(1.0010909 0.0021266513 0)
(1.0011186 0.0021117057 0)
(1.0011438 0.0020968774 0)
(1.0011659 0.0020820961 0)
(1.0011842 0.0020672169 0)
(1.0011974 0.0020523483 0)
(1.0012039 0.0020375876 0)
(1.0012017 0.0020228462 0)
(1.0011879 0.0020078909 0)
(1.0011572 0.0019927772 0)
(1.0011016 0.0019777703 0)
(1.0010115 0.0019627549 0)
(1.0008667 0.0019471684 0)
(1.0006344 0.0019304588 0)
(1.0002665 0.0019121253 0)
(0.99968449 0.0018918845 0)
(0.99874678 0.0018678568 0)
(0.99730087 0.0018373815 0)
(0.99518953 0.0017954051 0)
(0.99234633 0.0017400759 0)
(0.98879729 0.0016751771 0)
(0.98467057 0.0016040055 0)
(0.98015156 0.0015300271 0)
(0.97541471 0.001455726 0)
(0.9705834 0.0013835998 0)
(0.96572745 0.0013151534 0)
(0.96088426 0.001250714 0)
(0.95607799 0.0011898677 0)
(0.9513265 0.0011321769 0)
(0.94664191 0.0010773917 0)
(0.94203155 0.0010253924 0)
(0.9374998 0.0009760872 0)
(0.93304916 0.0009293466 0)
(0.92868088 0.00088505061 0)
(0.92439517 0.00084307848 0)
(0.92019157 0.00080330937 0)
(0.91606912 0.00076562479 0)
(0.91202651 0.00072991065 0)
(0.9080622 0.00069605832 0)
(0.90417445 0.00066396491 0)
(0.9003614 0.00063353337 0)
(0.89662112 0.00060467268 0)
(0.89295162 0.00057729741 0)
(0.88935086 0.00055132885 0)
(0.88581679 0.00052669264 0)
(0.88234736 0.00050332561 0)
(0.87894035 0.00048116121 0)
(0.87559388 0.0004601691 0)
(0.87230505 0.00044026918 0)
(0.86907296 0.00042154791 0)
(0.86589133 0.000403795 0)
(0.86276522 0.00038760279 0)
(0.85967036 0.00037207423 0)
(0.85664713 0.00036127107 0)
(0.85354746 0.00033986558 0)
(0.85088776 0.00038516595 0)
(0.84623847 0.00029595158 0)
(0.99823018 0.00065003648 0)
(0.99817994 0.00077343553 0)
(0.99814531 0.00090258556 0)
(0.99812225 0.0010352873 0)
(0.99811006 0.0011731819 0)
(0.99811038 0.0013169006 0)
(0.99812515 0.0014655329 0)
(0.99815588 0.0016176453 0)
(0.99820401 0.0017712997 0)
(0.99827058 0.0019235269 0)
(0.99835566 0.0020709567 0)
(0.99845834 0.0022101294 0)
(0.99857681 0.0023377998 0)
(0.99870844 0.0024512712 0)
(0.99885018 0.0025487472 0)
(0.99899877 0.002628955 0)
(0.99915097 0.0026918175 0)
(0.99930404 0.0027375637 0)
(0.99945536 0.0027667949 0)
(0.99960253 0.0027807924 0)
(0.99974398 0.0027812854 0)
(0.99987867 0.00276937 0)
(1.0000053 0.0027461152 0)
(1.0001223 0.0027130827 0)
(1.0002288 0.0026722278 0)
(1.000324 0.0026256137 0)
(1.0004078 0.0025754036 0)
(1.0004802 0.0025238718 0)
(1.0005418 0.0024733663 0)
(1.000594 0.0024261882 0)
(1.0006388 0.0023838931 0)
(1.0006784 0.0023472602 0)
(1.000715 0.0023165091 0)