/*--------------------------------*- C++ -*----------------------------------*\
  =========                 |
  \\      /  F ield         | OpenFOAM: The Open Source CFD Toolbox
   \\    /   O peration     | Website:  https://openfoam.org
    \\  /    A nd           | Version:  12
     \\/     M anipulation  |
\*---------------------------------------------------------------------------*/
FoamFile
{
    format      ascii;
    class       volVectorField;
    location    "1800";
    object      wallShearStress;
}
// * * * * * * * * * * * * * * * * * * * * * * * * * * * * * * * * * * * * * //

dimensions      [0 2 -2 0 0 0 0];

internalField   uniform (0 0 0);

boundaryField
{
    inlet
    {
        type            calculated;
        value           uniform (0 0 0);
    }
    top
    {
        type            calculated;
        value           uniform (0 0 0);
    }
    outlet
    {
        type            calculated;
        value           uniform (0 0 0);
    }
    slipsurface
    {
        type            calculated;
        value           uniform (0 0 0);
    }
    bottom
    {
        type            calculated;
        value           nonuniform List<vector> 
100
(
(-0.00062549861 -3.6169146e-07 1.9821205e-21)
(-0.00072447375 -4.958288e-07 1.251574e-23)
(-0.00084405381 -8.1190772e-07 0)
(-0.00097879269 -1.2224934e-06 9.9245784e-21)
(-0.0011267686 -1.7525134e-06 4.8598801e-20)
(-0.0012855813 -2.3099878e-06 -5.1998352e-20)
(-0.0014514982 -2.8700509e-06 4.4282682e-22)
(-0.0016194948 -3.8322954e-06 1.4410793e-19)
(-0.0017834775 -4.9603214e-06 0)
(-0.0019368381 -6.1792188e-06 3.9704382e-19)
(-0.002073198 -7.4262228e-06 0)
(-0.0021875164 -8.6224534e-06 -6.1901815e-19)
(-0.0022765826 -9.6858417e-06 0)
(-0.0023392577 -1.0526173e-05 1.1948279e-18)
(-0.002376253 -1.1173513e-05 -2.3010677e-22)
(-0.0023901101 -1.1395307e-05 1.3786009e-18)
(-0.0023830074 -1.1412307e-05 0)
(-0.0023648722 -1.1179764e-05 0)
(-0.0023254242 -1.0660354e-05 3.9250082e-19)
(-0.002281597 -9.9862802e-06 3.5980422e-19)
(-0.0022322445 -9.1628038e-06 6.4781884e-19)
(-0.0021798388 -8.219786e-06 0)
(-0.0021266645 -7.2140889e-06 -4.0892406e-19)
(-0.0020745893 -6.1986353e-06 0)
(-0.002025117 -5.2034982e-06 1.003068e-19)
(-0.0019794596 -4.2557352e-06 0)
(-0.0019385531 -3.3749473e-06 -0)
(-0.0019030634 -2.5851363e-06 0)
(-0.0018733621 -1.9112559e-06 -6.0553065e-21)
(-0.0018494099 -1.3744798e-06 -4.6684064e-20)
(-0.0018306622 -9.9148834e-07 0)
(-0.0018160896 -7.5815411e-07 7.0575562e-20)
(-0.0018043139 -6.4970764e-07 -6.0501226e-20)
(-0.0017939084 -6.2850243e-07 0)
(-0.0017837508 -6.5168377e-07 0)
(-0.0017732138 -6.8319215e-07 9.8577682e-21)
(-0.0017621386 -7.0094336e-07 0)
(-0.0017506655 -6.9720673e-07 0)
(-0.0017390171 -6.7772215e-07 0)
(-0.0017273421 -6.5325928e-07 -0)
(-0.0017156763 -6.3198449e-07 -0)
(-0.0017039897 -6.1633224e-07 -0)
(-0.0016922612 -6.0386763e-07 -0)
(-0.0016805222 -5.9112041e-07 0)
(-0.0016688426 -5.7616889e-07 -0)
(-0.0016572922 -5.5884183e-07 -0)
(-0.0016459121 -5.4000232e-07 0)
(-0.0016347141 -5.2059055e-07 0)
(-0.0016236973 -5.0120601e-07 0)
(-0.0016128606 -4.8198986e-07 -0)
(-0.0016022055 -4.6295275e-07 0)
(-0.001591733 -4.4414148e-07 0)
(-0.0015814429 -4.2575368e-07 0)
(-0.0015713316 -4.0801404e-07 -0)
(-0.001561394 -3.9092972e-07 0)
(-0.0015516269 -3.744326e-07 0)
(-0.0015420275 -3.5856004e-07 0)
(-0.0015325913 -3.43369e-07 0)
(-0.0015233132 -3.287937e-07 0)
(-0.001514191 -3.1479515e-07 -0)
(-0.0015052203 -3.0145579e-07 0)
(-0.0014963952 -2.8873366e-07 0)
(-0.0014877109 -2.7657402e-07 0)
(-0.0014791636 -2.6498842e-07 0)
(-0.0014707489 -2.5391866e-07 0)
(-0.0014624636 -2.43325e-07 0)
(-0.0014543044 -2.3322056e-07 0)
(-0.0014462672 -2.2356694e-07 0)
(-0.001438349 -2.1433772e-07 -0)
(-0.0014305462 -2.0553445e-07 -0)
(-0.0014228554 -1.971266e-07 -0)
(-0.0014152733 -1.8909856e-07 0)
(-0.0014077968 -1.8143271e-07 0)
(-0.0014004228 -1.7410749e-07 0)
(-0.0013931483 -1.6710939e-07 0)
(-0.0013859705 -1.6041854e-07 0)
(-0.0013788868 -1.5402097e-07 0)
(-0.0013718946 -1.4790317e-07 0)
(-0.0013649913 -1.4205197e-07 0)
(-0.0013581745 -1.3645427e-07 0)
(-0.0013514419 -1.3109802e-07 0)
(-0.0013447912 -1.2597201e-07 0)
(-0.0013382202 -1.2106551e-07 0)
(-0.0013317266 -1.1636856e-07 0)
(-0.0013253085 -1.1187185e-07 -0)
(-0.0013189636 -1.0756683e-07 0)
(-0.0013126899 -1.0344532e-07 -0)
(-0.0013064854 -9.9500517e-08 -0)
(-0.0013003481 -9.5725997e-08 0)
(-0.0012942752 -9.2118283e-08 0)
(-0.0012882656 -8.8670093e-08 0)
(-0.001282314 -8.5391226e-08 0)
(-0.0012764229 -8.226559e-08 0)
(-0.0012705746 -7.936219e-08 0)
(-0.0012647936 -7.6575059e-08 0)
(-0.0012589995 -7.4412201e-08 0)
(-0.0012533294 -7.0388022e-08 2.6023487e-23)
(-0.0012473517 -1.0947019e-07 -1.8542041e-22)
(-0.0012423921 -7.2419336e-08 5.6529356e-22)
(-0.0012331219 -1.1126323e-07 2.1354289e-20)
)
;
    }
    frontandback
    {
        type            empty;
    }
}


// ************************************************************************* //
