/*--------------------------------*- C++ -*----------------------------------*\
  =========                 |
  \\      /  F ield         | OpenFOAM: The Open Source CFD Toolbox
   \\    /   O peration     | Website:  https://openfoam.org
    \\  /    A nd           | Version:  12
     \\/     M anipulation  |
\*---------------------------------------------------------------------------*/
FoamFile
{
    format      ascii;
    class       volScalarField;
    location    "1800";
    object      yPlus;
}
// * * * * * * * * * * * * * * * * * * * * * * * * * * * * * * * * * * * * * //

dimensions      [];

internalField   uniform 0;

boundaryField
{
    inlet
    {
        type            calculated;
        value           uniform 0;
    }
    top
    {
        type            calculated;
        value           uniform 0;
    }
    outlet
    {
        type            calculated;
        value           uniform 0;
    }
    slipsurface
    {
        type            calculated;
        value           uniform 0;
    }
    bottom
    {
        type            calculated;
        value           nonuniform List<scalar> 
100
(
15.386011
18.524508
22.447572
27.028897
32.246316
38.056939
44.36583
51.018591
57.808612
64.488738
70.796999
76.501458
81.425152
85.462528
88.579925
90.819815
92.213318
93.157733
93.122658
92.850479
92.257601
91.432591
90.458801
89.409002
88.346269
87.325511
86.394191
85.591117
84.944989
84.46982
84.158588
83.981019
83.888211
83.825494
83.748289
83.632003
83.472362
83.27851
83.063502
82.83712
82.603601
82.363342
82.116092
81.8631
81.607134
81.35117
81.097196
80.845963
80.597537
80.351901
80.109152
79.869355
79.632549
79.398686
79.167685
78.939489
78.714053
78.491302
78.271151
78.053594
77.83856
77.625928
77.415601
77.207515
77.001612
76.79785
76.596186
76.396565
76.198942
76.003267
75.809489
75.617563
75.427447
75.239096
75.052466
74.867518
74.684214
74.50252
74.3224
74.143819
73.966743
73.791139
73.616976
73.444219
73.272838
73.102799
72.93407
72.766617
72.600409
72.435396
72.271556
72.108796
71.94716
71.786301
71.62668
71.466709
71.309126
71.14427
71.005093
70.747155
)
;
    }
    frontandback
    {
        type            empty;
    }
}


// ************************************************************************* //
