/*--------------------------------*- C++ -*----------------------------------*\
  =========                 |
  \\      /  F ield         | OpenFOAM: The Open Source CFD Toolbox
   \\    /   O peration     | Website:  https://openfoam.org
    \\  /    A nd           | Version:  12
     \\/     M anipulation  |
\*---------------------------------------------------------------------------*/
FoamFile
{
    format      ascii;
    class       volScalarField;
    location    "1000";
    object      k;
}
// * * * * * * * * * * * * * * * * * * * * * * * * * * * * * * * * * * * * * //

dimensions      [0 2 -2 0 0 0 0];

internalField   nonuniform List<scalar> 
66675
(
0.042549146
0.035208964
0.030388319
0.027109617
0.024774806
0.02304328
0.021717475
0.020677218
0.019845503
0.019170631
0.018616516
0.018157157
0.017773322
0.017450471
0.017177409
0.016945379
0.016747437
0.016578016
0.016432606
0.016307529
0.016199766
0.016106835
0.016026699
0.015957708
0.015898576
0.015848356
0.015806631
0.015773356
0.015750346
0.015740024
0.015756682
0.015804589
0.016011565
0.016302428
0.015826281
0.042549146
0.035208964
0.030388319
0.027109617
0.024774806
0.02304328
0.021717475
0.020677218
0.019845503
0.019170631
0.018616516
0.018157157
0.017773322
0.017450471
0.017177409
0.016945379
0.016747437
0.016578016
0.016432606
0.016307529
0.016199766
0.016106835
0.016026699
0.015957707
0.015898571
0.015848347
0.015806607
0.015773312
0.015750217
0.01573959
0.01575525
0.015803552
0.015961417
0.01634491
0.016079898
0.042549146
0.035208963
0.030388319
0.027109616
0.024774806
0.02304328
0.021717475
0.020677218
0.019845503
0.019170631
0.018616516
0.018157157
0.017773322
0.017450471
0.017177409
0.016945379
0.016747437
0.016578016
0.016432607
0.01630753
0.016199767
0.016106835
0.016026699
0.015957705
0.015898566
0.015848336
0.015806575
0.015773251
0.015750028
0.015738964
0.015753184
0.015803785
0.015918592
0.016283857
0.016280399
0.042549146
0.035208963
0.030388319
0.027109616
0.024774806
0.023043279
0.021717475
0.020677218
0.019845503
0.019170631
0.018616516
0.018157157
0.017773322
0.017450471
0.017177409
0.01694538
0.016747438
0.016578017
0.016432608
0.016307531
0.016199768
0.016106836
0.016026699
0.015957704
0.015898561
0.015848324
0.015806535
0.015773173
0.015749778
0.015738233
0.015750743
0.015801004
0.015892719
0.016183898
0.016376613
0.042549146
0.035208963
0.030388318
0.027109616
0.024774805
0.023043279
0.021717474
0.020677217
0.019845503
0.019170631
0.018616516
0.018157157
0.017773322
0.017450471
0.01717741
0.01694538
0.016747439
0.016578018
0.016432609
0.016307532
0.01619977
0.016106838
0.0160267
0.015957703
0.015898554
0.015848306
0.015806481
0.01577306
0.015749423
0.01573744
0.015747884
0.015792687
0.015876027
0.016069702
0.016333049
0.042549145
0.035208962
0.030388318
0.027109615
0.024774805
0.023043279
0.021717474
0.020677217
0.019845503
0.019170631
0.018616516
0.018157158
0.017773322
0.017450472
0.017177411
0.016945381
0.01674744
0.01657802
0.016432611
0.016307535
0.016199772
0.01610684
0.016026702
0.015957702
0.015898545
0.015848281
0.015806411
0.015772904
0.015748978
0.0157364
0.015744674
0.015781718
0.015858524
0.015999094
0.016204382
0.042549145
0.035208962
0.030388317
0.027109614
0.024774804
0.023043278
0.021717474
0.020677217
0.019845502
0.019170631
0.018616516
0.018157158
0.017773323
0.017450472
0.017177411
0.016945382
0.016747442
0.016578021
0.016432613
0.016307537
0.016199775
0.016106843
0.016026703
0.0159577
0.015898534
0.015848249
0.015806325
0.0157727
0.015748455
0.01573506
0.015740964
0.015770205
0.015836145
0.015948595
0.016097966
0.042549145
0.035208961
0.030388316
0.027109614
0.024774803
0.023043277
0.021717473
0.020677216
0.019845502
0.019170631
0.018616516
0.018157158
0.017773323
0.017450473
0.017177412
0.016945384
0.016747444
0.016578024
0.016432616
0.016307541
0.016199779
0.016106847
0.016026706
0.015957698
0.01589852
0.015848209
0.015806221
0.015772439
0.015747876
0.01573328
0.015736046
0.01575923
0.015812576
0.015901403
0.016015716
0.042549144
0.03520896
0.030388315
0.027109612
0.024774802
0.023043276
0.021717472
0.020677216
0.019845502
0.01917063
0.018616516
0.018157158
0.017773324
0.017450474
0.017177414
0.016945385
0.016747446
0.016578027
0.01643262
0.016307545
0.016199784
0.016106852
0.016026708
0.015957696
0.015898504
0.01584816
0.015806098
0.015772122
0.01574724
0.015731094
0.01573081
0.015748592
0.015789897
0.015857358
0.01594442
0.042549144
0.035208958
0.030388314
0.027109611
0.024774801
0.023043275
0.021717471
0.020677215
0.019845501
0.01917063
0.018616516
0.018157158
0.017773324
0.017450475
0.017177415
0.016945388
0.016747449
0.016578031
0.016432625
0.016307551
0.01619979
0.016106858
0.016026712
0.015957693
0.015898484
0.015848102
0.015805952
0.01577176
0.015746509
0.015728336
0.015726368
0.015738457
0.015768799
0.015818126
0.015881709
0.042549144
0.035208957
0.030388312
0.027109609
0.0247748
0.023043274
0.02171747
0.020677214
0.0198455
0.01917063
0.018616516
0.018157159
0.017773325
0.017450476
0.017177417
0.01694539
0.016747452
0.016578035
0.01643263
0.016307557
0.016199797
0.016106865
0.016026716
0.015957689
0.015898461
0.015848035
0.015805777
0.015771388
0.01574538
0.015727888
0.015721461
0.015728127
0.015749185
0.01578392
0.015828422
0.042549143
0.035208956
0.03038831
0.027109608
0.024774798
0.023043272
0.021717469
0.020677213
0.0198455
0.019170629
0.018616516
0.018157159
0.017773326
0.017450478
0.01717742
0.016945394
0.016747457
0.016578041
0.016432637
0.016307565
0.016199806
0.016106873
0.016026722
0.015957686
0.015898435
0.015847958
0.015805577
0.015770964
0.015744272
0.015726011
0.015717137
0.01571897
0.015731983
0.015754942
0.015784571
0.042549142
0.035208954
0.030388308
0.027109605
0.024774796
0.023043271
0.021717467
0.020677212
0.019845499
0.019170629
0.018616516
0.01815716
0.017773327
0.01745048
0.017177423
0.016945397
0.016747462
0.016578047
0.016432645
0.016307575
0.016199817
0.016106883
0.016026729
0.015957682
0.015898405
0.015847869
0.015805357
0.015770478
0.015743179
0.01572378
0.015712726
0.015710501
0.015716939
0.015730662
0.01574903
0.042549142
0.035208952
0.030388306
0.027109603
0.024774794
0.023043269
0.021717466
0.02067721
0.019845498
0.019170628
0.018616516
0.01815716
0.017773329
0.017450482
0.017177426
0.016945402
0.016747468
0.016578055
0.016432654
0.016307586
0.016199829
0.016106896
0.016026737
0.015957678
0.015898371
0.01584777
0.015805115
0.015769944
0.015742053
0.0157215
0.015708382
0.015702659
0.015703766
0.015710343
0.015720313
0.042549141
0.03520895
0.030388303
0.0271096
0.024774791
0.023043266
0.021717464
0.020677209
0.019845497
0.019170628
0.018616517
0.018157161
0.01777333
0.017450485
0.01717743
0.016945408
0.016747475
0.016578064
0.016432666
0.016307599
0.016199844
0.01610691
0.016026747
0.015957674
0.015898334
0.01584766
0.015804853
0.015769374
0.01574089
0.015719234
0.015704228
0.015695507
0.015692308
0.01569338
0.015697109
0.04254914
0.035208948
0.0303883
0.027109597
0.024774788
0.023043264
0.021717462
0.020677207
0.019845496
0.019170628
0.018616517
0.018157163
0.017773333
0.017450489
0.017177435
0.016945414
0.016747484
0.016578075
0.016432679
0.016307615
0.016199861
0.016106927
0.016026759
0.015957671
0.015898294
0.015847541
0.015804573
0.015768776
0.015739705
0.015717015
0.01570032
0.015689063
0.015682412
0.015679259
0.015678355
0.042549139
0.035208945
0.030388297
0.027109594
0.024774785
0.023043261
0.021717459
0.020677206
0.019845495
0.019170627
0.018616517
0.018157164
0.017773335
0.017450493
0.01717744
0.016945422
0.016747494
0.016578087
0.016432694
0.016307633
0.016199881
0.016106947
0.016026773
0.015957669
0.015898252
0.015847414
0.015804276
0.01576816
0.015738518
0.015714869
0.015696687
0.01568331
0.015673908
0.015667522
0.015663174
0.042549138
0.035208942
0.030388294
0.027109591
0.024774782
0.023043258
0.021717457
0.020677204
0.019845494
0.019170627
0.018616518
0.018157166
0.017773338
0.017450497
0.017177447
0.016945431
0.016747505
0.016578102
0.016432712
0.016307654
0.016199905
0.01610697
0.016026791
0.015957668
0.015898208
0.01584728
0.015803969
0.015767534
0.015737347
0.015712824
0.015693347
0.015678213
0.015666629
0.01565777
0.015650858
0.042549137
0.03520894
0.030388291
0.027109587
0.024774778
0.023043255
0.021717454
0.020677202
0.019845492
0.019170627
0.018616519
0.018157168
0.017773342
0.017450503
0.017177455
0.016945441
0.016747519
0.016578119
0.016432733
0.016307679
0.016199933
0.016106998
0.016026812
0.015957669
0.015898163
0.015847142
0.015803654
0.015766907
0.015736207
0.015710898
0.015690309
0.015673729
0.01566042
0.015649669
0.015640839
0.042549136
0.035208936
0.030388287
0.027109583
0.024774775
0.023043252
0.021717451
0.0206772
0.019845491
0.019170627
0.01861652
0.018157171
0.017773347
0.01745051
0.017177465
0.016945454
0.016747535
0.016578139
0.016432758
0.016307708
0.016199964
0.01610703
0.016026837
0.015957673
0.015898119
0.015847001
0.015803338
0.015766291
0.015735115
0.015709107
0.015687572
0.01566981
0.015655141
0.01564294
0.015632671
0.042549135
0.035208933
0.030388283
0.027109579
0.024774771
0.023043248
0.021717449
0.020677198
0.01984549
0.019170627
0.018616522
0.018157174
0.017773352
0.017450518
0.017177476
0.016945468
0.016747554
0.016578163
0.016432786
0.016307741
0.016200001
0.016107067
0.016026867
0.015957681
0.015898077
0.015846862
0.015803025
0.015765693
0.015734083
0.015707463
0.015685129
0.015666407
0.015650667
0.015637354
0.015625998
0.042549133
0.035208929
0.030388279
0.027109574
0.024774766
0.023043245
0.021717446
0.020677196
0.01984549
0.019170628
0.018616524
0.018157179
0.017773359
0.017450527
0.017177488
0.016945485
0.016747575
0.01657819
0.016432819
0.016307779
0.016200044
0.01610711
0.016026903
0.015957694
0.01589804
0.015846728
0.015802723
0.015765125
0.015733123
0.015705971
0.01568297
0.015663471
0.015646889
0.01563272
0.015620541
0.042549132
0.035208926
0.030388274
0.02710957
0.024774762
0.023043241
0.021717443
0.020677194
0.019845489
0.019170629
0.018616527
0.018157184
0.017773367
0.017450539
0.017177503
0.016945505
0.0167476
0.016578221
0.016432856
0.016307824
0.016200093
0.016107161
0.016026946
0.015957713
0.015898008
0.015846601
0.015802437
0.015764593
0.015732243
0.015704634
0.015681079
0.015660954
0.015643712
0.015628883
0.015616078
0.04254913
0.035208921
0.030388269
0.027109565
0.024774758
0.023043237
0.02171744
0.020677192
0.019845489
0.01917063
0.018616531
0.01815719
0.017773376
0.017450552
0.017177521
0.016945528
0.016747629
0.016578257
0.0164329
0.016307874
0.01620015
0.016107219
0.016026997
0.015957741
0.015897986
0.015846487
0.015802172
0.015764105
0.015731448
0.015703452
0.01567944
0.015658814
0.015641053
0.015625715
0.015612431
0.042549129
0.035208917
0.030388264
0.02710956
0.024774753
0.023043233
0.021717437
0.020677191
0.019845489
0.019170633
0.018616536
0.018157198
0.017773388
0.017450567
0.017177542
0.016945554
0.016747662
0.016578298
0.016432949
0.016307932
0.016200214
0.016107286
0.016027057
0.015957779
0.015897975
0.015846388
0.015801935
0.015763667
0.015730745
0.015702422
0.015678037
0.015657009
0.015638841
0.015623109
0.015609458
0.042549127
0.035208913
0.030388259
0.027109555
0.024774748
0.023043229
0.021717435
0.02067719
0.01984549
0.019170636
0.018616542
0.018157207
0.017773401
0.017450585
0.017177565
0.016945585
0.016747701
0.016578345
0.016433006
0.016307999
0.016200289
0.016107363
0.016027129
0.015957828
0.015897977
0.015846309
0.01580173
0.015763285
0.015730135
0.015701539
0.015676849
0.015655502
0.015637015
0.015620979
0.015607045
0.042549125
0.035208908
0.030388254
0.02710955
0.024774743
0.023043226
0.021717432
0.020677189
0.019845492
0.01917064
0.018616549
0.018157218
0.017773417
0.017450606
0.017177593
0.01694562
0.016747745
0.016578399
0.016433071
0.016308074
0.016200373
0.016107452
0.016027213
0.015957892
0.015897997
0.015846254
0.015801561
0.015762962
0.015729618
0.015700797
0.015675861
0.015654261
0.015635524
0.01561925
0.0156051
0.042549123
0.035208902
0.030388248
0.027109544
0.024774739
0.023043222
0.02171743
0.020677189
0.019845494
0.019170645
0.018616558
0.018157231
0.017773435
0.017450631
0.017177625
0.01694566
0.016747795
0.016578461
0.016433145
0.01630816
0.016200469
0.016107554
0.01602731
0.015957971
0.015898037
0.015846226
0.015801434
0.015762701
0.015729195
0.015700189
0.015675055
0.015653254
0.015634322
0.015617865
0.015603546
0.042549121
0.035208897
0.030388242
0.027109538
0.024774734
0.023043218
0.021717429
0.02067719
0.019845497
0.019170652
0.018616568
0.018157247
0.017773456
0.017450659
0.017177661
0.016945707
0.016747853
0.016578531
0.016433229
0.016308258
0.016200579
0.01610767
0.016027424
0.015958069
0.015898099
0.015846228
0.015801349
0.015762505
0.015728863
0.015699707
0.015674415
0.015652455
0.015633371
0.015616772
0.015602324
0.042549118
0.035208891
0.030388236
0.027109533
0.024774729
0.023043215
0.021717427
0.020677191
0.019845502
0.01917066
0.018616581
0.018157265
0.017773481
0.017450692
0.017177703
0.01694576
0.016747919
0.016578611
0.016433324
0.016308368
0.016200702
0.016107801
0.016027556
0.015958187
0.015898186
0.015846264
0.015801311
0.015762372
0.01572862
0.015699343
0.015673925
0.015651841
0.015632638
0.015615929
0.015601381
0.042549116
0.035208886
0.03038823
0.027109527
0.024774724
0.023043212
0.021717426
0.020677193
0.019845507
0.01917067
0.018616596
0.018157286
0.01777351
0.017450729
0.017177752
0.016945821
0.016747994
0.016578702
0.016433432
0.016308492
0.016200841
0.016107951
0.016027707
0.015958328
0.015898301
0.015846335
0.015801321
0.015762305
0.015728464
0.015699089
0.015673573
0.015651392
0.015632097
0.015615303
0.015600677
0.042549113
0.035208879
0.030388223
0.027109521
0.024774719
0.023043209
0.021717426
0.020677196
0.019845514
0.019170682
0.018616614
0.018157311
0.017773543
0.017450773
0.017177807
0.01694589
0.016748079
0.016578805
0.016433553
0.016308632
0.016200998
0.016108119
0.016027879
0.015958493
0.015898446
0.015846444
0.01580138
0.015762301
0.015728389
0.015698938
0.015673344
0.015651088
0.015631722
0.015614862
0.015600178
0.042549111
0.035208873
0.030388217
0.027109514
0.024774715
0.023043207
0.021717427
0.0206772
0.019845523
0.019170696
0.018616635
0.01815734
0.017773581
0.017450822
0.01717787
0.016945968
0.016748175
0.01657892
0.016433689
0.016308789
0.016201173
0.016108308
0.016028075
0.015958686
0.015898623
0.015846593
0.015801489
0.015762361
0.015728392
0.015698882
0.015673229
0.015650914
0.015631494
0.015614584
0.015599854
0.042549108
0.035208867
0.03038821
0.027109508
0.02477471
0.023043205
0.021717428
0.020677206
0.019845533
0.019170712
0.018616659
0.018157373
0.017773625
0.017450879
0.017177941
0.016946057
0.016748283
0.01657905
0.016433842
0.016308964
0.016201368
0.01610852
0.016028296
0.015958906
0.015898833
0.015846782
0.015801648
0.015762481
0.01572847
0.015698914
0.015673215
0.015650857
0.015631395
0.015614447
0.015599682
0.042549106
0.03520886
0.030388203
0.027109502
0.024774706
0.023043203
0.02171743
0.020677213
0.019845546
0.019170732
0.018616687
0.018157411
0.017773675
0.017450943
0.017178022
0.016946157
0.016748405
0.016579195
0.016434012
0.016309158
0.016201585
0.016108755
0.016028543
0.015959157
0.015899079
0.015847013
0.015801856
0.015762661
0.015728617
0.015699028
0.015673294
0.015650903
0.01563141
0.015614433
0.015599642
0.042549103
0.035208854
0.030388196
0.027109496
0.024774702
0.023043202
0.021717433
0.020677221
0.019845561
0.019170755
0.018616719
0.018157455
0.017773733
0.017451016
0.017178114
0.01694627
0.016748541
0.016579357
0.016434201
0.016309375
0.016201826
0.016109016
0.016028819
0.01595944
0.01589936
0.015847286
0.015802114
0.015762898
0.015728831
0.015699217
0.015673458
0.015651042
0.015631526
0.015614528
0.015599718
0.042549101
0.035208848
0.030388189
0.02710949
0.024774698
0.023043202
0.021717438
0.020677232
0.019845579
0.019170782
0.018616757
0.018157505
0.017773798
0.017451099
0.017178217
0.016946397
0.016748694
0.016579538
0.016434411
0.016309613
0.016202091
0.016109304
0.016029124
0.015959755
0.015899678
0.0158476
0.015802419
0.015763191
0.015729107
0.015699475
0.015673699
0.015651266
0.015631733
0.01561472
0.015599895
0.042549099
0.035208842
0.030388183
0.027109485
0.024774695
0.023043203
0.021717444
0.020677245
0.0198456
0.019170813
0.0186168
0.018157562
0.017773872
0.017451193
0.017178334
0.016946539
0.016748865
0.016579739
0.016434643
0.016309877
0.016202383
0.016109621
0.016029459
0.015960104
0.015900034
0.015847957
0.015802771
0.015763535
0.015729442
0.015699798
0.01567401
0.015651565
0.015632021
0.015614996
0.015600162
0.042549097
0.035208837
0.030388177
0.02710948
0.024774693
0.023043205
0.021717453
0.020677261
0.019845625
0.019170849
0.018616849
0.018157628
0.017773956
0.017451299
0.017178464
0.016946697
0.016749054
0.016579962
0.016434899
0.016310165
0.016202703
0.016109967
0.016029827
0.015960487
0.015900427
0.015848355
0.015803169
0.01576393
0.015729832
0.015700181
0.015674386
0.015651933
0.015632381
0.015615349
0.015600508
0.042549096
0.035208832
0.030388171
0.027109475
0.024774692
0.023043209
0.021717463
0.020677279
0.019845654
0.019170891
0.018616906
0.018157702
0.017774051
0.017451418
0.017178611
0.016946874
0.016749264
0.016580207
0.01643518
0.016310481
0.016203051
0.016110343
0.016030227
0.015960905
0.015900857
0.015848793
0.015803612
0.015764374
0.015730273
0.01570062
0.015674821
0.015652363
0.015632807
0.01561577
0.015600925
0.042549094
0.035208828
0.030388166
0.027109471
0.024774691
0.023043214
0.021717475
0.020677301
0.019845688
0.019170938
0.01861697
0.018157786
0.017774157
0.017451551
0.017178774
0.016947071
0.016749496
0.016580477
0.016435488
0.016310826
0.016203429
0.016110751
0.01603066
0.015961358
0.015901325
0.015849271
0.015804097
0.015764862
0.015730764
0.015701111
0.01567531
0.015652851
0.015633292
0.015616253
0.015601405
0.042549094
0.035208824
0.030388161
0.027109468
0.024774692
0.023043221
0.021717491
0.020677327
0.019845727
0.019170993
0.018617043
0.01815788
0.017774278
0.0174517
0.017178956
0.016947288
0.016749752
0.016580772
0.016435823
0.016311199
0.016203838
0.016111192
0.016031126
0.015961846
0.01590183
0.015849789
0.015804623
0.015765395
0.0157313
0.015701649
0.015675849
0.01565339
0.015633831
0.015616792
0.015601943
0.042549094
0.035208822
0.030388158
0.027109466
0.024774694
0.02304323
0.021717509
0.020677357
0.019845771
0.019171055
0.018617126
0.018157987
0.017774412
0.017451866
0.017179157
0.016947528
0.016750033
0.016581095
0.016436188
0.016311603
0.016204278
0.016111664
0.016031627
0.015962369
0.015902371
0.015850344
0.015805189
0.015765969
0.015731879
0.015702233
0.015676436
0.015653978
0.01563442
0.015617382
0.015602533
0.042549094
0.035208821
0.030388155
0.027109466
0.024774698
0.023043242
0.021717531
0.020677393
0.019845823
0.019171125
0.018617219
0.018158107
0.017774563
0.017452052
0.01717938
0.016947793
0.016750341
0.016581446
0.016436582
0.016312038
0.016204751
0.01611217
0.016032161
0.015962927
0.015902948
0.015850936
0.015805793
0.015766582
0.0157325
0.015702858
0.015677065
0.015654611
0.015635055
0.015618018
0.01560317
0.042549095
0.035208822
0.030388154
0.027109466
0.024774704
0.023043256
0.021717557
0.020677433
0.019845881
0.019171206
0.018617324
0.018158242
0.017774731
0.017452257
0.017179627
0.016948082
0.016750676
0.016581827
0.016437007
0.016312505
0.016205256
0.016112709
0.016032728
0.015963518
0.01590356
0.015851564
0.015806434
0.015767232
0.015733158
0.015703523
0.015677735
0.015655284
0.015635731
0.015618696
0.01560385
0.042549098
0.035208824
0.030388154
0.027109468
0.024774712
0.023043274
0.021717588
0.02067748
0.019845948
0.019171296
0.018617443
0.018158392
0.017774918
0.017452484
0.017179897
0.016948399
0.01675104
0.016582238
0.016437464
0.016313004
0.016205794
0.01611328
0.016033329
0.015964143
0.015904205
0.015852226
0.015807109
0.015767919
0.015733853
0.015704224
0.015678442
0.015655995
0.015636446
0.015619414
0.01560457
0.042549101
0.035208828
0.030388156
0.027109472
0.024774723
0.023043295
0.021717624
0.020677534
0.019846024
0.019171398
0.018617576
0.01815856
0.017775124
0.017452734
0.017180193
0.016948744
0.016751434
0.016582681
0.016437952
0.016313536
0.016206364
0.016113884
0.016033962
0.015964801
0.015904883
0.015852921
0.015807818
0.015768638
0.015734582
0.01570496
0.015679184
0.015656742
0.015637197
0.015620168
0.015605327
0.042549104
0.035208834
0.03038816
0.027109478
0.024774736
0.02304332
0.021717665
0.020677596
0.01984611
0.019171513
0.018617724
0.018158746
0.017775353
0.017453008
0.017180517
0.016949118
0.016751858
0.016583155
0.016438473
0.0163141
0.016206966
0.016114521
0.016034627
0.015965491
0.015905593
0.015853647
0.015808558
0.01576939
0.015735343
0.015705729
0.015679958
0.015657522
0.01563798
0.015620955
0.015606117
0.042549109
0.035208842
0.030388165
0.027109487
0.024774753
0.02304335
0.021717712
0.020677666
0.019846207
0.019171642
0.018617889
0.018158952
0.017775604
0.017453308
0.017180868
0.016949522
0.016752315
0.016583661
0.016439027
0.016314696
0.016207601
0.016115188
0.016035324
0.015966211
0.015906333
0.015854404
0.015809328
0.015770172
0.015736133
0.015706527
0.015680763
0.015658332
0.015638795
0.015621773
0.015606937
0.042549115
0.035208852
0.030388173
0.027109497
0.024774773
0.023043385
0.021717767
0.020677745
0.019846317
0.019171786
0.018618072
0.01815918
0.01777588
0.017453636
0.017181249
0.016949957
0.016752803
0.0165842
0.016439613
0.016315325
0.016208267
0.016115887
0.01603605
0.01596696
0.015907102
0.015855189
0.015810127
0.015770982
0.015736953
0.015707354
0.015681596
0.01565917
0.015639637
0.015622619
0.015607786
0.042549122
0.035208863
0.030388182
0.02710951
0.024774796
0.023043425
0.021717829
0.020677835
0.019846439
0.019171946
0.018618275
0.01815943
0.017776181
0.017453991
0.01718166
0.016950423
0.016753323
0.016584771
0.01644023
0.016315984
0.016208963
0.016116615
0.016036805
0.015967738
0.015907899
0.015856002
0.015810953
0.015771818
0.015737798
0.015708207
0.015682455
0.015660034
0.015640506
0.015623491
0.015608662
0.04254913
0.035208877
0.030388193
0.027109526
0.024774824
0.023043471
0.0217179
0.020677936
0.019846575
0.019172123
0.018618499
0.018159704
0.01777651
0.017454376
0.017182102
0.016950921
0.016753875
0.016585374
0.016440879
0.016316674
0.016209688
0.016117371
0.016037587
0.015968543
0.015908722
0.01585684
0.015811804
0.015772679
0.015738668
0.015709084
0.015683338
0.015660922
0.015641398
0.015624387
0.015609561
0.042549139
0.035208892
0.030388206
0.027109544
0.024774856
0.023043523
0.021717979
0.020678049
0.019846727
0.01917232
0.018618745
0.018160004
0.017776866
0.017454791
0.017182576
0.016951452
0.01675446
0.016586009
0.016441559
0.016317394
0.016210443
0.016118155
0.016038396
0.015969373
0.01590957
0.015857702
0.015812678
0.015773564
0.015739561
0.015709984
0.015684244
0.015661833
0.015642313
0.015625306
0.015610482
0.042549147
0.035208907
0.030388219
0.027109565
0.024774892
0.023043583
0.02171807
0.020678176
0.019846897
0.019172538
0.018619015
0.018160331
0.017777253
0.017455237
0.017183082
0.016952016
0.016755078
0.016586676
0.01644227
0.016318143
0.016211226
0.016118966
0.016039231
0.015970228
0.015910442
0.015858589
0.015813576
0.015774472
0.015740477
0.015710907
0.015685172
0.015662766
0.01564325
0.015626246
0.015611425
0.042549154
0.03520892
0.030388233
0.027109589
0.024774936
0.023043655
0.021718175
0.020678322
0.01984709
0.019172783
0.018619317
0.018160692
0.017777675
0.017455722
0.017183627
0.016952618
0.016755733
0.016587379
0.016443016
0.016318926
0.016212041
0.016119808
0.016040096
0.015971112
0.015911342
0.015859502
0.0158145
0.015775405
0.015741418
0.015711854
0.015686125
0.015663723
0.015644211
0.01562721
0.015612392
0.042549158
0.035208932
0.030388256
0.02710963
0.024775002
0.023043753
0.021718312
0.020678503
0.019847321
0.019173068
0.018619661
0.018161098
0.017778144
0.017456253
0.017184218
0.016953266
0.016756433
0.016588126
0.016443804
0.01631975
0.016212894
0.016120688
0.016040997
0.015972031
0.015912276
0.015860448
0.015815457
0.01577637
0.01574239
0.015712833
0.015687109
0.015664711
0.015645203
0.015628204
0.015613389
0.042549158
0.035208936
0.030388271
0.027109665
0.024775066
0.023043853
0.021718455
0.020678695
0.019847567
0.019173374
0.018620029
0.018161531
0.017778642
0.017456814
0.01718484
0.016953944
0.016757162
0.0165889
0.016444618
0.016320597
0.016213771
0.016121588
0.016041918
0.015972969
0.015913228
0.015861412
0.015816431
0.015777352
0.015743379
0.015713827
0.015688108
0.015665715
0.01564621
0.015629214
0.015614402
0.042549155
0.035208937
0.030388286
0.027109701
0.024775134
0.02304396
0.021718609
0.020678901
0.019847832
0.019173701
0.018620422
0.018161991
0.017779168
0.017457404
0.01718549
0.016954649
0.016757917
0.016589698
0.016445454
0.016321466
0.016214666
0.016122507
0.016042856
0.015973923
0.015914195
0.01586239
0.015817418
0.015778347
0.015744381
0.015714834
0.01568912
0.01566673
0.015647228
0.015630235
0.015615425
0.042549153
0.035208947
0.03038832
0.027109764
0.024775234
0.023044105
0.021718804
0.020679153
0.019848145
0.01917408
0.018620868
0.018162504
0.017779747
0.017458047
0.017186191
0.016955404
0.016758719
0.016590541
0.016446332
0.016322375
0.016215601
0.016123463
0.01604383
0.015974911
0.015915196
0.015863401
0.015818438
0.015779374
0.015745413
0.015715871
0.015690161
0.015667775
0.015648276
0.015631286
0.015616477
0.042549152
0.035208962
0.030388365
0.027109848
0.024775361
0.023044282
0.021719036
0.020679447
0.019848504
0.019174506
0.018621363
0.018163068
0.017780377
0.01745874
0.017186941
0.016956205
0.016759566
0.016591428
0.016447252
0.016323323
0.016216573
0.016124455
0.016044838
0.015975933
0.015916229
0.015864444
0.015819488
0.015780431
0.015746475
0.015716938
0.015691232
0.015668849
0.015649353
0.015632365
0.015617558
0.042549152
0.035208978
0.030388416
0.027109939
0.0247755
0.023044475
0.02171929
0.020679765
0.019848891
0.019174964
0.018621892
0.018163666
0.017781042
0.017459465
0.017187723
0.016957037
0.01676044
0.016592339
0.016448195
0.016324293
0.016217565
0.016125465
0.016045864
0.015976972
0.015917278
0.015865502
0.015820553
0.015781502
0.015747552
0.015718019
0.015692316
0.015669936
0.015650442
0.015633456
0.015618652
0.042549152
0.035208997
0.03038847
0.027110038
0.024775651
0.023044685
0.021719563
0.020680106
0.019849303
0.019175448
0.018622449
0.018164292
0.017781733
0.017460217
0.017188528
0.016957889
0.016761334
0.016593268
0.016449154
0.016325275
0.016218568
0.016126485
0.016046898
0.015978018
0.015918334
0.015866565
0.015821623
0.015782578
0.015748632
0.015719103
0.015693403
0.015671026
0.015651535
0.015634551
0.015619748
0.042549153
0.035209018
0.030388529
0.027110145
0.024775814
0.023044909
0.021719855
0.02068047
0.01984974
0.019175959
0.018623031
0.018164944
0.017782449
0.01746099
0.017189353
0.016958759
0.016762242
0.016594209
0.016450122
0.016326267
0.016219578
0.016127511
0.016047937
0.015979067
0.015919392
0.015867631
0.015822695
0.015783654
0.015749712
0.015720187
0.01569449
0.015672115
0.015652626
0.015635644
0.015620843
0.042549154
0.035209041
0.030388594
0.027110261
0.024775989
0.02304515
0.021720167
0.020680855
0.0198502
0.019176494
0.018623638
0.018165618
0.017783185
0.017461783
0.017190195
0.016959643
0.016763162
0.016595159
0.016451097
0.016327262
0.016220591
0.016128538
0.016048976
0.015980115
0.015920448
0.015868694
0.015823763
0.015784727
0.015750789
0.015721267
0.015695573
0.0156732
0.015653713
0.015636732
0.015621932
0.042549157
0.035209067
0.030388663
0.027110385
0.024776175
0.023045406
0.021720496
0.02068126
0.019850682
0.01917705
0.018624266
0.018166312
0.017783939
0.017462589
0.017191048
0.016960535
0.016764088
0.016596112
0.016452074
0.016328258
0.016221603
0.016129563
0.01605001
0.015981159
0.015921499
0.01586975
0.015824824
0.015785792
0.015751858
0.015722338
0.015696646
0.015674276
0.01565479
0.015637811
0.015623012
0.042549159
0.035209095
0.030388737
0.027110517
0.024776374
0.023045676
0.021720842
0.020681684
0.019851183
0.019177625
0.018624911
0.018167021
0.017784705
0.017463406
0.017191907
0.016961432
0.016765015
0.016597065
0.016453047
0.016329249
0.016222608
0.016130579
0.016051036
0.015982192
0.015922538
0.015870795
0.015825874
0.015786845
0.015752914
0.015723397
0.015697707
0.015675338
0.015655854
0.015638876
0.015624078
0.042549163
0.035209126
0.030388815
0.027110656
0.024776582
0.02304596
0.021721204
0.020682124
0.0198517
0.019178216
0.018625569
0.018167741
0.017785479
0.017464227
0.017192768
0.016962327
0.016765938
0.016598011
0.016454012
0.016330229
0.016223601
0.016131582
0.016052048
0.015983211
0.015923562
0.015871824
0.015826906
0.015787881
0.015753952
0.015724437
0.015698749
0.015676381
0.015656898
0.015639922
0.015625125
0.042549167
0.035209159
0.030388898
0.027110803
0.024776801
0.023046255
0.021721578
0.020682577
0.019852229
0.019178817
0.018626236
0.018168466
0.017786256
0.017465047
0.017193625
0.016963214
0.016766851
0.016598945
0.016454963
0.016331194
0.016224577
0.016132567
0.01605304
0.015984209
0.015924565
0.015872831
0.015827916
0.015788893
0.015754967
0.015725454
0.015699767
0.015677401
0.015657919
0.015640943
0.015626147
0.042549171
0.035209193
0.030388984
0.027110955
0.024777028
0.02304656
0.021721963
0.020683041
0.019852768
0.019179424
0.018626906
0.018169191
0.017787028
0.01746586
0.017194472
0.016964089
0.016767748
0.016599861
0.016455894
0.016332137
0.01622553
0.016133528
0.016054007
0.015985181
0.015925542
0.01587381
0.015828899
0.015789878
0.015755953
0.015726442
0.015700757
0.015678392
0.01565891
0.015641935
0.01562714
0.042549176
0.035209229
0.030389074
0.027111113
0.024777261
0.023046873
0.021722356
0.020683511
0.01985331
0.019180033
0.018627574
0.01816991
0.017787792
0.01746666
0.017195303
0.016964945
0.016768624
0.016600753
0.0164568
0.016333053
0.016226454
0.016134459
0.016054944
0.015986122
0.015926486
0.015874758
0.015829848
0.01579083
0.015756906
0.015727396
0.015701712
0.015679348
0.015659867
0.015642893
0.015628098
0.042549181
0.035209266
0.030389167
0.027111275
0.024777499
0.023047191
0.021722752
0.020683982
0.019853851
0.019180638
0.018628234
0.018170618
0.017788539
0.017467441
0.017196111
0.016965775
0.016769472