/*--------------------------------*- C++ -*----------------------------------*\
  =========                 |
  \\      /  F ield         | OpenFOAM: The Open Source CFD Toolbox
   \\    /   O peration     | Website:  https://openfoam.org
    \\  /    A nd           | Version:  12
     \\/     M anipulation  |
\*---------------------------------------------------------------------------*/
FoamFile
{
    format      ascii;
    class       volScalarField;
    location    "1000";
    object      nut;
}
// * * * * * * * * * * * * * * * * * * * * * * * * * * * * * * * * * * * * * //

dimensions      [0 2 -1 0 0 0 0];

internalField   nonuniform List<scalar> 
66675
(
2.6732946e-06
2.5817963e-06
2.5510527e-06
2.532484e-06
2.5140289e-06
2.4953425e-06
2.4777285e-06
2.4619201e-06
2.4480888e-06
2.4361274e-06
2.4258302e-06
2.4169762e-06
2.4093602e-06
2.4028026e-06
2.3971495e-06
2.3922709e-06
2.388057e-06
2.3844157e-06
2.3812695e-06
2.3785537e-06
2.3762137e-06
2.3742031e-06
2.3724812e-06
2.3710038e-06
2.3697173e-06
2.3684923e-06
2.3671031e-06
2.3647192e-06
2.3587604e-06
2.3369216e-06
2.2870793e-06
2.0244195e-06
1.5757315e-06
4.8830648e-07
2.7949399e-08
2.6732946e-06
2.5817963e-06
2.5510527e-06
2.532484e-06
2.5140289e-06
2.4953425e-06
2.4777285e-06
2.4619201e-06
2.4480888e-06
2.4361274e-06
2.4258302e-06
2.4169762e-06
2.4093602e-06
2.4028026e-06
2.3971495e-06
2.3922708e-06
2.388057e-06
2.3844156e-06
2.3812695e-06
2.3785536e-06
2.3762134e-06
2.3742025e-06
2.3724798e-06
2.3710008e-06
2.3697104e-06
2.3684772e-06
2.367062e-06
2.3646324e-06
2.3586024e-06
2.337064e-06
2.2848744e-06
2.05471e-06
1.5205485e-06
7.6747772e-07
6.2377556e-08
2.6732946e-06
2.5817963e-06
2.5510527e-06
2.532484e-06
2.5140289e-06
2.4953425e-06
2.4777285e-06
2.4619201e-06
2.4480888e-06
2.4361274e-06
2.4258302e-06
2.4169762e-06
2.4093602e-06
2.4028026e-06
2.3971495e-06
2.3922708e-06
2.388057e-06
2.3844156e-06
2.3812695e-06
2.3785535e-06
2.3762134e-06
2.3742025e-06
2.3724797e-06
2.3710008e-06
2.3697102e-06
2.3684795e-06
2.3670657e-06
2.3646619e-06
2.3588792e-06
2.3387414e-06
2.2909787e-06
2.1132837e-06
1.5679103e-06
9.7504511e-07
1.7966152e-07
2.6732946e-06
2.5817963e-06
2.5510527e-06
2.532484e-06
2.5140289e-06
2.4953425e-06
2.4777285e-06
2.4619201e-06
2.4480888e-06
2.4361274e-06
2.4258302e-06
2.4169762e-06
2.4093602e-06
2.4028026e-06
2.3971495e-06
2.3922708e-06
2.388057e-06
2.3844156e-06
2.3812694e-06
2.3785535e-06
2.3762132e-06
2.3742022e-06
2.3724792e-06
2.3709998e-06
2.369708e-06
2.3684771e-06
2.3670622e-06
2.3646549e-06
2.3592073e-06
2.3401764e-06
2.2918917e-06
2.1529857e-06
1.6724903e-06
1.114934e-06
4.5663402e-07
2.6732946e-06
2.5817963e-06
2.5510527e-06
2.532484e-06
2.5140289e-06
2.4953425e-06
2.4777285e-06
2.4619201e-06
2.4480888e-06
2.4361274e-06
2.4258302e-06
2.4169762e-06
2.4093603e-06
2.4028026e-06
2.3971495e-06
2.3922708e-06
2.3880569e-06
2.3844156e-06
2.3812694e-06
2.3785534e-06
2.376213e-06
2.3742018e-06
2.3724784e-06
2.3709985e-06
2.3697054e-06
2.3684742e-06
2.3670633e-06
2.3646507e-06
2.3596314e-06
2.3416983e-06
2.2955426e-06
2.176826e-06
1.8015293e-06
1.1701768e-06
7.5494868e-07
2.6732946e-06
2.5817963e-06
2.5510527e-06
2.532484e-06
2.5140289e-06
2.4953425e-06
2.4777285e-06
2.4619201e-06
2.4480888e-06
2.4361274e-06
2.4258302e-06
2.4169762e-06
2.4093603e-06
2.4028026e-06
2.3971495e-06
2.3922709e-06
2.388057e-06
2.3844156e-06
2.3812694e-06
2.3785533e-06
2.3762128e-06
2.3742014e-06
2.3724777e-06
2.3709973e-06
2.3697034e-06
2.368473e-06
2.3670738e-06
2.3646763e-06
2.3600755e-06
2.3433695e-06
2.3038214e-06
2.2020777e-06
1.9351859e-06
1.368025e-06
9.479033e-07
2.6732946e-06
2.5817963e-06
2.5510527e-06
2.532484e-06
2.5140289e-06
2.4953425e-06
2.4777285e-06
2.4619201e-06
2.4480888e-06
2.4361274e-06
2.4258302e-06
2.4169762e-06
2.4093603e-06
2.4028026e-06
2.3971495e-06
2.3922709e-06
2.388057e-06
2.3844156e-06
2.3812693e-06
2.3785532e-06
2.3762126e-06
2.374201e-06
2.3724769e-06
2.3709962e-06
2.3697023e-06
2.3684736e-06
2.3670939e-06
2.364734e-06
2.3604901e-06
2.3451413e-06
2.3125378e-06
2.2245492e-06
2.0360472e-06
1.6131647e-06
1.1707951e-06
2.6732946e-06
2.5817962e-06
2.5510527e-06
2.532484e-06
2.5140289e-06
2.4953425e-06
2.4777285e-06
2.4619201e-06
2.4480888e-06
2.4361274e-06
2.4258302e-06
2.4169762e-06
2.4093603e-06
2.4028026e-06
2.3971495e-06
2.3922709e-06
2.388057e-06
2.3844156e-06
2.3812693e-06
2.3785531e-06
2.3762124e-06
2.3742006e-06
2.3724762e-06
2.3709952e-06
2.369702e-06
2.3684753e-06
2.367125e-06
2.3647986e-06
2.3610309e-06
2.3469003e-06
2.3201652e-06
2.2483786e-06
2.1086099e-06
1.8125491e-06
1.4353458e-06
2.6732946e-06
2.5817962e-06
2.5510527e-06
2.532484e-06
2.5140289e-06
2.4953425e-06
2.4777285e-06
2.4619201e-06
2.4480888e-06
2.4361274e-06
2.4258302e-06
2.4169762e-06
2.4093603e-06
2.4028026e-06
2.3971496e-06
2.3922709e-06
2.388057e-06
2.3844156e-06
2.3812693e-06
2.378553e-06
2.3762122e-06
2.3742002e-06
2.3724755e-06
2.3709942e-06
2.3697024e-06
2.3684779e-06
2.3671674e-06
2.3648459e-06
2.3619427e-06
2.3486454e-06
2.3268779e-06
2.2712801e-06
2.1659303e-06
1.9644902e-06
1.6847828e-06
2.6732946e-06
2.5817962e-06
2.5510526e-06
2.5324839e-06
2.5140289e-06
2.4953425e-06
2.4777285e-06
2.4619201e-06
2.4480888e-06
2.4361274e-06
2.4258302e-06
2.4169763e-06
2.4093603e-06
2.4028027e-06
2.3971496e-06
2.3922709e-06
2.388057e-06
2.3844156e-06
2.3812692e-06
2.3785529e-06
2.376212e-06
2.3741998e-06
2.3724748e-06
2.3709933e-06
2.3697031e-06
2.3684819e-06
2.3672135e-06
2.3649481e-06
2.3622851e-06
2.3511628e-06
2.3335558e-06
2.2911878e-06
2.2128162e-06
2.0770407e-06
1.8847743e-06
2.6732946e-06
2.5817962e-06
2.5510526e-06
2.5324839e-06
2.5140289e-06
2.4953425e-06
2.4777285e-06
2.4619201e-06
2.4480888e-06
2.4361274e-06
2.4258303e-06
2.4169763e-06
2.4093603e-06
2.4028027e-06
2.3971496e-06
2.392271e-06
2.388057e-06
2.3844156e-06
2.3812692e-06
2.3785528e-06
2.3762117e-06
2.3741993e-06
2.372474e-06
2.3709924e-06
2.3697037e-06
2.368488e-06
2.3672691e-06
2.3649367e-06
2.3642258e-06
2.3542268e-06
2.3384885e-06
2.3068883e-06
2.2503472e-06
2.1594292e-06
2.0334242e-06
2.6732945e-06
2.5817961e-06
2.5510526e-06
2.5324839e-06
2.5140289e-06
2.4953425e-06
2.4777284e-06
2.4619201e-06
2.4480888e-06
2.4361274e-06
2.4258303e-06
2.4169763e-06
2.4093603e-06
2.4028027e-06
2.3971497e-06
2.392271e-06
2.3880571e-06
2.3844157e-06
2.3812692e-06
2.3785527e-06
2.3762115e-06
2.3741987e-06
2.3724731e-06
2.3709915e-06
2.3697034e-06
2.368502e-06
2.3672753e-06
2.3653454e-06
2.3628392e-06
2.3567343e-06
2.3439284e-06
2.3206334e-06
2.2804397e-06
2.2197423e-06
2.1392936e-06
2.6732945e-06
2.5817961e-06
2.5510525e-06
2.5324839e-06
2.5140289e-06
2.4953425e-06
2.4777284e-06
2.4619201e-06
2.4480888e-06
2.4361274e-06
2.4258303e-06
2.4169763e-06
2.4093604e-06
2.4028028e-06
2.3971497e-06
2.3922711e-06
2.3880571e-06
2.3844157e-06
2.3812692e-06
2.3785526e-06
2.3762111e-06
2.3741981e-06
2.372472e-06
2.3709906e-06
2.3697029e-06
2.3685169e-06
2.3672925e-06
2.3656194e-06
2.3629825e-06
2.3580086e-06
2.3484646e-06
2.3312121e-06
2.3032601e-06
2.2631995e-06
2.2125213e-06
2.6732945e-06
2.581796e-06
2.5510525e-06
2.5324839e-06
2.5140288e-06
2.4953425e-06
2.4777284e-06
2.4619201e-06
2.4480888e-06
2.4361274e-06
2.4258303e-06
2.4169763e-06
2.4093604e-06
2.4028028e-06
2.3971498e-06
2.3922711e-06
2.3880572e-06
2.3844157e-06
2.3812692e-06
2.3785525e-06
2.3762108e-06
2.3741974e-06
2.3724708e-06
2.3709894e-06
2.3697027e-06
2.3685293e-06
2.3673279e-06
2.3658021e-06
2.3634371e-06
2.3592792e-06
2.3519402e-06
2.339455e-06
2.320266e-06
2.2940659e-06
2.2623294e-06
2.6732945e-06
2.581796e-06
2.5510525e-06
2.5324838e-06
2.5140288e-06
2.4953424e-06
2.4777284e-06
2.4619201e-06
2.4480888e-06
2.4361274e-06
2.4258303e-06
2.4169764e-06
2.4093605e-06
2.4028029e-06
2.3971498e-06
2.3922712e-06
2.3880573e-06
2.3844158e-06
2.3812692e-06
2.3785523e-06
2.3762104e-06
2.3741966e-06
2.3724694e-06
2.3709878e-06
2.3697026e-06
2.3685398e-06
2.3673706e-06
2.3659574e-06
2.36389e-06
2.360479e-06
2.3548262e-06
2.3458353e-06
2.3327637e-06
2.3157346e-06
2.2959041e-06
2.6732945e-06
2.5817959e-06
2.5510524e-06
2.5324838e-06
2.5140288e-06
2.4953424e-06
2.4777284e-06
2.4619201e-06
2.4480888e-06
2.4361274e-06
2.4258303e-06
2.4169764e-06
2.4093605e-06
2.4028029e-06
2.3971499e-06
2.3922713e-06
2.3880574e-06
2.3844159e-06
2.3812692e-06
2.3785522e-06
2.3762099e-06
2.3741956e-06
2.3724678e-06
2.3709859e-06
2.3697023e-06
2.3685491e-06
2.3674136e-06
2.3661015e-06
2.3642999e-06
2.361527e-06
2.3572076e-06
2.3507587e-06
2.3418864e-06
2.3308435e-06
2.31844e-06
2.6732944e-06
2.5817959e-06
2.5510524e-06
2.5324837e-06
2.5140287e-06
2.4953424e-06
2.4777284e-06
2.4619201e-06
2.4480888e-06
2.4361274e-06
2.4258303e-06
2.4169764e-06
2.4093606e-06
2.402803e-06
2.39715e-06
2.3922714e-06
2.3880575e-06
2.3844159e-06
2.3812692e-06
2.378552e-06
2.3762094e-06
2.3741946e-06
2.372466e-06
2.3709835e-06
2.3697015e-06
2.3685575e-06
2.3674541e-06
2.3662342e-06
2.3646629e-06
2.3624127e-06
2.3591279e-06
2.3545144e-06
2.3484978e-06
2.3413291e-06
2.3335396e-06
2.6732944e-06
2.5817958e-06
2.5510523e-06
2.5324837e-06
2.5140287e-06
2.4953424e-06
2.4777284e-06
2.46192e-06
2.4480888e-06
2.4361274e-06
2.4258304e-06
2.4169765e-06
2.4093606e-06
2.4028031e-06
2.3971501e-06
2.3922715e-06
2.3880576e-06
2.384416e-06
2.3812692e-06
2.3785518e-06
2.3762088e-06
2.3741933e-06
2.3724638e-06
2.3709807e-06
2.3697001e-06
2.3685646e-06
2.3674907e-06
2.366353e-06
2.3649774e-06
2.3631459e-06
2.3606464e-06
2.357342e-06
2.3532507e-06
2.3485747e-06
2.3436465e-06
2.6732944e-06
2.5817957e-06
2.5510523e-06
2.5324837e-06
2.5140287e-06
2.4953423e-06
2.4777283e-06
2.46192e-06
2.4480888e-06
2.4361275e-06
2.4258304e-06
2.4169765e-06
2.4093607e-06
2.4028032e-06
2.3971503e-06
2.3922717e-06
2.3880578e-06
2.3844162e-06
2.3812692e-06
2.3785516e-06
2.3762081e-06
2.3741919e-06
2.3724614e-06
2.3709775e-06
2.3696978e-06
2.36857e-06
2.3675226e-06
2.366456e-06
2.365243e-06
2.3637403e-06
2.3618259e-06
2.3594433e-06
2.3566393e-06
2.3535595e-06
2.3504045e-06
2.6732944e-06
2.5817956e-06
2.5510522e-06
2.5324836e-06
2.5140286e-06
2.4953423e-06
2.4777283e-06
2.46192e-06
2.4480888e-06
2.4361275e-06
2.4258304e-06
2.4169766e-06
2.4093608e-06
2.4028033e-06
2.3971504e-06
2.3922719e-06
2.388058e-06
2.3844163e-06
2.3812692e-06
2.3785513e-06
2.3762074e-06
2.3741903e-06
2.3724587e-06
2.3709736e-06
2.3696945e-06
2.3685733e-06
2.3675488e-06
2.3665422e-06
2.365461e-06
2.3642115e-06
2.3627251e-06
2.3609836e-06
2.3590333e-06
2.3569717e-06
2.3549152e-06
2.6732943e-06
2.5817955e-06
2.5510521e-06
2.5324835e-06
2.5140286e-06
2.4953423e-06
2.4777283e-06
2.46192e-06
2.4480888e-06
2.4361275e-06
2.4258305e-06
2.4169767e-06
2.4093609e-06
2.4028035e-06
2.3971506e-06
2.3922721e-06
2.3880582e-06
2.3844165e-06
2.3812692e-06
2.378551e-06
2.3762065e-06
2.3741885e-06
2.3724555e-06
2.3709691e-06
2.36969e-06
2.3685742e-06
2.3675689e-06
2.3666115e-06
2.3656343e-06
2.3645757e-06
2.363397e-06
2.3620953e-06
2.3607066e-06
2.3592918e-06
2.3579155e-06
2.6732943e-06
2.5817954e-06
2.551052e-06
2.5324835e-06
2.5140285e-06
2.4953422e-06
2.4777282e-06
2.46192e-06
2.4480888e-06
2.4361275e-06
2.4258305e-06
2.4169768e-06
2.409361e-06
2.4028036e-06
2.3971508e-06
2.3922723e-06
2.3880584e-06
2.3844167e-06
2.3812693e-06
2.3785507e-06
2.3762056e-06
2.3741865e-06
2.372452e-06
2.370964e-06
2.3696844e-06
2.3685725e-06
2.3675826e-06
2.3666642e-06
2.3657669e-06
2.3648489e-06
2.3638873e-06
2.3628833e-06
2.3618607e-06
2.3608546e-06
2.3598989e-06
2.6732943e-06
2.5817953e-06
2.5510519e-06
2.5324834e-06
2.5140285e-06
2.4953422e-06
2.4777282e-06
2.46192e-06
2.4480888e-06
2.4361275e-06
2.4258306e-06
2.4169769e-06
2.4093612e-06
2.4028038e-06
2.3971511e-06
2.3922726e-06
2.3880587e-06
2.3844169e-06
2.3812693e-06
2.3785504e-06
2.3762045e-06
2.3741843e-06
2.3724481e-06
2.3709581e-06
2.3696774e-06
2.3685681e-06
2.3675899e-06
2.3667012e-06
2.3658634e-06
2.3650465e-06
2.3642351e-06
2.3634294e-06
2.3626428e-06
2.3618932e-06
2.3611968e-06
2.6732942e-06
2.5817952e-06
2.5510519e-06
2.5324833e-06
2.5140284e-06
2.4953421e-06
2.4777282e-06
2.4619199e-06
2.4480888e-06
2.4361276e-06
2.4258307e-06
2.416977e-06
2.4093614e-06
2.4028041e-06
2.3971513e-06
2.3922729e-06
2.3880591e-06
2.3844172e-06
2.3812694e-06
2.3785501e-06
2.3762034e-06
2.3741819e-06
2.3724438e-06
2.3709515e-06
2.3696691e-06
2.3685609e-06
2.3675909e-06
2.3667238e-06
2.3659288e-06
2.3651825e-06
2.3644726e-06
2.3637967e-06
2.3631601e-06
2.3625701e-06
2.3620323e-06
2.6732942e-06
2.5817951e-06
2.5510518e-06
2.5324832e-06
2.5140283e-06
2.4953421e-06
2.4777281e-06
2.4619199e-06
2.4480888e-06
2.4361276e-06
2.4258308e-06
2.4169771e-06
2.4093616e-06
2.4028043e-06
2.3971517e-06
2.3922733e-06
2.3880594e-06
2.3844175e-06
2.3812695e-06
2.3785497e-06
2.3762022e-06
2.3741792e-06
2.372439e-06
2.3709442e-06
2.3696595e-06
2.3685511e-06
2.3675861e-06
2.3667338e-06
2.3659681e-06
2.3652695e-06
2.3646262e-06
2.3640333e-06
2.3634905e-06
2.3629983e-06
2.3625565e-06
2.6732941e-06
2.581795e-06
2.5510517e-06
2.5324832e-06
2.5140283e-06
2.495342e-06
2.4777281e-06
2.4619199e-06
2.4480889e-06
2.4361277e-06
2.4258309e-06
2.4169773e-06
2.4093618e-06
2.4028047e-06
2.3971521e-06
2.3922738e-06
2.3880599e-06
2.3844179e-06
2.3812697e-06
2.3785493e-06
2.3762009e-06
2.3741763e-06
2.3724339e-06
2.3709362e-06
2.3696486e-06
2.3685387e-06
2.367576e-06
2.3667329e-06
2.3659861e-06
2.3653182e-06
2.3647171e-06
2.3641758e-06
2.36369e-06
2.3632566e-06
2.362872e-06
2.6732941e-06
2.5817948e-06
2.5510516e-06
2.5324831e-06
2.5140282e-06
2.495342e-06
2.4777281e-06
2.4619199e-06
2.4480889e-06
2.4361278e-06
2.425831e-06
2.4169775e-06
2.4093621e-06
2.402805e-06
2.3971525e-06
2.3922743e-06
2.3880604e-06
2.3844183e-06
2.3812699e-06
2.378549e-06
2.3761995e-06
2.3741733e-06
2.3724284e-06
2.3709275e-06
2.3696365e-06
2.3685241e-06
2.3675614e-06
2.366723e-06
2.3659873e-06
2.3653378e-06
2.3647621e-06
2.3642514e-06
2.3637993e-06
2.3634e-06
2.3630484e-06
2.673294e-06
2.5817947e-06
2.5510514e-06
2.532483e-06
2.5140281e-06
2.4953419e-06
2.477728e-06
2.4619199e-06
2.4480889e-06
2.4361279e-06
2.4258312e-06
2.4169777e-06
2.4093624e-06
2.4028054e-06
2.397153e-06
2.3922748e-06
2.388061e-06
2.3844189e-06
2.3812701e-06
2.3785486e-06
2.376198e-06
2.37417e-06
2.3724225e-06
2.3709182e-06
2.3696235e-06
2.3685076e-06
2.3675432e-06
2.3667059e-06
2.3659757e-06
2.365336e-06
2.3647743e-06
2.3642807e-06
2.3638471e-06
2.3634667e-06
2.3631332e-06
2.6732939e-06
2.5817945e-06
2.5510513e-06
2.5324829e-06
2.514028e-06
2.4953418e-06
2.477728e-06
2.4619199e-06
2.448089e-06
2.436128e-06
2.4258314e-06
2.416978e-06
2.4093628e-06
2.4028059e-06
2.3971536e-06
2.3922755e-06
2.3880617e-06
2.3844195e-06
2.3812704e-06
2.3785483e-06
2.3761965e-06
2.3741666e-06
2.3724164e-06
2.3709085e-06
2.3696096e-06
2.3684897e-06
2.3675221e-06
2.3666836e-06
2.3659546e-06
2.3653191e-06
2.3647639e-06
2.3642785e-06
2.3638542e-06
2.3634832e-06
2.3631589e-06
2.6732939e-06
2.5817944e-06
2.5510512e-06
2.5324828e-06
2.514028e-06
2.4953418e-06
2.477728e-06
2.4619199e-06
2.448089e-06
2.4361281e-06
2.4258316e-06
2.4169783e-06
2.4093632e-06
2.4028065e-06
2.3971543e-06
2.3922763e-06
2.3880625e-06
2.3844202e-06
2.3812708e-06
2.378548e-06
2.376195e-06
2.3741631e-06
2.37241e-06
2.3708984e-06
2.3695951e-06
2.3684707e-06
2.367499e-06
2.3666575e-06
2.3659271e-06
2.3652919e-06
2.3647385e-06
2.364256e-06
2.3638352e-06
2.363468e-06
2.3631474e-06
2.6732938e-06
2.5817942e-06
2.5510511e-06
2.5324827e-06
2.5140279e-06
2.4953417e-06
2.477728e-06
2.46192e-06
2.4480891e-06
2.4361283e-06
2.4258318e-06
2.4169787e-06
2.4093637e-06
2.4028071e-06
2.397155e-06
2.3922772e-06
2.3880635e-06
2.384421e-06
2.3812713e-06
2.3785478e-06
2.3761935e-06
2.3741596e-06
2.3724035e-06
2.3708881e-06
2.3695803e-06
2.368451e-06
2.3674747e-06
2.3666292e-06
2.3658957e-06
2.3652583e-06
2.3647039e-06
2.3642211e-06
2.3638004e-06
2.3634336e-06
2.3631138e-06
2.6732938e-06
2.581794e-06
2.5510509e-06
2.5324826e-06
2.5140278e-06
2.4953417e-06
2.4777279e-06
2.46192e-06
2.4480892e-06
2.4361285e-06
2.4258322e-06
2.4169791e-06
2.4093643e-06
2.4028078e-06
2.3971559e-06
2.3922782e-06
2.3880645e-06
2.384422e-06
2.381272e-06
2.3785476e-06
2.376192e-06
2.374156e-06
2.3723971e-06
2.3708778e-06
2.3695655e-06
2.3684313e-06
2.3674499e-06
2.3665998e-06
2.3658622e-06
2.3652215e-06
2.3646643e-06
2.3641794e-06
2.363757e-06
2.3633889e-06
2.3630679e-06
2.6732937e-06
2.5817939e-06
2.5510508e-06
2.5324825e-06
2.5140277e-06
2.4953416e-06
2.4777279e-06
2.4619201e-06
2.4480894e-06
2.4361287e-06
2.4258325e-06
2.4169796e-06
2.4093649e-06
2.4028087e-06
2.3971569e-06
2.3922794e-06
2.3880658e-06
2.3844232e-06
2.3812728e-06
2.3785476e-06
2.3761907e-06
2.3741526e-06
2.3723907e-06
2.3708677e-06
2.3695509e-06
2.3684117e-06
2.3674254e-06
2.3665703e-06
2.3658283e-06
2.3651836e-06
2.3646229e-06
2.3641349e-06
2.3637099e-06
2.3633395e-06
2.3630166e-06
2.6732936e-06
2.5817937e-06
2.5510507e-06
2.5324824e-06
2.5140276e-06
2.4953416e-06
2.4777279e-06
2.4619201e-06
2.4480895e-06
2.436129e-06
2.4258329e-06
2.4169802e-06
2.4093657e-06
2.4028096e-06
2.3971581e-06
2.3922807e-06
2.3880672e-06
2.3844245e-06
2.3812737e-06
2.3785478e-06
2.3761895e-06
2.3741493e-06
2.3723845e-06
2.3708578e-06
2.3695368e-06
2.3683929e-06
2.3674016e-06
2.3665417e-06
2.3657951e-06
2.3651462e-06
2.3645818e-06
2.3640904e-06
2.3636624e-06
2.3632895e-06
2.3629643e-06
2.6732936e-06
2.5817935e-06
2.5510505e-06
2.5324823e-06
2.5140276e-06
2.4953415e-06
2.477728e-06
2.4619202e-06
2.4480897e-06
2.4361293e-06
2.4258334e-06
2.4169809e-06
2.4093666e-06
2.4028107e-06
2.3971594e-06
2.3922822e-06
2.3880688e-06
2.384426e-06
2.3812749e-06
2.3785482e-06
2.3761885e-06
2.3741463e-06
2.3723787e-06
2.3708485e-06
2.3695233e-06
2.368375e-06
2.3673791e-06
2.3665147e-06
2.3657637e-06
2.3651107e-06
2.3645425e-06
2.3640478e-06
2.3636168e-06
2.3632412e-06
2.3629137e-06
2.6732935e-06
2.5817933e-06
2.5510504e-06
2.5324822e-06
2.5140275e-06
2.4953415e-06
2.477728e-06
2.4619203e-06
2.44809e-06
2.4361297e-06
2.4258339e-06
2.4169816e-06
2.4093676e-06
2.402812e-06
2.3971609e-06
2.3922839e-06
2.3880706e-06
2.3844278e-06
2.3812763e-06
2.3785488e-06
2.3761878e-06
2.3741436e-06
2.3723734e-06
2.3708399e-06
2.3695109e-06
2.3683584e-06
2.3673582e-06
2.3664895e-06
2.3657345e-06
2.3650777e-06
2.364506e-06
2.3640082e-06
2.3635744e-06
2.3631963e-06
2.3628666e-06
2.6732934e-06
2.5817931e-06
2.5510502e-06
2.532482e-06
2.5140274e-06
2.4953415e-06
2.477728e-06
2.4619205e-06
2.4480902e-06
2.4361301e-06
2.4258346e-06
2.4169825e-06
2.4093687e-06
2.4028134e-06
2.3971626e-06
2.3922858e-06
2.3880727e-06
2.3844298e-06
2.381278e-06
2.3785498e-06
2.3761875e-06
2.3741414e-06
2.3723686e-06
2.3708321e-06
2.3694996e-06
2.3683434e-06
2.3673393e-06
2.3664668e-06
2.365708e-06
2.3650478e-06
2.364473e-06
2.3639723e-06
2.363536e-06
2.3631556e-06
2.3628239e-06
2.6732934e-06
2.581793e-06
2.5510501e-06
2.5324819e-06
2.5140273e-06
2.4953415e-06
2.4777281e-06
2.4619207e-06
2.4480906e-06
2.4361306e-06
2.4258353e-06
2.4169835e-06
2.40937e-06
2.402815e-06
2.3971645e-06
2.392288e-06
2.3880751e-06
2.3844321e-06
2.38128e-06
2.3785511e-06
2.3761875e-06
2.3741397e-06
2.3723646e-06
2.3708253e-06
2.3694897e-06
2.36833e-06
2.3673225e-06
2.3664466e-06
2.3656846e-06
2.3650214e-06
2.3644438e-06
2.3639406e-06
2.363502e-06
2.3631196e-06
2.3627861e-06
2.6732933e-06
2.5817928e-06
2.55105e-06
2.5324818e-06
2.5140273e-06
2.4953415e-06
2.4777282e-06
2.4619209e-06
2.448091e-06
2.4361312e-06
2.4258362e-06
2.4169846e-06
2.4093714e-06
2.4028168e-06
2.3971667e-06
2.3922905e-06
2.3880777e-06
2.3844348e-06
2.3812824e-06
2.3785528e-06
2.3761881e-06
2.3741387e-06
2.3723615e-06
2.3708196e-06
2.3694812e-06
2.3683186e-06
2.367308e-06
2.3664292e-06
2.3656644e-06
2.3649985e-06
2.3644185e-06
2.3639131e-06
2.3634726e-06
2.3630884e-06
2.3627534e-06
2.6732933e-06
2.5817927e-06
2.5510498e-06
2.5324818e-06
2.5140272e-06
2.4953415e-06
2.4777283e-06
2.4619212e-06
2.4480914e-06
2.4361319e-06
2.4258371e-06
2.4169859e-06
2.4093731e-06
2.4028189e-06
2.3971691e-06
2.3922933e-06
2.3880807e-06
2.3844379e-06
2.3812852e-06
2.378555e-06
2.3761893e-06
2.3741384e-06
2.3723593e-06
2.3708152e-06
2.3694743e-06
2.368309e-06
2.3672959e-06
2.3664145e-06
2.3656473e-06
2.3649792e-06
2.3643971e-06
2.3638899e-06
2.3634477e-06
2.3630621e-06
2.3627258e-06
2.6732933e-06
2.5817926e-06
2.5510497e-06
2.5324817e-06
2.5140272e-06
2.4953416e-06
2.4777285e-06
2.4619215e-06
2.4480919e-06
2.4361327e-06
2.4258382e-06
2.4169874e-06
2.409375e-06
2.4028212e-06
2.3971719e-06
2.3922964e-06
2.3880841e-06
2.3844414e-06
2.3812885e-06
2.3785578e-06
2.3761911e-06
2.3741389e-06
2.3723581e-06
2.3708121e-06
2.369469e-06
2.3683016e-06
2.3672862e-06
2.3664026e-06
2.3656334e-06
2.3649634e-06
2.3643796e-06
2.3638708e-06
2.3634272e-06
2.3630404e-06
2.362703e-06
2.6732933e-06
2.5817925e-06
2.5510496e-06
2.5324816e-06
2.5140272e-06
2.4953416e-06
2.4777287e-06
2.4619219e-06
2.4480926e-06
2.4361336e-06
2.4258395e-06
2.416989e-06
2.4093771e-06
2.4028237e-06
2.3971749e-06
2.3922999e-06
2.3880879e-06
2.3844453e-06
2.3812923e-06
2.3785611e-06
2.3761937e-06
2.3741403e-06
2.3723581e-06
2.3708104e-06
2.3694655e-06
2.3682961e-06
2.3672789e-06
2.3663935e-06
2.3656225e-06
2.364951e-06
2.3643658e-06
2.3638557e-06
2.3634109e-06
2.3630231e-06
2.3626848e-06
2.6732933e-06
2.5817925e-06
2.5510496e-06
2.5324816e-06
2.5140272e-06
2.4953417e-06
2.477729e-06
2.4619223e-06
2.4480933e-06
2.4361346e-06
2.4258409e-06
2.4169909e-06
2.4093794e-06
2.4028266e-06
2.3971784e-06
2.3923038e-06
2.3880922e-06
2.3844497e-06
2.3812967e-06
2.3785651e-06
2.376197e-06
2.3741426e-06
2.3723592e-06
2.37081e-06
2.3694636e-06
2.3682927e-06
2.3672739e-06
2.366387e-06
2.3656147e-06
2.3649418e-06
2.3643554e-06
2.3638443e-06
2.3633986e-06
2.3630098e-06
2.3626708e-06
2.6732933e-06
2.5817925e-06
2.5510495e-06
2.5324815e-06
2.5140272e-06
2.4953419e-06
2.4777293e-06
2.4619228e-06
2.4480941e-06
2.4361358e-06
2.4258425e-06
2.416993e-06
2.4093821e-06
2.4028299e-06
2.3971822e-06
2.3923081e-06
2.3880969e-06
2.3844547e-06
2.3813016e-06
2.3785698e-06
2.3762012e-06
2.3741459e-06
2.3723615e-06
2.3708112e-06
2.3694635e-06
2.3682913e-06
2.3672712e-06
2.3663831e-06
2.3656096e-06
2.3649357e-06
2.3643483e-06
2.3638363e-06
2.3633898e-06
2.3630004e-06
2.3626608e-06
2.6732933e-06
2.5817926e-06
2.5510495e-06
2.5324815e-06
2.5140273e-06
2.4953421e-06
2.4777296e-06
2.4619235e-06
2.448095e-06
2.4361372e-06
2.4258443e-06
2.4169953e-06
2.4093851e-06
2.4028335e-06
2.3971864e-06
2.3923129e-06
2.3881022e-06
2.3844603e-06
2.3813073e-06
2.3785753e-06
2.3762062e-06
2.3741503e-06
2.372365e-06
2.3708138e-06
2.369465e-06
2.3682918e-06
2.3672707e-06
2.3663816e-06
2.3656072e-06
2.3649324e-06
2.3643443e-06
2.3638315e-06
2.3633844e-06
2.3629945e-06
2.3626543e-06
2.6732934e-06
2.5817927e-06
2.5510495e-06
2.5324815e-06
2.5140274e-06
2.4953423e-06
2.47773e-06
2.4619242e-06
2.4480961e-06
2.4361387e-06
2.4258464e-06
2.416998e-06
2.4093884e-06
2.4028375e-06
2.3971911e-06
2.3923182e-06
2.388108e-06
2.3844664e-06
2.3813136e-06
2.3785815e-06
2.3762121e-06
2.3741557e-06
2.3723698e-06
2.3708178e-06
2.3694682e-06
2.3682942e-06
2.3672722e-06
2.3663824e-06
2.3656072e-06
2.3649318e-06
2.364343e-06
2.3638297e-06
2.3633821e-06
2.3629917e-06
2.3626512e-06
2.6732935e-06
2.5817928e-06
2.5510495e-06
2.5324815e-06
2.5140275e-06
2.4953425e-06
2.4777305e-06
2.461925e-06
2.4480973e-06
2.4361404e-06
2.4258486e-06
2.4170009e-06
2.409392e-06
2.4028419e-06
2.3971962e-06
2.3923241e-06
2.3881144e-06
2.3844732e-06
2.3813206e-06
2.3785885e-06
2.376219e-06
2.3741622e-06
2.3723758e-06
2.3708232e-06
2.3694731e-06
2.3682983e-06
2.3672758e-06
2.3663853e-06
2.3656095e-06
2.3649336e-06
2.3643443e-06
2.3638306e-06
2.3633826e-06
2.3629919e-06
2.362651e-06
2.6732936e-06
2.5817931e-06
2.5510496e-06
2.5324816e-06
2.5140276e-06
2.4953429e-06
2.4777311e-06
2.4619259e-06
2.4480987e-06
2.4361423e-06
2.4258512e-06
2.4170042e-06
2.4093961e-06
2.4028468e-06
2.3972019e-06
2.3923305e-06
2.3881215e-06
2.3844807e-06
2.3813284e-06
2.3785964e-06
2.3762268e-06
2.3741698e-06
2.3723831e-06
2.37083e-06
2.3694794e-06
2.3683042e-06
2.3672811e-06
2.3663902e-06
2.365614e-06
2.3649376e-06
2.364348e-06
2.363834e-06
2.3633857e-06
2.3629946e-06
2.3626535e-06
2.6732938e-06
2.5817934e-06
2.5510497e-06
2.5324817e-06
2.5140278e-06
2.4953432e-06
2.4777318e-06
2.461927e-06
2.4481002e-06
2.4361444e-06
2.4258541e-06
2.4170079e-06
2.4094006e-06
2.4028521e-06
2.3972081e-06
2.3923375e-06
2.3881291e-06
2.3844889e-06
2.3813369e-06
2.3786051e-06
2.3762355e-06
2.3741785e-06
2.3723915e-06
2.3708382e-06
2.3694872e-06
2.3683116e-06
2.3672882e-06
2.3663969e-06
2.3656204e-06
2.3649437e-06
2.3643539e-06
2.3638395e-06
2.363391e-06
2.3629998e-06
2.3626585e-06
2.673294e-06
2.5817937e-06
2.5510498e-06
2.5324818e-06
2.514028e-06
2.4953437e-06
2.4777326e-06
2.4619282e-06
2.448102e-06
2.4361469e-06
2.4258572e-06
2.4170119e-06
2.4094055e-06
2.4028579e-06
2.3972149e-06
2.3923451e-06
2.3881374e-06
2.3844978e-06
2.3813463e-06
2.3786147e-06
2.3762452e-06
2.3741881e-06
2.3724011e-06
2.3708476e-06
2.3694964e-06
2.3683206e-06
2.3672969e-06
2.3664054e-06
2.3656287e-06
2.3649517e-06
2.3643616e-06
2.3638471e-06
2.3633984e-06
2.363007e-06
2.3626656e-06
2.6732942e-06
2.5817941e-06
2.55105e-06
2.532482e-06
2.5140283e-06
2.4953442e-06
2.4777334e-06
2.4619295e-06
2.4481039e-06
2.4361495e-06
2.4258607e-06
2.4170163e-06
2.4094109e-06
2.4028643e-06
2.3972222e-06
2.3923533e-06
2.3881464e-06
2.3845074e-06
2.3813563e-06
2.3786251e-06
2.3762558e-06
2.3741988e-06
2.3724118e-06
2.3708582e-06
2.3695069e-06
2.3683309e-06
2.3673071e-06
2.3664154e-06
2.3656385e-06
2.3649614e-06
2.3643712e-06
2.3638566e-06
2.3634077e-06
2.3630162e-06
2.3626747e-06
2.6732944e-06
2.5817946e-06
2.5510502e-06
2.5324821e-06
2.5140286e-06
2.4953448e-06
2.4777344e-06
2.461931e-06
2.4481061e-06
2.4361525e-06
2.4258646e-06
2.4170211e-06
2.4094167e-06
2.4028712e-06
2.3972301e-06
2.3923621e-06
2.3881561e-06
2.3845178e-06
2.3813672e-06
2.3786364e-06
2.3762673e-06
2.3742105e-06
2.3724235e-06
2.3708699e-06
2.3695186e-06
2.3683426e-06
2.3673187e-06
2.3664269e-06
2.3656499e-06
2.3649727e-06
2.3643824e-06
2.3638676e-06
2.3634187e-06
2.3630271e-06
2.3626855e-06
2.6732947e-06
2.5817951e-06
2.5510504e-06
2.5324823e-06
2.514029e-06
2.4953455e-06
2.4777355e-06
2.4619327e-06
2.4481085e-06
2.4361558e-06
2.4258688e-06
2.4170264e-06
2.4094231e-06
2.4028787e-06
2.3972386e-06
2.3923716e-06
2.3881664e-06
2.3845288e-06
2.3813789e-06
2.3786485e-06
2.3762797e-06
2.3742231e-06
2.3724362e-06
2.3708828e-06
2.3695314e-06
2.3683554e-06
2.3673315e-06
2.3664396e-06
2.3656626e-06
2.3649853e-06
2.3643949e-06
2.3638802e-06
2.3634312e-06
2.3630395e-06
2.3626979e-06
2.6732949e-06
2.5817956e-06
2.5510506e-06
2.5324826e-06
2.5140294e-06
2.4953462e-06
2.4777368e-06
2.4619346e-06
2.4481112e-06
2.4361594e-06
2.4258735e-06
2.4170322e-06
2.40943e-06
2.4028868e-06
2.3972478e-06
2.3923818e-06
2.3881775e-06
2.3845407e-06
2.3813913e-06
2.3786614e-06
2.376293e-06
2.3742367e-06
2.37245e-06
2.3708966e-06
2.3695454e-06
2.3683694e-06
2.3673455e-06
2.3664536e-06
2.3656766e-06
2.3649993e-06
2.3644089e-06
2.3638941e-06
2.3634451e-06
2.3630534e-06
2.3627118e-06
2.6732952e-06
2.581796e-06
2.5510508e-06
2.5324828e-06
2.5140299e-06
2.4953471e-06
2.4777382e-06
2.4619368e-06
2.4481142e-06
2.4361634e-06
2.4258786e-06
2.4170385e-06
2.4094376e-06
2.4028956e-06
2.3972577e-06
2.3923928e-06
2.3881894e-06
2.3845533e-06
2.3814046e-06
2.3786752e-06
2.3763073e-06
2.3742512e-06
2.3724648e-06
2.3709116e-06
2.3695604e-06
2.3683845e-06
2.3673607e-06
2.3664689e-06
2.3656918e-06
2.3650146e-06
2.3644242e-06
2.3639093e-06
2.3634603e-06
2.3630687e-06
2.362727e-06
2.6732953e-06
2.5817963e-06
2.5510511e-06
2.5324832e-06
2.5140305e-06
2.4953481e-06
2.4777399e-06
2.4619392e-06
2.4481176e-06
2.4361679e-06
2.4258843e-06
2.4170454e-06
2.4094458e-06
2.402905e-06
2.3972683e-06
2.3924044e-06
2.388202e-06
2.3845667e-06
2.3814186e-06
2.3786898e-06
2.3763222e-06
2.3742665e-06
2.3724803e-06
2.3709273e-06
2.3695764e-06
2.3684006e-06
2.3673768e-06
2.366485e-06
2.365708e-06
2.3650308e-06
2.3644404e-06
2.3639256e-06
2.3634766e-06
2.363085e-06
2.3627433e-06
2.6732952e-06
2.5817963e-06
2.5510512e-06
2.5324834e-06
2.5140311e-06
2.4953492e-06
2.4777416e-06
2.4619418e-06
2.4481213e-06
2.4361727e-06
2.4258903e-06
2.4170528e-06
2.4094544e-06
2.4029149e-06
2.3972794e-06
2.3924166e-06
2.3882151e-06
2.3845806e-06
2.3814332e-06
2.3787049e-06
2.3763378e-06
2.3742825e-06
2.3724965e-06
2.3709438e-06
2.369593e-06
2.3684173e-06
2.3673936e-06
2.3665019e-06
2.365725e-06
2.3650478e-06
2.3644575e-06
2.3639427e-06
2.3634937e-06
2.3631021e-06
2.3627604e-06
2.6732951e-06
2.5817962e-06
2.5510513e-06
2.5324837e-06
2.5140317e-06
2.4953504e-06
2.4777435e-06
2.4619447e-06
2.4481252e-06
2.4361778e-06
2.4258968e-06
2.4170606e-06
2.4094637e-06
2.4029254e-06
2.3972911e-06
2.3924294e-06
2.3882288e-06
2.3845952e-06
2.3814485e-06
2.3787207e-06
2.3763541e-06
2.3742991e-06
2.3725134e-06
2.3709609e-06
2.3696103e-06
2.3684348e-06
2.3674112e-06
2.3665196e-06
2.3657428e-06
2.3650657e-06
2.3644754e-06
2.3639606e-06
2.3635117e-06
2.3631201e-06
2.3627784e-06
2.673295e-06
2.5817962e-06
2.5510516e-06
2.5324842e-06
2.5140326e-06
2.4953518e-06
2.4777458e-06
2.461948e-06
2.4481297e-06
2.4361836e-06
2.425904e-06
2.4170692e-06
2.4094736e-06
2.4029367e-06
2.3973037e-06
2.392443e-06
2.3882434e-06
2.3846105e-06
2.3814645e-06
2.3787373e-06
2.3763711e-06
2.3743165e-06
2.3725312e-06
2.3709789e-06
2.3696285e-06
2.3684531e-06
2.3674297e-06
2.3665382e-06
2.3657614e-06
2.3650844e-06
2.3644942e-06
2.3639795e-06
2.3635306e-06
2.363139e-06
2.3627974e-06
2.6732949e-06
2.5817962e-06
2.5510521e-06
2.5324849e-06
2.5140337e-06
2.4953536e-06
2.4777485e-06
2.4619517e-06
2.4481347e-06
2.43619e-06
2.4259118e-06
2.4170785e-06
2.4094843e-06
2.4029487e-06
2.3973168e-06
2.3924573e-06
2.3882586e-06
2.3846265e-06
2.3814811e-06
2.3787545e-06
2.3763888e-06
2.3743346e-06
2.3725495e-06
2.3709975e-06
2.3696473e-06
2.3684721e-06
2.3674488e-06
2.3665574e-06
2.3657808e-06
2.3651038e-06
2.3645136e-06
2.363999e-06
2.3635501e-06
2.3631586e-06
2.362817e-06
2.6732948e-06
2.5817963e-06
2.5510526e-06
2.5324857e-06
2.514035e-06
2.4953556e-06
2.4777514e-06
2.4619558e-06
2.4481401e-06
2.4361969e-06
2.4259201e-06