/*--------------------------------*- C++ -*----------------------------------*\
  =========                 |
  \\      /  F ield         | OpenFOAM: The Open Source CFD Toolbox
   \\    /   O peration     | Website:  https://openfoam.org
    \\  /    A nd           | Version:  12
     \\/     M anipulation  |
\*---------------------------------------------------------------------------*/
FoamFile
{
    format      ascii;
    class       volVectorField;
    location    "1000";
    object      U;
}
// * * * * * * * * * * * * * * * * * * * * * * * * * * * * * * * * * * * * * //

dimensions      [0 1 -1 0 0 0 0];

internalField   nonuniform List<vector> 
66675
(
(5.3999982 9.9666592e-08 0)
(5.3993873 1.748033e-06 0)
(5.3981239 3.2552508e-06 0)
(5.3963076 4.9247711e-06 0)
(5.394035 6.802677e-06 0)
(5.3913645 9.0011292e-06 0)
(5.3883175 1.1643919e-05 0)
(5.3849015 1.4854535e-05 0)
(5.3811145 1.8782282e-05 0)
(5.3769462 2.36122e-05 0)
(5.3723797 2.9572674e-05 0)
(5.367392 3.6949336e-05 0)
(5.3619548 4.6103023e-05 0)
(5.3560331 5.7492349e-05 0)
(5.3495856 7.1703649e-05 0)
(5.3425627 8.9491734e-05 0)
(5.3349061 0.00011183584 0)
(5.3265458 0.00014001689 0)
(5.3173982 0.00017572871 0)
(5.3073623 0.00022123234 0)
(5.2963149 0.00027959935 0)
(5.2841024 0.0003550302 0)
(5.2705346 0.00045348196 0)
(5.2553617 0.0005832732 0)
(5.2382735 0.000757234 0)
(5.2188128 0.00099298619 0)
(5.1964602 0.0013237616 0)
(5.1701743 0.0017873883 0)
(5.1392189 0.0025043321 0)
(5.1001116 0.0035255802 0)
(5.0536307 0.0055615466 0)
(4.9808909 0.0082428049 0)
(4.904468 0.018315673 0)
(4.6725264 0.031535985 0)
(4.5869748 0.16751395 0)
(5.3999982 3.5686684e-07 0)
(5.3993872 5.3451274e-06 0)
(5.3981238 9.9633728e-06 0)
(5.3963075 1.5073269e-05 0)
(5.394035 2.0821391e-05 0)
(5.3913644 2.7550355e-05 0)
(5.3883175 3.5638355e-05 0)
(5.3849015 4.5463697e-05 0)
(5.3811146 5.748294e-05 0)
(5.3769463 7.2261764e-05 0)
(5.3723798 9.0498462e-05 0)
(5.3673923 0.00011306587 0)
(5.3619551 0.00014106666 0)
(5.3560337 0.00017590197 0)
(5.3495865 0.00021936247 0)
(5.3425641 0.00027375249 0)
(5.334908 0.00034206062 0)
(5.3265486 0.00042819445 0)
(5.3174025 0.00053731865 0)
(5.3073685 0.00067632399 0)
(5.296324 0.00085456416 0)
(5.284116 0.0010848247 0)
(5.2705549 0.0013852096 0)
(5.2553925 0.0017810094 0)
(5.2383207 0.00231105 0)
(5.2188871 0.0030289533 0)
(5.1965779 0.0040341498 0)
(5.1703749 0.005443502 0)
(5.1395454 0.0076071031 0)
(5.1007957 0.010711021 0)
(5.0546906 0.016713536 0)
(4.9847326 0.024912475 0)
(4.910445 0.052164707 0)
(4.7246445 0.091637078 0)
(4.6534004 0.35522836 0)
(5.3999981 6.311855e-07 0)
(5.399387 9.1555532e-06 0)
(5.3981237 1.7082674e-05 0)
(5.3963074 2.5842723e-05 0)
(5.3940349 3.5697702e-05 0)
(5.3913643 4.7234413e-05 0)
(5.3883174 6.1100221e-05 0)
(5.3849015 7.7943661e-05 0)
(5.3811146 9.8547016e-05 0)
(5.3769464 0.00012387939 0)
(5.3723801 0.00015513666 0)
(5.3673927 0.00019381388 0)
(5.3619559 0.00024179905 0)
(5.3560348 0.00030149054 0)
(5.3495881 0.00037595315 0)
(5.3425665 0.00046912947 0)
(5.3349116 0.00058613086 0)
(5.3265538 0.00073363826 0)
(5.3174101 0.00092047744 0)
(5.3073797 0.0011584176 0)
(5.2963405 0.0014634216 0)
(5.2841405 0.0018572972 0)
(5.2705916 0.0023708669 0)
(5.2554481 0.0030472027 0)
(5.2384061 0.0039520465 0)
(5.2190217 0.0051767665 0)
(5.1967916 0.0068871652 0)
(5.1707379 0.0092857249 0)
(5.1401412 0.012931905 0)
(5.102015 0.018207671 0)
(5.0566406 0.027968427 0)
(4.9911584 0.04195743 0)
(4.9190697 0.080687955 0)
(4.7850692 0.14161029 0)
(4.7201053 0.38103858 0)
(5.399998 9.2649969e-07 0)
(5.3993867 1.3201166e-05 0)
(5.3981234 2.4642246e-05 0)
(5.3963072 3.7277415e-05 0)
(5.3940347 5.1492837e-05 0)
(5.3913642 6.8134396e-05 0)
(5.3883173 8.8135277e-05 0)
(5.3849015 0.00011243086 0)
(5.3811147 0.0001421496 0)
(5.3769467 0.00017868908 0)
(5.3723805 0.00022377389 0)
(5.3673934 0.00027955999 0)
(5.361957 0.00034876971 0)
(5.3560365 0.00043486106 0)
(5.3495906 0.00054225224 0)
(5.3425702 0.00067662618 0)
(5.3349171 0.00084534897 0)
(5.3265618 0.0010580462 0)
(5.3174218 0.0013274294 0)
(5.307397 0.0016704423 0)
(5.296366 0.0021100506 0)
(5.2841783 0.0026776112 0)
(5.2706483 0.0034173704 0)
(5.2555342 0.0043911421 0)
(5.2385384 0.0056928094 0)
(5.2192303 0.0074532843 0)
(5.1971237 0.009905919 0)
(5.1712999 0.013343063 0)
(5.1410716 0.018519521 0)
(5.1038573 0.026042775 0)
(5.0597348 0.039387349 0)
(4.9997368 0.05908565 0)
(4.9325705 0.10577346 0)
(4.8387703 0.17434896 0)
(4.7846546 0.37185399 0)
(5.3999978 1.2416751e-06 0)
(5.3993863 1.7494935e-05 0)
(5.398123 3.2667828e-05 0)
(5.3963069 4.9416388e-05 0)
(5.3940345 6.8260738e-05 0)
(5.391364 9.0321724e-05 0)
(5.3883172 0.00011683555 0)
(5.3849015 0.00014904215 0)
(5.3811148 0.00018843768 0)
(5.376947 0.00023687412 0)
(5.3723811 0.00029663742 0)
(5.3673944 0.00037058469 0)
(5.3619585 0.00046232366 0)
(5.3560389 0.00057643602 0)
(5.3495942 0.00071877517 0)
(5.3425755 0.00089686861 0)
(5.3349248 0.0011204708 0)
(5.3265732 0.001402324 0)
(5.3174384 0.0017592481 0)
(5.3074214 0.0022136505 0)
(5.296402 0.0027958753 0)
(5.284232 0.0035473165 0)
(5.2707289 0.0045262674 0)
(5.2556567 0.0058140855 0)
(5.2387268 0.0075336575 0)
(5.2195271 0.0098565978 0)
(5.1975964 0.013083186 0)
(5.1720948 0.017597065 0)
(5.1423937 0.024324496 0)
(5.1063801 0.034106799 0)
(5.0641173 0.050742263 0)
(5.0099891 0.075612224 0)
(4.9510046 0.12656337 0)
(4.8839521 0.20159248 0)
(4.8488376 0.35623581 0)
(5.3999977 1.5740663e-06 0)
(5.3993857 2.2051084e-05 0)
(5.3981225 4.1187659e-05 0)
(5.3963065 6.2302184e-05 0)
(5.3940342 8.6060211e-05 0)
(5.3913638 0.00011387425 0)
(5.3883171 0.00014730166 0)
(5.3849015 0.00018790572 0)
(5.381115 0.00023757261 0)
(5.3769475 0.00029863678 0)
(5.3723819 0.00037397925 0)
(5.3673958 0.00046720114 0)
(5.3619607 0.00058284873 0)
(5.3560421 0.00072669479 0)
(5.349599 0.0009061131 0)
(5.3425826 0.0011305838 0)
(5.3349353 0.001412388 0)
(5.3265885 0.0017675611 0)
(5.3174609 0.0022172567 0)
(5.3074544 0.0027896352 0)
(5.2964508 0.0035227857 0)
(5.2843045 0.0044686033 0)
(5.2708376 0.0056999852 0)
(5.255822 0.0073184995 0)
(5.2389809 0.0094765576 0)
(5.2199269 0.012387021 0)
(5.1982325 0.016414738 0)
(5.1731553 0.022032949 0)
(5.1441571 0.030308075 0)
(5.1096274 0.042296807 0)
(5.0697893 0.061860228 0)
(5.0217623 0.090955988 0)
(4.97196 0.14382987 0)
(4.9250318 0.21919471 0)
(4.9076488 0.34323509 0)
(5.3999975 1.9200863e-06 0)
(5.399385 2.688552e-05 0)
(5.3981219 5.0232161e-05 0)
(5.396306 7.5980598e-05 0)
(5.3940338 0.00010495451 0)
(5.3913635 0.00013887577 0)
(5.388317 0.00017964201 0)
(5.3849015 0.00022915964 0)
(5.3811153 0.00028972895 0)
(5.3769481 0.0003641957 0)
(5.3723831 0.00045607279 0)
(5.3673976 0.00056974971 0)
(5.3619635 0.00071076773 0)
(5.3560464 0.00088616138 0)
(5.3496053 0.0011049142 0)
(5.3425919 0.0013785719 0)
(5.3349489 0.0017220853 0)
(5.3266085 0.0021549645 0)
(5.3174901 0.0027029264 0)
(5.3074974 0.0034001724 0)
(5.2965143 0.004292894 0)
(5.284399 0.0054439192 0)
(5.2709794 0.0069412264 0)
(5.2560372 0.0089070931 0)
(5.2393115 0.011523576 0)
(5.2204452 0.015044552 0)
(5.199055 0.019895264 0)
(5.1745132 0.026632858 0)
(5.1464036 0.036427144 0)
(5.1136275 0.050506052 0)
(5.076685 0.072571529 0)
(5.0348233 0.10481254 0)
(4.9941269 0.15775336 0)
(4.9624357 0.22981157 0)
(4.9579779 0.33081786 0)
(5.3999973 2.2756793e-06 0)
(5.3993842 3.2015276e-05 0)
(5.3981211 5.9833842e-05 0)
(5.3963054 9.0500278e-05 0)
(5.3940333 0.00012501086 0)
(5.3913632 0.00016541522 0)
(5.3883168 0.00021397158 0)
(5.3849016 0.00027295039 0)
(5.3811157 0.0003450915 0)
(5.3769489 0.00043378319 0)
(5.3723845 0.00054320771 0)
(5.3674 0.00067859092 0)
(5.3619671 0.00084652793 0)
(5.3560518 0.0010553894 0)
(5.3496134 0.0013158619 0)
(5.3426038 0.0016416744 0)
(5.3349663 0.0020505948 0)
(5.3266339 0.0025657931 0)
(5.3175273 0.0032177799 0)
(5.307552 0.0040470807 0)
(5.296595 0.0051083264 0)
(5.284519 0.0064756618 0)
(5.2711593 0.0082525109 0)
(5.2563101 0.010582131 0)
(5.2397297 0.013675845 0)
(5.2210986 0.017827325 0)
(5.2000875 0.023516055 0)
(5.1761986 0.031372829 0)
(5.149166 0.042629803 0)
(5.1183892 0.058621909 0)
(5.084699 0.082715046 0)
(5.0488862 0.11700812 0)
(5.0167024 0.16861998 0)
(4.9964393 0.23539165 0)
(5.000244 0.31810356 0)
(5.399997 2.6366785e-06 0)
(5.3993832 3.7458321e-05 0)
(5.3981202 7.002711e-05 0)
(5.3963046 0.00010591262 0)
(5.3940327 0.00014630042 0)
(5.3913628 0.00019358683 0)
(5.3883166 0.00025041212 0)
(5.3849017 0.00031943319 0)
(5.3811162 0.00040385607 0)
(5.37695 0.00050764443 0)
(5.3723863 0.00063569017 0)
(5.3674029 0.00079410532 0)
(5.3619717 0.00099060091 0)
(5.3560586 0.0012349615 0)
(5.3496235 0.0015396738 0)
(5.3426186 0.0019207714 0)
(5.334988 0.0023989907 0)
(5.3266656 0.0030013483 0)
(5.3175738 0.003763377 0)
(5.3076203 0.0047321977 0)
(5.2966957 0.0059711861 0)
(5.2846686 0.0075661188 0)
(5.2713832 0.0096360812 0)
(5.256649 0.012345285 0)
(5.2402478 0.015933341 0)
(5.2219041 0.020731304 0)
(5.2013532 0.027264645 0)
(5.1782388 0.036222836 0)
(5.1524672 0.048856413 0)
(5.1239 0.066531106 0)
(5.0936964 0.09214826 0)
(5.0636601 0.12746474 0)
(5.0390846 0.17674751 0)
(5.0273253 0.2372479 0)
(5.0361412 0.30539184 0)
(5.3999968 2.9990759e-06 0)
(5.3993821 4.3233589e-05 0)
(5.3981191 8.0848522e-05 0)
(5.3963037 0.0001222724 0)
(5.394032 0.00016889862 0)
(5.3913623 0.00022349049 0)
(5.3883164 0.00028909271 0)
(5.3849019 0.00036877234 0)
(5.3811168 0.00046622982 0)
(5.3769513 0.00058603911 0)
(5.3723886 0.00073384404 0)
(5.3674066 0.00091669493 0)
(5.3619773 0.0011434841 0)
(5.3560671 0.001425491 0)
(5.349636 0.0017771033 0)
(5.3426369 0.0022167841 0)
(5.3350147 0.0027683919 0)
(5.3267047 0.0034629768 0)
(5.3176309 0.004341315 0)
(5.3077041 0.0054573758 0)
(5.2968193 0.0068835408 0)
(5.2848521 0.0087174401 0)
(5.2716575 0.011093848 0)
(5.257063 0.014197539 0)
(5.2408787 0.018294725 0)
(5.2228794 0.023750077 0)
(5.2028746 0.031124657 0)
(5.1806577 0.041147177 0)
(5.1563185 0.055041801 0)
(5.1301273 0.074125112 0)
(5.1035217 0.10075446 0)
(5.0788687 0.13618566 0)
(5.0608515 0.18246224 0)
(5.055342 0.23641097 0)
(5.0669412 0.29290609 0)
(5.3999966 3.3592142e-06 0)
(5.3993809 4.9361042e-05 0)
(5.3981179 9.2337049e-05 0)
(5.3963027 0.00013963757 0)
(5.3940312 0.00019288551 0)
(5.3913618 0.00025523219 0)
(5.3883162 0.00033015023 0)
(5.3849021 0.0004211421 0)
(5.3811177 0.00053243256 0)
(5.376953 0.0006692424 0)
(5.3723915 0.00083801173 0)
(5.3674111 0.0010467844 0)
(5.3619842 0.0013057021 0)
(5.3560774 0.0016276235 0)
(5.3496512 0.0020289411 0)
(5.3426592 0.0025306753 0)
(5.3350472 0.0031599613 0)
(5.3267522 0.0039520663 0)
(5.3177004 0.0049532203 0)
(5.307806 0.0062244658 0)
(5.2969694 0.0078473916 0)
(5.2850744 0.0099315835 0)
(5.2719891 0.012627296 0)
(5.2575621 0.016139034 0)
(5.241636 0.020757122 0)
(5.2240422 0.02687459 0)
(5.2046727 0.03507563 0)
(5.1834736 0.046105095 0)
(5.1607192 0.061116979 0)
(5.1370192 0.081304194 0)
(5.114009 0.10844712 0)
(5.0942597 0.14323481 0)
(5.0817299 0.18609368 0)
(5.0807231 0.23366757 0)
(5.0936086 0.28075546 0)
(5.3999963 3.7139205e-06 0)
(5.3993796 5.586155e-05 0)
(5.3981165 0.00010453389 0)
(5.3963015 0.00015806973 0)
(5.3940303 0.00021834601 0)
(5.3913612 0.00028892415 0)
(5.388316 0.00037372968 0)
(5.3849024 0.00047672692 0)
(5.3811187 0.00060269677 0)
(5.376955 0.00075754487 0)
(5.3723949 0.00094855519 0)
(5.3674165 0.0011848222 0)
(5.3619925 0.0014778079 0)
(5.3560898 0.0018420377 0)
(5.3496695 0.0022960159 0)
(5.342686 0.002863449 0)
(5.3350865 0.0035749031 0)
(5.3268094 0.0044700399 0)
(5.317784 0.0056007361 0)
(5.3079285 0.007035294 0)
(5.2971495 0.008864632 0)
(5.2853409 0.011210243 0)
(5.2723856 0.014237371 0)
(5.2581566 0.018168896 0)
(5.2425338 0.023315879 0)
(5.22541 0.030092904 0)
(5.2067664 0.039092995 0)
(5.186699 0.051051414 0)
(5.165656 0.067012008 0)
(5.144508 0.087981662 0)
(5.1249903 0.11517176 0)
(5.109612 0.14871821 0)
(5.1015541 0.18796188 0)
(5.1037042 0.22959878 0)
(5.1169152 0.269036 0)
(5.399996 4.0605952e-06 0)
(5.3993781 6.2757519e-05 0)
(5.3981149 0.00011748314 0)
(5.3963002 0.0001776342 0)
(5.3940293 0.00024537007 0)
(5.3913605 0.00032468554 0)
(5.3883158 0.00041998465 0)
(5.3849029 0.00053572234 0)
(5.38112 0.00067726844 0)
(5.3769575 0.00085125444 0)
(5.3723991 0.0010658569 0)
(5.3674231 0.0013312811 0)
(5.3620025 0.0016603833 0)
(5.3561047 0.0020694456 0)
(5.3496915 0.0025791931 0)
(5.3427182 0.0032161485 0)
(5.3351334 0.0040144591 0)
(5.3268778 0.0050183479 0)
(5.3178838 0.006285507 0)
(5.3080745 0.0078916331 0)
(5.297364 0.0099369983 0)
(5.2856573 0.012554768 0)
(5.2728552 0.015924347 0)
(5.2588577 0.020285049 0)
(5.2435862 0.025964341 0)
(5.2269997 0.033390027 0)
(5.2091712 0.043148229 0)
(5.1903388 0.055937805 0)
(5.1711034 0.07265857 0)
(5.1525132 0.094086365 0)
(5.1363031 0.12090502 0)
(5.1247401 0.15276898 0)
(5.1202371 0.18836643 0)
(5.1245197 0.22463112 0)
(5.1374679 0.25781527 0)
(5.3999958 4.3972628e-06 0)
(5.3993766 7.0072052e-05 0)
(5.3981132 0.00013123172 0)
(5.3962987 0.00019840039 0)
(5.3940282 0.0002740532 0)
(5.3913598 0.00036264241 0)
(5.3883157 0.00046907808 0)
(5.3849034 0.00059833525 0)
(5.3811216 0.00075640826 0)
(5.3769605 0.00095069624 0)
(5.3724041 0.0011903202 0)
(5.367431 0.0014866592 0)
(5.3620145 0.0018540398 0)
(5.3561225 0.0023105934 0)
(5.3497176 0.0028793758 0)
(5.3427564 0.0035898547 0)
(5.3351891 0.0044799031 0)
(5.3269589 0.0055984572 0)
(5.3180021 0.0070091587 0)
(5.3082473 0.0087951687 0)
(5.2976173 0.011066013 0)
(5.2860303 0.013966071 0)
(5.2734065 0.017687696 0)
(5.2596769 0.02248403 0)
(5.2448076 0.028693645 0)
(5.2288266 0.036747844 0)
(5.2118988 0.047209233 0)
(5.1943903 0.060714186 0)
(5.177024 0.077992257 0)
(5.1609444 0.099564263 0)
(5.1477958 0.12565248 0)
(5.1394959 0.15553534 0)
(5.1377503 0.18757898 0)
(5.1433961 0.21907558 0)
(5.1557398 0.24712743 0)
(5.3999955 4.722608e-06 0)
(5.3993749 7.7829897e-05 0)
(5.3981114 0.00014582921 0)
(5.3962971 0.00022044163 0)
(5.3940269 0.00030449645 0)
(5.3913591 0.00040292847 0)
(5.3883156 0.00052118229 0)
(5.3849042 0.00066478463 0)
(5.3811236 0.000840391 0)
(5.3769641 0.0010562135 0)
(5.3724101 0.0013223709 0)
(5.3674404 0.0016514809 0)
(5.3620286 0.0020594193 0)
(5.3561436 0.0025662609 0)
(5.3497486 0.0031975026 0)
(5.3428016 0.0039856827 0)
(5.3352549 0.0049725349 0)
(5.3270546 0.0062118382 0)
(5.3181414 0.0077732752 0)
(5.3084505 0.0097474589 0)
(5.2979145 0.012252918 0)
(5.2864665 0.015444528 0)
(5.2740489 0.019525933 0)
(5.2606259 0.024760804 0)
(5.2462118 0.031492566 0)
(5.230904 0.040145166 0)
(5.214956 0.051240955 0)
(5.1988424 0.065330243 0)
(5.1833707 0.082955751 0)
(5.1697066 0.10437956 0)
(5.1593312 0.12944426 0)
(5.1537665 0.1571704 0)
(5.1541043 0.18583868 0)
(5.1605453 0.21315818 0)
(5.1721029 0.23698136 0)
(5.3999953 5.0359747e-06 0)
(5.3993732 8.605653e-05 0)
(5.3981094 0.00016132895 0)
(5.3962953 0.0002438363 0)
(5.3940256 0.00033680701 0)
(5.3913583 0.00044568542 0)
(5.3883155 0.00057647986 0)
(5.3849052 0.00073530212 0)
(5.3811259 0.00092950818 0)
(5.3769685 0.001168169 0)
(5.3724173 0.0014624574 0)
(5.3674515 0.0018262971 0)
(5.3620454 0.0022771942 0)
(5.3561684 0.0028372614 0)
(5.349785 0.0035345461 0)
(5.3428548 0.0044047772 0)
(5.3353321 0.0054936706 0)
(5.3271669 0.0068599487 0)
(5.3183045 0.0085793706 0)
(5.3086881 0.010749886 0)
(5.2982611 0.0134986 0)
(5.2869734 0.016989857 0)
(5.274792 0.021436463 0)
(5.2617167 0.027108593 0)
(5.2478117 0.034347411 0)
(5.2332429 0.043557919 0)
(5.2183443 0.05520621 0)
(5.2036755 0.069737181 0)
(5.1900879 0.087500494 0)
(5.1787035 0.10851431 0)
(5.1707899 0.13233028 0)
(5.1674714 0.15782522 0)
(5.169337 0.18335124 0)
(5.176162 0.20704296 0)
(5.1868536 0.22736833 0)
(5.399995 5.3373913e-06 0)
(5.3993714 9.4779002e-05 0)
(5.3981073 0.00017778706 0)
(5.3962935 0.00026866712 0)
(5.3940242 0.00037109868 0)
(5.3913575 0.00049106305 0)
(5.3883156 0.00063516403 0)
(5.3849064 0.00081013289 0)
(5.3811288 0.0010240669 0)
(5.3769737 0.0012869449 0)
(5.3724258 0.0016110516 0)
(5.3674646 0.0020116865 0)
(5.3620651 0.0025080676 0)
(5.3561976 0.0031244408 0)
(5.3498277 0.0038915105 0)
(5.342917 0.0048483077 0)
(5.3354225 0.006044632 0)
(5.3272979 0.0075442134 0)
(5.3184947 0.0094288537 0)
(5.3089643 0.011803602 0)
(5.298663 0.014803501 0)
(5.287559 0.018601004 0)
(5.2756457 0.023415433 0)
(5.2629608 0.029518737 0)
(5.249619 0.03724201 0)
(5.2358508 0.046959498 0)
(5.2220592 0.059066712 0)
(5.2088622 0.073889401 0)
(5.1971144 0.091588308 0)
(5.1878417 0.11196733 0)
(5.1820709 0.13437506 0)
(5.1805586 0.15764356 0)
(5.1835037 0.18028995 0)
(5.1904217 0.20084844 0)
(5.2002307 0.21826842 0)
(5.3999947 5.6275363e-06 0)
(5.3993696 0.00010402538 0)
(5.3981051 0.00019526363 0)
(5.3962915 0.00029502208 0)
(5.3940227 0.00040749162 0)
(5.3913568 0.00053922041 0)
(5.3883158 0.00069743933 0)
(5.384908 0.00088953577 0)
(5.3811323 0.0011243918 0)
(5.3769799 0.0014129441 0)
(5.3724358 0.0017686498 0)
(5.36748 0.0022082551 0)
(5.3620882 0.002752773 0)
(5.3562317 0.0034286763 0)
(5.3498776 0.0042694279 0)
(5.3429895 0.0053174592 0)
(5.3355276 0.0066267325 0)
(5.3274502 0.0082660003 0)
(5.3187153 0.010322988 0)
(5.309284 0.012909463 0)
(5.2991265 0.016167528 0)
(5.2882313 0.020276012 0)
(5.27662 0.025457578 0)
(5.2643694 0.031980589 0)
(5.2516435 0.040157799 0)
(5.2387312 0.050321271 0)
(5.2260902 0.06278423 0)
(5.2143681 0.07774608 0)
(5.2043849 0.095192296 0)
(5.1970333 0.11475232 0)
(5.1930922 0.13565266 0)
(5.1929997 0.15675853 0)
(5.1966698 0.17679831 0)
(5.203481 0.19465971 0)
(5.212429 0.2096555 0)
(5.3999944 5.9077465e-06 0)
(5.3993677 0.00011382523 0)
(5.3981028 0.00021382252 0)
(5.3962895 0.00032299401 0)
(5.3940212 0.0004461133 0)
(5.3913561 0.00059032558 0)
(5.3883163 0.00076352182 0)
(5.38491 0.00097378452 0)
(5.3811366 0.0012308249 0)
(5.3769873 0.0015465905 0)
(5.3724475 0.0019357727 0)
(5.367498 0.0024166368 0)
(5.3621152 0.0030120735 0)
(5.3562714 0.0037508738 0)
(5.3499356 0.0046693523 0)
(5.3430737 0.0058134249 0)
(5.3356496 0.0072412597 0)
(5.3276266 0.0090265906 0)
(5.3189701 0.011262847 0)
(5.3096522 0.014067959 0)
(5.2996584 0.017589951 0)
(5.2889988 0.022011891 0)
(5.277725 0.0275561 0)
(5.2659526 0.034481469 0)
(5.2538926 0.043074017 0)
(5.2418838 0.053613244 0)
(5.2304208 0.066321821 0)
(5.2201529 0.081272512 0)
(5.2118332 0.098297071 0)
(5.2061982 0.11689559 0)
(5.20379 0.1362422 0)
(5.2047854 0.15529054 0)
(5.2089054 0.17299346 0)
(5.2154778 0.18853705 0)
(5.2236086 0.20150059 0)
(5.3999941 6.1800067e-06 0)
(5.3993657 0.00012420889 0)
(5.3981004 0.00023353175 0)
(5.3962874 0.00035268166 0)
(5.3940197 0.00048709909 0)
(5.3913555 0.00064455661 0)
(5.388317 0.00083364025 0)
(5.3849126 0.0010631679 0)
(5.3811416 0.0013437267 0)
(5.3769959 0.0016883301 0)
(5.3724613 0.0021129663 0)
(5.3675191 0.0026374932 0)
(5.3621466 0.0032867607 0)
(5.3563176 0.0040919647 0)
(5.3500029 0.0050923549 0)
(5.3431713 0.0063373918 0)
(5.3357906 0.0078894551 0)
(5.32783 0.0098271455 0)
(5.3192633 0.012249256 0)
(5.3100744 0.015279136 0)
(5.3002657 0.01906929 0)
(5.2898704 0.02380449 0)
(5.2789704 0.029702566 0)
(5.2677195 0.037006694 0)
(5.2563711 0.045968031 0)
(5.2453031 0.056804854 0)
(5.2350285 0.069645055 0)
(5.2261717 0.084441122 0)
(5.219394 0.10089838 0)
(5.2152661 0.11843337 0)
(5.214117 0.13622404 0)
(5.2159212 0.15334656 0)
(5.2202818 0.16896983 0)
(5.2265329 0.18252249 0)
(5.2339019 0.19377405 0)
(5.3999938 6.4469186e-06 0)
(5.3993637 0.00013520821 0)
(5.3980979 0.00025446271 0)
(5.3962852 0.00038418971 0)
(5.3940182 0.00053059159 0)
(5.391355 0.00070210179 0)
(5.388318 0.00090803599 0)
(5.3849157 0.0011579905 0)
(5.3811477 0.0014634772 0)
(5.3770061 0.0018386307 0)
(5.3724774 0.0023008015 0)
(5.3675436 0.0028715126 0)
(5.362183 0.0035776525 0)
(5.356371 0.0044529022 0)
(5.3500807 0.0055395144 0)
(5.3432839 0.0068905279 0)
(5.335953 0.0085724888 0)
(5.3280638 0.010668666 0)
(5.3195994 0.013282735 0)
(5.3105566 0.016542503 0)
(5.3009559 0.020603208 0)
(5.2908545 0.025648391 0)
(5.280365 0.031886846 0)
(5.2696771 0.039539687 0)
(5.2590806 0.048815785 0)
(5.2489794 0.05986585 0)
(5.2398859 0.072723139 0)
(5.2323768 0.087232104 0)
(5.2270047 0.10300222 0)
(5.2241771 0.11940922 0)
(5.2240406 0.13567687 0)
(5.2264236 0.15102006 0)
(5.2308688 0.16480279 0)
(5.2367517 0.17664447 0)
(5.243419 0.18644685 0)
(5.3999935 6.711734e-06 0)
(5.3993617 0.00014685576 0)
(5.3980954 0.0002766926 0)
(5.396283 0.00041762871 0)
(5.3940168 0.00057674202 0)
(5.3913548 0.00076315999 0)
(5.3883194 0.00098696401 0)
(5.3849195 0.0012585731 0)
(5.3811549 0.001590475 0)
(5.3770181 0.0019979829 0)
(5.3724962 0.0024998744 0)
(5.3675721 0.0031194095 0)
(5.3622252 0.0038855906 0)
(5.3564328 0.0048346548 0)
(5.3501704 0.0060119073 0)
(5.3434134 0.0074739636 0)
(5.3361395 0.0092914305 0)
(5.3283316 0.011551945 0)
(5.319983 0.014363429 0)
(5.3111049 0.017856947 0)
(5.3017365 0.022188403 0)
(5.2919598 0.027536806 0)
(5.2819171 0.03409711 0)
(5.2718308 0.042062182 0)
(5.2620188 0.05159235 0)
(5.252898 0.062767213 0)
(5.2449614 0.075529886 0)
(5.2387194 0.089633648 0)
(5.2346075 0.1046235 0)
(5.2328818 0.11987149 0)
(5.2335413 0.13467547 0)
(5.2363165 0.14839161 0)
(5.2407329 0.16055191 0)
(5.246226 0.17092152 0)
(5.2522521 0.17949127 0)
(5.3999932 6.9783261e-06 0)
(5.3993596 0.00015918587 0)
(5.3980927 0.00030030212 0)
(5.3962808 0.00045311601 0)
(5.3940154 0.00062571022 0)
(5.3913548 0.00082794131 0)
(5.3883214 0.0010706929 0)
(5.3849242 0.0013652536 0)
(5.3811634 0.0017251392 0)
(5.3770322 0.0021668999 0)
(5.3725181 0.0027108052 0)
(5.367605 0.0033819224 0)
(5.362274 0.0042114371 0)
(5.356504 0.0052382002 0)
(5.3502736 0.0065105951 0)
(5.3435621 0.0080887702 0)
(5.3363531 0.010047215 0)
(5.3286374 0.012477519 0)
(5.3204195 0.015491034 0)
(5.3117257 0.019220632 0)
(5.302615 0.023820502 0)
(5.2931941 0.029461514 0)
(5.2836335 0.036319882 0)
(5.274183 0.044554531 0)
(5.2651801 0.05427258 0)
(5.25704 0.065482067 0)
(5.2502198 0.078044446 0)
(5.2451508 0.091641777 0)
(5.2421505 0.10578459 0)
(5.2413413 0.11987096 0)
(5.2426098 0.13328929 0)
(5.2456292 0.14552982 0)
(5.2499364 0.1562639 0)
(5.2550354 0.16536488 0)
(5.2604791 0.17288135 0)
(5.3999929 7.2512196e-06 0)
(5.3993575 0.0001722332 0)
(5.3980901 0.00032537771 0)
(5.3962786 0.00049077538 0)
(5.3940142 0.00067766498 0)
(5.3913551 0.0008966678 0)
(5.3883239 0.0011595061 0)
(5.3849298 0.0014783877 0)
(5.3811736 0.0018679093 0)
(5.3770486 0.0023459176 0)
(5.3725435 0.0029342383 0)
(5.3676432 0.003659812 0)
(5.3623302 0.0045560691 0)
(5.3565859 0.0056645155 0)
(5.3503919 0.0070366088 0)
(5.3437323 0.0087359343 0)
(5.3365969 0.010840601 0)
(5.3289853 0.013445605 0)
(5.3209142 0.016664716 0)
(5.3124256 0.020630906 0)
(5.303599 0.025493977 0)
(5.2945649 0.031412839 0)
(5.2855193 0.038540173 0)
(5.2767339 0.046996095 0)
(5.2685548 0.056831813 0)
(5.2613824 0.06798651 0)
(5.255624 0.080251774 0)
(5.2516241 0.093259838 0)
(5.249588 0.10651358 0)
(5.2495263 0.119459 0)
(5.2512457 0.13158159 0)
(5.2543936 0.14249254 0)
(5.258537 0.15197504 0)
(5.2632491 0.1599805 0)
(5.2681657 0.16659287 0)
(5.3999925 7.5356295e-06 0)
(5.3993554 0.00018603441 0)
(5.3980873 0.00035201024 0)
(5.3962764 0.00053073808 0)
(5.3940132 0.00073278476 0)
(5.3913557 0.00096957283 0)
(5.3883271 0.0012537017 0)
(5.3849366 0.001598348 0)
(5.3811855 0.002019245 0)
(5.3770678 0.002535594 0)
(5.3725729 0.0031708397 0)
(5.3676871 0.0039538575 0)
(5.3623948 0.0049203725 0)
(5.3566798 0.0061145667 0)
(5.3505273 0.0075909305 0)
(5.3439266 0.0094163289 0)
(5.3368744 0.011672131 0)
(5.3293799 0.01445604 0)
(5.3214727 0.017883032 0)
(5.3132114 0.022084211 0)
(5.3046956 0.027202076 0)
(5.2960786 0.033379667 0)
(5.287578 0.040741686 0)
(5.2794801 0.049365731 0)
(5.2721297 0.0592466 0)
(5.2658991 0.070260319 0)
(5.2611358 0.082142806 0)
(5.2580953 0.094497712 0)
(5.2568815 0.10684269 0)
(5.2574163 0.1186859 0)
(5.2594552 0.12960909 0)
(5.2626429 0.13932809 0)
(5.2665875 0.14771326 0)
(5.2709273 0.15477054 0)
(5.2753682 0.16060365 0)
(5.3999921 7.8374943e-06 0)
(5.3993532 0.00020062654 0)
(5.3980846 0.00038029724 0)
(5.3962743 0.0005731426 0)
(5.3940123 0.00079125678 0)
(5.3913569 0.001046903 0)
(5.3883311 0.0013535931 0)
(5.3849447 0.0017255256 0)
(5.3811994 0.0021796258 0)
(5.37709 0.0027365083 0)
(5.3726069 0.0034212961 0)
(5.3677377 0.004264853 0)
(5.3624689 0.0053052352 0)
(5.3567872 0.0065892954 0)
(5.350682 0.0081744714 0)
(5.3441479 0.010130678 0)
(5.3371893 0.012542073 0)
(5.3298261 0.01550821 0)
(5.322101 0.019143838 0)
(5.3140898 0.023575997 0)
(5.3059116 0.028936785 0)
(5.2977403 0.035349531 0)
(5.2898106 0.042907109 0)
(5.2824156 0.051642334 0)
(5.2758879 0.06149541 0)
(5.2705614 0.07228749 0)
(5.266717 0.083714366 0)
(5.2645242 0.095370838 0)
(5.2639993 0.10680669 0)
(5.2649984 0.11759978 0)
(5.2672493 0.12742194 0)
(5.2704107 0.1360765 0)
(5.2741359 0.14349984 0)
(5.2781226 0.14973447 0)
(5.2821346 0.15489328 0)
(5.3999917 8.1636143e-06 0)
(5.399351 0.00021604883 0)
(5.3980817 0.00041034072 0)
(5.3962722 0.00061813557 0)
(5.3940117 0.00085327938 0)
(5.3913586 0.0011289175 0)
(5.3883361 0.0014595093 0)
(5.3849544 0.0018603295 0)
(5.3812157 0.0023495516 0)
(5.3771158 0.0029492602 0)
(5.372646 0.0036863109 0)
(5.3677958 0.0045936013 0)
(5.3625537 0.0057115361 0)
(5.3569099 0.0070896019 0)
(5.3508581 0.0087880455 0)
(5.3443991 0.010879519 0)
(5.3375457 0.01345037 0)
(5.3303287 0.016600976 0)
(5.322805 0.020444218 0)
(5.3150671 0.025100663 0)
(5.3072529 0.030688831 0)
(5.2995537 0.037308749 0)
(5.2922159 0.045018473 0)
(5.285531 0.053805419 0)
(5.2798096 0.063559264 0)
(5.2753391 0.074056572 0)
(5.272331 0.084968818 0)
(5.2708751 0.095899116 0)
(5.2709165 0.1064416 0)
(5.2722661 0.11624568 0)
(5.2746428 0.12506399 0)
(5.2777296 0.13277072 0)
(5.2812256 0.13935075 0)
(5.2848808 0.14486987 0)
(5.2885066 0.14944306 0)
(5.3999913 8.5217098e-06 0)
(5.3993489 0.00023234162 0)
(5.3980788 0.00044224986 0)
(5.3962702 0.00066587157 0)
(5.3940114 0.00091906136 0)
(5.3913608 0.0012158883 0)
(5.3883421 0.0015717953 0)
(5.3849658 0.0020031869 0)
(5.3812347 0.0025295413 0)
(5.3771456 0.0031744671 0)
(5.372691 0.0039666019 0)
(5.3678623 0.004940908 0)
(5.3626507 0.0061401347 0)
(5.3570498 0.0076163267 0)
(5.3510582 0.00943234 0)
(5.3446836 0.011663156 0)
(5.3379478 0.01439658 0)
(5.3308931 0.017732603 0)
(5.3235907 0.021780399 0)
(5.3161495 0.026651505 0)
(5.3087245 0.032447727 0)
(5.3015207 0.039242643 0)
(5.2947899 0.047057577 0)
(5.2888138 0.055835707 0)
(5.2838726 0.065422268 0)
(5.2802011 0.075560792 0)
(5.2779428 0.085913521 0)
(5.2771173 0.096105795 0)
(5.2776145 0.10578345 0)
(5.2792185 0.1146651 0)
(5.2816528 0.12257317 0)
(5.2846309 0.12943764 0)
(5.2878956 0.13527781 0)
(5.2912419 0.14017304 0)
(5.2945201 0.14423586 0)
(5.3999908 8.9206422e-06 0)
(5.3993467 0.00024954738 0)
(5.3980759 0.00047613942 0)
(5.3962683 0.00071651393 0)
(5.3940114 0.0009888216 0)
(5.3913638 0.0013081015 0)
(5.3883494 0.0016908115 0)
(5.3849792 0.0021545423 0)
(5.3812568 0.0027201319 0)
(5.3771799 0.0034127631 0)
(5.3727427 0.0042628952 0)
(5.3679384 0.0053075724 0)
(5.3627613 0.0065918558 0)
(5.3572088 0.0081702278 0)
(5.3512851 0.010107881 0)
(5.3450051 0.012481614 0)
(5.3384 0.015379808 0)
(5.3315244 0.018900682 0)
(5.3244638 0.023147692 0)
(5.3173425 0.028220713 0)
(5.3103302 0.034201873 0)
(5.3036411 0.041135803 0)
(5.297526 0.049006457 0)
(5.2922488 0.057715687 0)
(5.2880525 0.067072009 0)
(5.2851166 0.076797981 0)
(5.2835204 0.086560131 0)
(5.2832249 0.096016389 0)
(5.2840803 0.10486741 0)
(5.2858586 0.11289569 0)
(5.2882979 0.11998205 0)
(5.2911445 0.12609909 0)
(5.2941811 0.13128953 0)
(5.2972412 0.13563941 0)
(5.3002066 0.139256 0)
(5.3999903 9.3706031e-06 0)
(5.3993445 0.00026771025 0)
(5.398073 0.00051213078 0)
(5.3962664 0.00077023522 0)
(5.3940118 0.0010627907 0)
(5.3913676 0.0014058562 0)
(5.3883581 0.0018169346 0)
(5.3849948 0.0023148573 0)
(5.3812823 0.0029218769 0)
(5.3772193 0.0036647944 0)
(5.3728018 0.0045759204 0)
(5.3680252 0.0056943777 0)
(5.362887 0.0070674738 0)
(5.3573891 0.0087519544 0)
(5.3515415 0.010814996 0)
(5.3453671 0.013334581 0)
(5.3389071 0.016398641 0)
(5.3322282 0.020102064 0)
(5.3254299 0.024540447 0)
(5.3186509 0.029799384 0)
(5.3120722 0.035938704 0)
(5.3059127 0.04297243 0)
(5.3004149 0.050847874 0)
(5.2958185 0.059430106 0)
(5.292324 0.068499792 0)
(5.2900556 0.077770306 0)
(5.2890352 0.086923823 0)
(5.2891769 0.095657693 0)
(5.2903056 0.10372707 0)
(5.2921929 0.11097122 0)
(5.2945974 0.11731836 0)
(5.297298 0.12277266 0)
(5.3001137 0.12739186 0)
(5.3029098 0.13126388 0)
(5.3055935 0.13448916 0)
(5.3999898 9.8834188e-06 0)
(5.3993424 0.00028687812 0)
(5.39807 0.00055035212 0)
(5.3962648 0.00082721654 0)
(5.3940127 0.0011412105 0)
(5.3913723 0.0015094657 0)
(5.3883683 0.0019505564 0)
(5.385013 0.0024846102 0)
(5.3813117 0.0031353441 0)
(5.3772646 0.0039312159 0)
(5.3728693 0.0049064028 0)
(5.3681241 0.0061020784 0)
(5.3630298 0.0075676921 0)
(5.3575932 0.0093620168 0)
(5.3518308 0.011553768 0)
(5.3457737 0.014221358 0)
(5.3394736 0.017451083 0)
(5.3330095 0.021332801 0)
(5.3264941 0.02595203 0)
(5.3200785 0.031377596 0)
(5.3139513 0.037644907 0)
(5.3083308 0.044736706 0)
(5.3034451 0.052565796 0)
(5.2995033 0.060966383 0)
(5.296661 0.069700717 0)
(5.2949898 0.07848386 0)
(5.2944621 0.087022474 0)
(5.2949572 0.095056919 0)
(5.2962867 0.10239396 0)
(5.2982303 0.10892163 0)
(5.3005704 0.11460555 0)
(5.3031175 0.11947241 0)
(5.3057217 0.12358872 0)
(5.3082751 0.12704103 0)
(5.3107051 0.12992222 0)
(5.3999892 1.047293e-05 0)
(5.3993403 0.00030710094 0)
(5.398067 0.00059093779 0)
(5.3962632 0.0008876495 0)
(5.3940141 0.0012243344 0)
(5.3913781 0.0016192567 0)
(5.3883804 0.0020920841 0)
(5.3850341 0.0026642935 0)
(5.3813455 0.0033611135 0)
(5.3773163 0.0042126863 0)
(5.3729463 0.005255054 0)
(5.3682364 0.0065313857 0)
(5.3631916 0.0080931206 0)
(5.3578238 0.010000753 0)
(5.3521563 0.012323992 0)
(5.3462291 0.015140793 0)
(5.3401045 0.018534492 0)
(5.3338735 0.022588095 0)
(5.327661 0.027374826 0)
(5.3216278 0.032944515 0)
(5.3159664 0.03930668 0)
(5.3108885 0.046413207 0)