/*--------------------------------*- C++ -*----------------------------------*\
  =========                 |
  \\      /  F ield         | OpenFOAM: The Open Source CFD Toolbox
   \\    /   O peration     | Website:  https://openfoam.org
    \\  /    A nd           | Version:  12
     \\/     M anipulation  |
\*---------------------------------------------------------------------------*/
FoamFile
{
    format      ascii;
    class       volScalarField;
    location    "1000";
    object      yPlus;
}
// * * * * * * * * * * * * * * * * * * * * * * * * * * * * * * * * * * * * * //

dimensions      [];

internalField   uniform 0;

boundaryField
{
    lowerWall
    {
        type            calculated;
        value           nonuniform List<scalar> 
600
(
1.3527919
1.0608124
0.86817969
0.75865125
0.69913197
0.65847005
0.62779898
0.60279141
0.58184979
0.56390824
0.54826506
0.53444471
0.52208497
0.51092327
0.50076617
0.49145731
0.48287123
0.47490975
0.46749286
0.4605552
0.45404102
0.44790304
0.44210213
0.43660488
0.43138245
0.42640954
0.421664
0.41712657
0.41278026
0.40861007
0.40460276
0.40074647
0.39703038
0.39344471
0.38998079
0.38663079
0.38338756
0.38024458
0.37719594
0.37423615
0.37136016
0.36856336
0.36584149
0.36319062
0.36060716
0.35808778
0.35562937
0.353229
0.35088391
0.34859157
0.34634962
0.34415588
0.34200828
0.33990487
0.33784382
0.33582344
0.3338421
0.33189825
0.32999047
0.32811738
0.32627769
0.32447019
0.32269374
0.32094725
0.31922969
0.31754009
0.31587748
0.31424096
0.31262967
0.31104283
0.30947965
0.30793942
0.30642142
0.304925
0.3034495
0.30199431
0.30055884
0.29914252
0.29774482
0.29636522
0.29500323
0.29365835
0.29233014
0.29101816
0.28972198
0.28844122
0.28717548
0.28592437
0.28468754
0.28346462
0.28225528
0.28105919
0.27987604
0.27870553
0.27754739
0.27640132
0.27526705
0.27414432
0.27303287
0.27193245
0.27084282
0.26976375
0.26869502
0.26763642
0.26658773
0.26554876
0.2645193
0.26349916
0.26248816
0.26148612
0.26049287
0.25950824
0.25853206
0.25756418
0.25660442
0.25565265
0.25470872
0.25377248
0.25284379
0.25192253
0.25100858
0.25010179
0.24920205
0.24830923
0.2474232
0.24654386
0.24567109
0.24480478
0.24394483
0.24309114
0.24224361
0.24140215
0.24056665
0.23973702
0.23891317
0.238095
0.23728242
0.23647536
0.23567373
0.23487746
0.23408646
0.23330065
0.23251997
0.23174433
0.23097367
0.23020791
0.22944698
0.22869082
0.22793936
0.22719254
0.22645029
0.22571256
0.22497927
0.22425038
0.22352581
0.22280552
0.22208945
0.22137755
0.22066977
0.21996605
0.21926634
0.2185706
0.21787877
0.2171908
0.21650664
0.21582625
0.21514958
0.21447659
0.21380724
0.21314148
0.21247928
0.2118206
0.21116539
0.21051362
0.20986523
0.20922019
0.20857847
0.20794002
0.20730481
0.20667281
0.20604399
0.20541832
0.20479576
0.20417627
0.20355983
0.20294639
0.20233593
0.20172842
0.20112381
0.2005221
0.19992324
0.19932722
0.198734
0.19814356
0.19755588
0.19697091
0.19638864
0.19580904
0.19523207
0.19465773
0.19408597
0.19351678
0.19295015
0.19238604
0.19182443
0.19126531
0.19070864
0.1901544
0.18960257
0.18905313
0.18850606
0.18796134
0.18741894
0.18687886
0.18634107
0.18580555
0.18527229
0.18474126
0.18421245
0.18368582
0.18316138
0.18263909
0.18211894
0.18160092
0.181085
0.18057119
0.18005946
0.17954979
0.17904217
0.17853657
0.17803299
0.1775314
0.1770318
0.17653415
0.17603846
0.17554471
0.17505289
0.17456299
0.17407499
0.17358888
0.17310464
0.17262226
0.17214172
0.17166301
0.17118612
0.17071103
0.17023774
0.16976622
0.16929648
0.16882851
0.1683623
0.16789782
0.16743508
0.16697404
0.16651471
0.16605706
0.16560109
0.16514679
0.16469415
0.16424316
0.16379381
0.16334609
0.16290002
0.16245555
0.1620127
0.16157143
0.16113174
0.16069362
0.16025707
0.15982206
0.1593886
0.15895668
0.15852628
0.15809741
0.15767007
0.15724424
0.15681992
0.15639708
0.15597572
0.15555582
0.15513739
0.15472042
0.15430489
0.1538908
0.15347815
0.15306692
0.15265713
0.15224876
0.15184181
0.15143627
0.15103211
0.15062934
0.15022794
0.14982792
0.14942926
0.14903196
0.14863602
0.14824142
0.14784817
0.14745627
0.14706571
0.1466765
0.14628859
0.145902
0.14551672
0.14513274
0.14475005
0.14436866
0.14398855
0.14360972
0.14323217
0.14285589
0.1424809
0.1421072
0.14173475
0.14136356
0.1409936
0.1406249
0.14025743
0.13989119
0.13952619
0.13916241
0.13879985
0.13843851
0.13807839
0.1377195
0.13736183
0.13700537
0.13665011
0.13629604
0.13594315
0.13559146
0.13524094
0.13489162
0.13454346
0.13419648
0.13385067
0.13350603
0.13316258
0.13282031
0.1324792
0.13213925
0.13180044
0.13146279
0.13112627
0.13079091
0.13045669
0.13012362
0.12979168
0.12946088
0.12913122
0.12880271
0.12847535
0.12814913
0.12782404
0.12750007
0.12717722
0.1268555
0.12653491
0.12621546
0.12589713
0.12557992
0.12526385
0.1249489
0.1246351
0.12432247
0.12401096
0.12370059
0.12339136
0.12308327
0.12277633
0.12247055
0.12216593
0.12186248
0.1215602
0.12125911
0.1209592
0.12066051
0.12036306
0.12006684
0.11977185
0.11947811
0.11918564
0.11889447
0.11860462
0.11831611
0.11802897
0.11774322
0.11745891
0.11717605
0.11689469
0.1166149
0.11633672
0.11606018
0.11578535
0.11551228
0.11524106
0.11497178
0.11470452
0.11443939
0.11417648
0.11391593
0.11365788
0.11340247
0.11314989
0.11290035
0.11265404
0.11241117
0.11217204
0.11193694
0.1117062
0.1114802
0.11125936
0.11104413
0.11083505
0.11063268
0.11043767
0.11025073
0.11007268
0.1099044
0.10974683
0.10960101
0.1094681
0.10934932
0.10924592
0.10915922
0.10909052
0.1090411
0.10901219
0.10900487
0.10902004
0.10905897
0.10912273
0.10921233
0.10932892
0.10947375
0.10964824
0.10985401
0.11009292
0.11036699
0.11067861
0.11103048
0.11142555
0.11186724
0.11235931
0.11290582
0.11351144
0.11418134
0.11492047
0.11573464
0.11662926
0.11761085
0.11868147
0.11984266
0.12110147
0.12245333
0.12389045
0.12539974
0.12696244
0.12855562
0.13015528
0.13174025
0.13329766
0.13480875
0.13626361
0.13766584
0.13902279
0.14035376
0.14167086
0.14297046
0.1442818
0.14561806
0.1469929
0.14841888
0.14990713
0.15146668
0.15310554
0.15482333
0.1566077
0.15846135
0.1603626
0.16227899
0.16417358
0.16600485
0.16772345
0.1692847
0.17065016
0.17179528
0.17271174
0.1734142
0.173925
0.17428486
0.17451214
0.17462052
0.17467068
0.17464025
0.17449631
0.17428394
0.17402294
0.17373562
0.17343526
0.17313095
0.17282475
0.17252217
0.17222373
0.17192875
0.17163702
0.17134917
0.17106494
0.17078413
0.17050674
0.17023317
0.16996304
0.16969522
0.16943124
0.16916966
0.16891094
0.16865614
0.16840277
0.16815279
0.16790543
0.1676597
0.16741773
0.16717827
0.16694082
0.16670635
0.16647471
0.16624537
0.16601893
0.1657954
0.16557454
0.16535667
0.16514188
0.16492975
0.16472096
0.16451529
0.16431275
0.16411348
0.16391769
0.16372515
0.16353595
0.16335026
0.1631682
0.16298954
0.16281423
0.16264246
0.16247423
0.16230929
0.1621474
0.16198884
0.16183379
0.1616817
0.16153241
0.16138583
0.16124232
0.16110166
0.16096335
0.16082715
0.16069326
0.16056199
0.1604331
0.16030586
0.16018021
0.16005647
0.15993487
0.15981522
0.15969683
0.15957931
0.1594634
0.15934921
0.15923678
0.15912534
0.15901472
0.15890473
0.15879646
0.15868951
0.1585839
0.15847853
0.15837395
0.15826988
0.15816755
0.15806606
0.1579656
0.15786494
0.15776515
0.15766555
0.15756768
0.15747004
0.15737344
0.15727536
0.15717936
0.15707979
0.15698586
0.15688129
0.15679064
0.15666369
0.15657729
0.156351
0.15622117
0.15594404
)
;
    }
    lowerSymmetry
    {
        type            calculated;
        value           uniform 0;
    }
    upperSymmetry
    {
        type            calculated;
        value           uniform 0;
    }
    inlet
    {
        type            calculated;
        value           uniform 0;
    }
    outlet
    {
        type            calculated;
        value           uniform 0;
    }
    defaultFaces
    {
        type            empty;
    }
}


// ************************************************************************* //
