# Selection     : all 
# Volume        : 2.33333000e+00
# Time          	maxp	location	cell	maxk	location	cell	maxepsilon	location	cell	maxnut	location	cell
0               	0.00000000e+00	-3.13296488e-01 1.00232707e-06 5.00000000e-01	0	1.50000000e-04	-3.13296488e-01 1.00232707e-06 5.00000000e-01	0	1.00000000e-02	-3.13296488e-01 1.00232707e-06 5.00000000e-01	0	2.02500000e-07	-3.13296488e-01 1.00232707e-06 5.00000000e-01	0
1               	4.59049590e-04	-2.00507731e-03 1.00232707e-06 5.00000000e-01	23	2.64112765e-03	1.46301914e+00 3.02191818e-06 5.00000000e-01	259	5.97217229e+01	8.77038584e-01 1.00232707e-06 5.00000000e-01	109	2.05301285e-07	1.11935139e+00 3.38943957e-04 5.00000000e-01	4195
2               	7.80294934e-04	-2.00507731e-03 1.00232707e-06 5.00000000e-01	23	3.91779027e-03	1.46301914e+00 3.02191818e-06 5.00000000e-01	259	1.17378784e+02	1.46301914e+00 1.00232707e-06 5.00000000e-01	123	2.07922507e-07	1.07639292e+00 3.82971650e-04 5.00000000e-01	4330
3               	8.59713551e-04	-2.00507731e-03 1.00232707e-06 5.00000000e-01	23	3.95346721e-03	1.46301914e+00 3.02191818e-06 5.00000000e-01	259	1.35080252e+02	1.46301914e+00 1.00232707e-06 5.00000000e-01	123	2.10406054e-07	1.03343445e+00 3.82971650e-04 5.00000000e-01	4329
4               	8.51789453e-04	-2.00507731e-03 1.00232707e-06 5.00000000e-01	23	3.41588488e-03	1.41907466e-02 3.02191818e-06 5.00000000e-01	163	1.42307066e+02	1.46301914e+00 1.00232707e-06 5.00000000e-01	123	3.02187461e-07	-3.13296488e-01 9.42574530e-01 5.00000000e-01	12920
5               	8.70295707e-04	-2.00507731e-03 1.00232707e-06 5.00000000e-01	23	2.75498117e-03	1.41907466e-02 3.02191818e-06 5.00000000e-01	163	1.34661488e+02	1.46301914e+00 1.00232707e-06 5.00000000e-01	123	5.57588663e-07	-3.13296488e-01 9.42574530e-01 5.00000000e-01	12920
6               	9.30745727e-04	-2.00507731e-03 1.00232707e-06 5.00000000e-01	23	2.47777562e-03	6.03404640e-03 5.08654275e-06 5.00000000e-01	297	1.17976343e+02	1.16230986e+00 1.00232707e-06 5.00000000e-01	116	9.35412367e-07	-3.13296488e-01 9.42574530e-01 5.00000000e-01	12920
7               	1.01063803e-03	-2.00507731e-03 1.00232707e-06 5.00000000e-01	23	2.16422768e-03	6.03404640e-03 5.08654275e-06 5.00000000e-01	297	9.84482731e+01	1.41907466e-02 1.00232707e-06 5.00000000e-01	27	1.35489031e-06	-3.13296488e-01 9.42574530e-01 5.00000000e-01	12920
8               	1.09121972e-03	-2.00507731e-03 1.00232707e-06 5.00000000e-01	23	1.85832175e-03	6.03404640e-03 5.08654275e-06 5.00000000e-01	297	7.98364171e+01	1.41907466e-02 1.00232707e-06 5.00000000e-01	27	1.68133382e-06	-3.13296488e-01 9.42574530e-01 5.00000000e-01	12920
9               	1.16867621e-03	-2.00507731e-03 1.00232707e-06 5.00000000e-01	23	1.58401586e-03	6.03404640e-03 5.08654275e-06 5.00000000e-01	297	6.38083314e+01	1.41907466e-02 1.00232707e-06 5.00000000e-01	27	1.96278109e-06	-3.13296488e-01 9.42574530e-01 5.00000000e-01	12920
10              	1.24349296e-03	-2.00507731e-03 1.00232707e-06 5.00000000e-01	23	1.34927226e-03	6.03404640e-03 7.22696841e-06 5.00000000e-01	433	5.07582466e+01	1.41907466e-02 1.00232707e-06 5.00000000e-01	27	2.22943304e-06	-3.13296488e-01 9.42574530e-01 5.00000000e-01	12920
11              	1.31748949e-03	-2.00507731e-03 1.00232707e-06 5.00000000e-01	23	1.22225897e-03	6.03404640e-03 7.22696841e-06 5.00000000e-01	433	4.04659113e+01	1.41907466e-02 1.00232707e-06 5.00000000e-01	27	2.49178688e-06	-3.13296488e-01 9.42574530e-01 5.00000000e-01	12920
12              	1.39170403e-03	-2.00507731e-03 1.00232707e-06 5.00000000e-01	23	1.10445700e-03	6.03404640e-03 7.22696841e-06 5.00000000e-01	433	3.24873609e+01	1.41907466e-02 1.00232707e-06 5.00000000e-01	27	2.75283551e-06	-3.13296488e-01 9.42574530e-01 5.00000000e-01	12920
13              	1.46625718e-03	-2.00507731e-03 1.00232707e-06 5.00000000e-01	23	9.98312051e-04	6.03404640e-03 7.22696841e-06 5.00000000e-01	433	2.63502927e+01	1.41907466e-02 1.00232707e-06 5.00000000e-01	27	3.01339238e-06	-3.13296488e-01 9.42574530e-01 5.00000000e-01	12920
14              	1.54130169e-03	-2.00507731e-03 1.00232707e-06 5.00000000e-01	23	9.04392551e-04	6.03404640e-03 7.22696841e-06 5.00000000e-01	433	2.16358968e+01	1.41907466e-02 1.00232707e-06 5.00000000e-01	27	3.27316633e-06	-3.13296488e-01 9.42574530e-01 5.00000000e-01	12920
15              	1.61669918e-03	-2.00507731e-03 1.00232707e-06 5.00000000e-01	23	8.22430847e-04	1.41907466e-02 7.22696841e-06 5.00000000e-01	435	1.80028621e+01	1.41907466e-02 1.00232707e-06 5.00000000e-01	27	3.53350829e-06	-3.13296488e-01 9.42574530e-01 5.00000000e-01	12920
16              	1.69260011e-03	-2.00507731e-03 1.00232707e-06 5.00000000e-01	23	7.52487623e-04	6.03404640e-03 9.47509236e-06 5.00000000e-01	569	1.51854572e+01	1.41907466e-02 1.00232707e-06 5.00000000e-01	27	3.79392057e-06	-3.13296488e-01 9.42574530e-01 5.00000000e-01	12920
17              	1.76924792e-03	-2.00507731e-03 1.00232707e-06 5.00000000e-01	23	7.09895386e-04	6.03404640e-03 9.47509236e-06 5.00000000e-01	569	1.29820975e+01	1.41907466e-02 1.00232707e-06 5.00000000e-01	27	4.05396458e-06	-3.13296488e-01 9.42574530e-01 5.00000000e-01	12920
18              	1.84671040e-03	-2.00507731e-03 1.00232707e-06 5.00000000e-01	23	6.71075764e-04	6.03404640e-03 9.47509236e-06 5.00000000e-01	569	1.12420480e+01	1.41907466e-02 1.00232707e-06 5.00000000e-01	27	4.31392151e-06	-3.13296488e-01 9.42574530e-01 5.00000000e-01	12920
19              	1.92503338e-03	-2.00507731e-03 1.00232707e-06 5.00000000e-01	23	6.36181083e-04	1.83219665e-02 9.47509236e-06 5.00000000e-01	572	9.85338376e+00	1.41907466e-02 1.00232707e-06 5.00000000e-01	27	4.57383858e-06	-3.13296488e-01 9.42574530e-01 5.00000000e-01	12920
20              	2.00423579e-03	-2.00507731e-03 1.00232707e-06 5.00000000e-01	23	6.04836643e-04	1.83219665e-02 9.47509236e-06 5.00000000e-01	572	8.73316006e+00	1.41907466e-02 1.00232707e-06 5.00000000e-01	27	4.83372891e-06	-3.13296488e-01 9.42574530e-01 5.00000000e-01	12920
21              	2.08440482e-03	-2.00507731e-03 1.00232707e-06 5.00000000e-01	23	5.76735082e-04	1.83219665e-02 9.47509236e-06 5.00000000e-01	572	7.81980927e+00	1.41907466e-02 1.00232707e-06 5.00000000e-01	27	5.09359924e-06	-3.13296488e-01 9.42574530e-01 5.00000000e-01	12920
22              	2.16536984e-03	-2.00507731e-03 1.00232707e-06 5.00000000e-01	23	5.51598565e-04	1.83219665e-02 9.47509236e-06 5.00000000e-01	572	7.06743827e+00	1.41907466e-02 1.00232707e-06 5.00000000e-01	27	5.35345415e-06	-3.13296488e-01 9.42574530e-01 5.00000000e-01	12920
23              	2.24692125e-03	-2.00507731e-03 1.00232707e-06 5.00000000e-01	23	5.29147685e-04	1.83219665e-02 9.47509236e-06 5.00000000e-01	572	6.44162797e+00	1.41907466e-02 1.00232707e-06 5.00000000e-01	27	5.61329693e-06	-3.13296488e-01 9.42574530e-01 5.00000000e-01	12920
24              	2.32885273e-03	-2.00507731e-03 1.00232707e-06 5.00000000e-01	23	5.16377536e-04	2.24902447e-02 1.18644168e-05 5.00000000e-01	709	5.91637048e+00	1.41907466e-02 1.00232707e-06 5.00000000e-01	27	5.87313001e-06	-3.13296488e-01 9.42574530e-01 5.00000000e-01	12920
25              	2.41102864e-03	-2.00507731e-03 1.00232707e-06 5.00000000e-01	23	5.05640200e-04	2.24902447e-02 1.18644168e-05 5.00000000e-01	709	5.47556569e+00	2.00594380e-03 1.00232707e-06 5.00000000e-01	24	6.13295518e-06	-3.13296488e-01 9.42574530e-01 5.00000000e-01	12920
26              	2.49364954e-03	-2.00507731e-03 1.00232707e-06 5.00000000e-01	23	4.96008212e-04	2.24902447e-02 1.18644168e-05 5.00000000e-01	709	5.11028846e+00	2.00594380e-03 1.00232707e-06 5.00000000e-01	24	6.39277380e-06	-3.13296488e-01 9.42574530e-01 5.00000000e-01	12920
27              	2.57659038e-03	-2.00507731e-03 1.00232707e-06 5.00000000e-01	23	4.87427493e-04	2.24902447e-02 1.18644168e-05 5.00000000e-01	709	4.79845010e+00	2.00594380e-03 1.00232707e-06 5.00000000e-01	24	6.65258687e-06	-3.13296488e-01 9.42574530e-01 5.00000000e-01	12920
28              	2.65939191e-03	-2.00507731e-03 1.00232707e-06 5.00000000e-01	23	4.79841394e-04	2.66969903e-02 1.18644168e-05 5.00000000e-01	710	4.53089045e+00	2.00594380e-03 1.00232707e-06 5.00000000e-01	24	6.91239518e-06	-3.13296488e-01 9.42574530e-01 5.00000000e-01	12920
29              	2.74185321e-03	-2.00507731e-03 1.00232707e-06 5.00000000e-01	23	4.73193077e-04	2.66969903e-02 1.18644168e-05 5.00000000e-01	710	4.30036972e+00	2.00594380e-03 1.00232707e-06 5.00000000e-01	24	7.17219930e-06	-3.13296488e-01 9.42574530e-01 5.00000000e-01	12920
30              	2.82404531e-03	-2.00507731e-03 1.00232707e-06 5.00000000e-01	23	4.67427748e-04	2.66969903e-02 1.18644168e-05 5.00000000e-01	710	4.10111351e+00	2.00594380e-03 1.00232707e-06 5.00000000e-01	24	7.43199968e-06	-3.13296488e-01 9.42574530e-01 5.00000000e-01	12920
31              	2.90600799e-03	-2.00507731e-03 1.00232707e-06 5.00000000e-01	23	4.65466729e-04	6.03404640e-03 1.44305481e-05 5.00000000e-01	841	3.92847876e+00	2.00594380e-03 1.00232707e-06 5.00000000e-01	24	7.69179666e-06	-3.13296488e-01 9.42574530e-01 5.00000000e-01	12920
32              	2.98760568e-03	-2.00507731e-03 1.00232707e-06 5.00000000e-01	23	4.66340572e-04	6.03404640e-03 1.44305481e-05 5.00000000e-01	841	3.77870434e+00	2.00594380e-03 1.00232707e-06 5.00000000e-01	24	7.95159051e-06	-3.13296488e-01 9.42574530e-01 5.00000000e-01	12920
33              	3.06877392e-03	-2.00507731e-03 1.00232707e-06 5.00000000e-01	23	4.67767266e-04	6.03404640e-03 1.44305481e-05 5.00000000e-01	841	3.64872236e+00	2.00594380e-03 1.00232707e-06 5.00000000e-01	24	8.21138144e-06	-3.13296488e-01 9.42574530e-01 5.00000000e-01	12920
34              	3.14956107e-03	-2.00507731e-03 1.00232707e-06 5.00000000e-01	23	4.70148637e-04	2.00594380e-03 1.44305481e-05 5.00000000e-01	840	3.53601412e+00	2.00594380e-03 1.00232707e-06 5.00000000e-01	24	8.47116959e-06	-3.13296488e-01 9.42574530e-01 5.00000000e-01	12920
35              	3.22978472e-03	-2.00507731e-03 1.00232707e-06 5.00000000e-01	23	4.74580665e-04	2.00594380e-03 1.44305481e-05 5.00000000e-01	840	3.43849886e+00	2.00594380e-03 1.00232707e-06 5.00000000e-01	24	8.73095508e-06	-3.13296488e-01 9.42574530e-01 5.00000000e-01	12920
36              	3.30942862e-03	-2.00507731e-03 1.00232707e-06 5.00000000e-01	23	4.79677617e-04	2.00594380e-03 1.44305481e-05 5.00000000e-01	840	3.35444805e+00	2.00594380e-03 1.00232707e-06 5.00000000e-01	24	8.99073801e-06	-3.13296488e-01 9.42574530e-01 5.00000000e-01	12920
37              	3.38837362e-03	-2.00507731e-03 1.00232707e-06 5.00000000e-01	23	4.85446585e-04	2.00594380e-03 1.44305481e-05 5.00000000e-01	840	3.28241916e+00	2.00594380e-03 1.00232707e-06 5.00000000e-01	24	9.25051842e-06	-3.13296488e-01 9.42574530e-01 5.00000000e-01	12920
38              	3.46654714e-03	-2.00507731e-03 1.00232707e-06 5.00000000e-01	23	4.91891299e-04	2.00594380e-03 1.44305481e-05 5.00000000e-01	840	3.22120443e+00	2.00594380e-03 1.00232707e-06 5.00000000e-01	24	9.51029637e-06	-3.13296488e-01 9.42574530e-01 5.00000000e-01	12920
39              	3.54363598e-03	-2.00507731e-03 1.00232707e-06 5.00000000e-01	23	4.99023803e-04	2.00594380e-03 1.44305481e-05 5.00000000e-01	840	3.16979108e+00	2.00594380e-03 1.00232707e-06 5.00000000e-01	24	9.77007187e-06	-3.13296488e-01 9.42574530e-01 5.00000000e-01	12920
40              	3.61985134e-03	-2.00507731e-03 1.00232707e-06 5.00000000e-01	23	5.09578754e-04	2.00594380e-03 1.72117274e-05 5.00000000e-01	976	3.12732976e+00	2.00594380e-03 1.00232707e-06 5.00000000e-01	24	1.00298449e-05	-3.13296488e-01 9.42574530e-01 5.00000000e-01	12920
41              	3.69504032e-03	-2.00507731e-03 1.00232707e-06 5.00000000e-01	23	5.21803422e-04	2.00594380e-03 1.72117274e-05 5.00000000e-01	976	3.09310875e+00	2.00594380e-03 1.00232707e-06 5.00000000e-01	24	1.02896156e-05	-3.13296488e-01 9.42574530e-01 5.00000000e-01	12920
42              	3.76930175e-03	-2.00507731e-03 1.00232707e-06 5.00000000e-01	23	5.34774849e-04	2.00594380e-03 1.72117274e-05 5.00000000e-01	976	3.06653242e+00	2.00594380e-03 1.00232707e-06 5.00000000e-01	24	1.05493837e-05	-3.13296488e-01 9.42574530e-01 5.00000000e-01	12920
43              	3.84276691e-03	-2.00507731e-03 1.00232707e-06 5.00000000e-01	23	5.48509360e-04	2.00594380e-03 1.72117274e-05 5.00000000e-01	976	3.04710306e+00	2.00594380e-03 1.00232707e-06 5.00000000e-01	24	1.08091494e-05	-3.13296488e-01 9.42574530e-01 5.00000000e-01	12920
44              	3.91555282e-03	-2.00507731e-03 1.00232707e-06 5.00000000e-01	23	5.63550315e-04	6.03404640e-03 2.02494007e-05 5.00000000e-01	1113	3.03440579e+00	2.00594380e-03 1.00232707e-06 5.00000000e-01	24	1.10689126e-05	-3.13296488e-01 9.42574530e-01 5.00000000e-01	12920
45              	3.98746599e-03	-2.00507731e-03 1.00232707e-06 5.00000000e-01	23	5.80769314e-04	6.03404640e-03 2.02494007e-05 5.00000000e-01	1113	3.02809621e+00	2.00594380e-03 1.00232707e-06 5.00000000e-01	24	1.13286732e-05	-3.13296488e-01 9.42574530e-01 5.00000000e-01	12920
46              	4.05821164e-03	-2.00507731e-03 1.00232707e-06 5.00000000e-01	23	6.02523703e-04	6.03404640e-03 2.35888362e-05 5.00000000e-01	1249	3.02789061e+00	2.00594380e-03 1.00232707e-06 5.00000000e-01	24	1.15884312e-05	-3.13296488e-01 9.42574530e-01 5.00000000e-01	12920
47              	4.12783048e-03	-2.00507731e-03 1.00232707e-06 5.00000000e-01	23	6.25771235e-04	6.03404640e-03 2.35888362e-05 5.00000000e-01	1249	3.03355791e+00	2.00594380e-03 1.00232707e-06 5.00000000e-01	24	1.18481866e-05	-3.13296488e-01 9.42574530e-01 5.00000000e-01	12920
48              	4.19641266e-03	-2.00507731e-03 1.00232707e-06 5.00000000e-01	23	6.51185784e-04	6.03404640e-03 2.72797991e-05 5.00000000e-01	1385	3.04491283e+00	2.00594380e-03 1.00232707e-06 5.00000000e-01	24	1.21079392e-05	-3.13296488e-01 9.42574530e-01 5.00000000e-01	12920
49              	4.26426445e-03	-2.00507731e-03 1.00232707e-06 5.00000000e-01	23	6.80709036e-04	6.03404640e-03 2.72797991e-05 5.00000000e-01	1385	3.06180998e+00	2.00594380e-03 1.00232707e-06 5.00000000e-01	24	1.23676889e-05	-3.13296488e-01 9.42574530e-01 5.00000000e-01	12920
50              	4.33130605e-03	-2.00507731e-03 1.00232707e-06 5.00000000e-01	23	7.11709385e-04	6.03404640e-03 2.72797991e-05 5.00000000e-01	1385	3.09538198e+00	2.00594380e-03 1.44305481e-05 5.00000000e-01	840	1.26274358e-05	-3.13296488e-01 9.42574530e-01 5.00000000e-01	12920
51              	4.39698921e-03	-2.00507731e-03 1.00232707e-06 5.00000000e-01	23	7.47375397e-04	6.03404640e-03 3.13772932e-05 5.00000000e-01	1521	3.14548311e+00	2.00594380e-03 1.44305481e-05 5.00000000e-01	840	1.28871797e-05	-3.13296488e-01 9.42574530e-01 5.00000000e-01	12920
52              	4.46120559e-03	-2.00507731e-03 1.00232707e-06 5.00000000e-01	23	7.85077326e-04	6.03404640e-03 3.13772932e-05 5.00000000e-01	1521	3.19977377e+00	2.00594380e-03 1.44305481e-05 5.00000000e-01	840	1.31469205e-05	-3.13296488e-01 9.42574530e-01 5.00000000e-01	12920
53              	4.52472612e-03	-2.00507731e-03 1.00232707e-06 5.00000000e-01	23	8.24646341e-04	6.03404640e-03 3.13772932e-05 5.00000000e-01	1521	3.25825786e+00	2.00594380e-03 1.44305481e-05 5.00000000e-01	840	1.34066580e-05	-3.13296488e-01 9.42574530e-01 5.00000000e-01	12920
54              	4.58771498e-03	-2.00507731e-03 1.00232707e-06 5.00000000e-01	23	8.66304830e-04	6.03404640e-03 3.59423805e-05 5.00000000e-01	1657	3.32093153e+00	2.00594380e-03 1.44305481e-05 5.00000000e-01	840	1.36663923e-05	-3.13296488e-01 9.42574530e-01 5.00000000e-01	12920
55              	4.65039206e-03	-2.00507731e-03 1.00232707e-06 5.00000000e-01	23	9.12425445e-04	6.03404640e-03 3.59423805e-05 5.00000000e-01	1657	3.38782287e+00	2.00594380e-03 1.44305481e-05 5.00000000e-01	840	1.39261230e-05	-3.13296488e-01 9.42574530e-01 5.00000000e-01	12920
56              	4.71274446e-03	-2.00507731e-03 1.00232707e-06 5.00000000e-01	23	9.60710312e-04	6.03404640e-03 3.59423805e-05 5.00000000e-01	1657	3.45895739e+00	2.00594380e-03 1.44305481e-05 5.00000000e-01	840	1.41858501e-05	-3.13296488e-01 9.42574530e-01 5.00000000e-01	12920
57              	4.77456790e-03	-2.00507731e-03 1.00232707e-06 5.00000000e-01	23	1.01119231e-03	6.03404640e-03 3.59423805e-05 5.00000000e-01	1657	3.53435861e+00	2.00594380e-03 1.44305481e-05 5.00000000e-01	840	1.44455735e-05	-3.13296488e-01 9.42574530e-01 5.00000000e-01	12920
58              	4.83574433e-03	-2.00507731e-03 1.00232707e-06 5.00000000e-01	23	1.06390079e-03	6.03404640e-03 3.59423805e-05 5.00000000e-01	1657	3.61404864e+00	2.00594380e-03 1.44305481e-05 5.00000000e-01	840	1.47052929e-05	-3.13296488e-01 9.42574530e-01 5.00000000e-01	12920
59              	4.89627384e-03	-2.00507731e-03 1.00232707e-06 5.00000000e-01	23	1.11885942e-03	6.03404640e-03 3.59423805e-05 5.00000000e-01	1657	3.69804815e+00	2.00594380e-03 1.44305481e-05 5.00000000e-01	840	1.49650082e-05	-3.13296488e-01 9.42574530e-01 5.00000000e-01	12920
60              	4.95625563e-03	-2.00507731e-03 1.00232707e-06 5.00000000e-01	23	1.17608585e-03	6.03404640e-03 3.59423805e-05 5.00000000e-01	1657	3.79578206e+00	2.00594380e-03 1.72117274e-05 5.00000000e-01	976	1.52247191e-05	-3.13296488e-01 9.42574530e-01 5.00000000e-01	12920
61              	5.01590381e-03	-2.00507731e-03 1.00232707e-06 5.00000000e-01	23	1.23559207e-03	6.03404640e-03 3.59423805e-05 5.00000000e-01	1657	3.89930063e+00	2.00594380e-03 1.72117274e-05 5.00000000e-01	976	1.54844255e-05	-3.13296488e-01 9.42574530e-01 5.00000000e-01	12920
62              	5.07517155e-03	-2.00507731e-03 1.00232707e-06 5.00000000e-01	23	1.29738181e-03	6.03404640e-03 3.59423805e-05 5.00000000e-01	1657	4.00692075e+00	2.00594380e-03 1.72117274e-05 5.00000000e-01	976	1.57441271e-05	-3.13296488e-01 9.42574530e-01 5.00000000e-01	12920
63              	5.13396482e-03	-2.00507731e-03 1.00232707e-06 5.00000000e-01	23	1.36145077e-03	6.03404640e-03 3.59423805e-05 5.00000000e-01	1657	4.11862634e+00	2.00594380e-03 1.72117274e-05 5.00000000e-01	976	1.60038236e-05	-3.13296488e-01 9.42574530e-01 5.00000000e-01	12920
64              	5.19259922e-03	-2.00507731e-03 1.00232707e-06 5.00000000e-01	23	1.42778661e-03	6.03404640e-03 3.59423805e-05 5.00000000e-01	1657	4.23441483e+00	2.00594380e-03 1.72117274e-05 5.00000000e-01	976	1.62635149e-05	-3.13296488e-01 9.42574530e-01 5.00000000e-01	12920
65              	5.25111676e-03	-2.00507731e-03 1.00232707e-06 5.00000000e-01	23	1.49636897e-03	6.03404640e-03 3.59423805e-05 5.00000000e-01	1657	4.35428577e+00	2.00594380e-03 1.72117274e-05 5.00000000e-01	976	1.65232006e-05	-3.13296488e-01 9.42574530e-01 5.00000000e-01	12920
66              	5.30929478e-03	-2.00507731e-03 1.00232707e-06 5.00000000e-01	23	1.56716910e-03	6.03404640e-03 3.59423805e-05 5.00000000e-01	1657	4.47823477e+00	2.00594380e-03 1.72117274e-05 5.00000000e-01	976	1.67828803e-05	-3.13296488e-01 9.42574530e-01 5.00000000e-01	12920
67              	5.36678443e-03	-2.00507731e-03 1.00232707e-06 5.00000000e-01	23	1.64177044e-03	6.03404640e-03 4.10430912e-05 5.00000000e-01	1793	4.60625170e+00	2.00594380e-03 1.72117274e-05 5.00000000e-01	976	1.70425539e-05	-3.13296488e-01 9.42574530e-01 5.00000000e-01	12920
68              	5.42379832e-03	-2.00507731e-03 1.00232707e-06 5.00000000e-01	23	1.71874337e-03	6.03404640e-03 4.10430912e-05 5.00000000e-01	1793	4.73831994e+00	2.00594380e-03 1.72117274e-05 5.00000000e-01	976	1.73022208e-05	-3.13296488e-01 9.42574530e-01 5.00000000e-01	12920
69              	5.48037545e-03	-2.00507731e-03 1.00232707e-06 5.00000000e-01	23	1.79783486e-03	6.03404640e-03 4.10430912e-05 5.00000000e-01	1793	4.87441606e+00	2.00594380e-03 1.72117274e-05 5.00000000e-01	976	1.75618808e-05	-3.13296488e-01 9.42574530e-01 5.00000000e-01	12920
70              	5.53664414e-03	-2.00507731e-03 1.00232707e-06 5.00000000e-01	23	1.87897994e-03	6.03404640e-03 4.10430912e-05 5.00000000e-01	1793	5.01450992e+00	2.00594380e-03 1.72117274e-05 5.00000000e-01	976	1.78215334e-05	-3.13296488e-01 9.42574530e-01 5.00000000e-01	12920
71              	5.59273271e-03	-2.00507731e-03 1.00232707e-06 5.00000000e-01	23	1.96210860e-03	6.03404640e-03 4.10430912e-05 5.00000000e-01	1793	5.15856475e+00	2.00594380e-03 1.72117274e-05 5.00000000e-01	976	1.80811782e-05	-3.13296488e-01 9.42574530e-01 5.00000000e-01	12920
72              	5.64864247e-03	-2.00507731e-03 1.00232707e-06 5.00000000e-01	23	2.04714359e-03	6.03404640e-03 4.10430912e-05 5.00000000e-01	1793	5.30653711e+00	2.00594380e-03 1.72117274e-05 5.00000000e-01	976	1.83408147e-05	-3.13296488e-01 9.42574530e-01 5.00000000e-01	12920
73              	5.70432437e-03	-2.00507731e-03 1.00232707e-06 5.00000000e-01	23	2.13399311e-03	6.03404640e-03 4.10430912e-05 5.00000000e-01	1793	5.45837695e+00	2.00594380e-03 1.72117274e-05 5.00000000e-01	976	1.86004424e-05	-3.13296488e-01 9.42574530e-01 5.00000000e-01	12920
74              	5.75959174e-03	-2.00507731e-03 1.00232707e-06 5.00000000e-01	23	2.22255119e-03	6.03404640e-03 4.10430912e-05 5.00000000e-01	1793	5.61402755e+00	2.00594380e-03 1.72117274e-05 5.00000000e-01	976	1.88600608e-05	-3.13296488e-01 9.42574530e-01 5.00000000e-01	12920
75              	5.81443433e-03	-2.00507731e-03 1.00232707e-06 5.00000000e-01	23	2.31272569e-03	6.03404640e-03 4.10430912e-05 5.00000000e-01	1793	5.77342555e+00	2.00594380e-03 1.72117274e-05 5.00000000e-01	976	1.91196693e-05	-3.13296488e-01 9.42574530e-01 5.00000000e-01	12920
76              	5.86901151e-03	-2.00507731e-03 1.00232707e-06 5.00000000e-01	23	2.40442758e-03	6.03404640e-03 4.10430912e-05 5.00000000e-01	1793	5.93650099e+00	2.00594380e-03 1.72117274e-05 5.00000000e-01	976	1.93792672e-05	-3.13296488e-01 9.42574530e-01 5.00000000e-01	12920
77              	5.92350702e-03	-2.00507731e-03 1.00232707e-06 5.00000000e-01	23	2.49756879e-03	6.03404640e-03 4.10430912e-05 5.00000000e-01	1793	6.10317764e+00	2.00594380e-03 1.72117274e-05 5.00000000e-01	976	1.96388539e-05	-3.13296488e-01 9.42574530e-01 5.00000000e-01	12920
78              	5.97763104e-03	-2.00507731e-03 1.00232707e-06 5.00000000e-01	23	2.59206806e-03	6.03404640e-03 4.10430912e-05 5.00000000e-01	1793	6.27337009e+00	2.00594380e-03 1.72117274e-05 5.00000000e-01	976	1.98984287e-05	-3.13296488e-01 9.42574530e-01 5.00000000e-01	12920
79              	6.03138563e-03	-2.00507731e-03 1.00232707e-06 5.00000000e-01	23	2.68783721e-03	6.03404640e-03 4.10430912e-05 5.00000000e-01	1793	6.44699423e+00	2.00594380e-03 1.72117274e-05 5.00000000e-01	976	2.01579909e-05	-3.13296488e-01 9.42574530e-01 5.00000000e-01	12920
80              	6.08500572e-03	-2.00507731e-03 1.00232707e-06 5.00000000e-01	23	2.78478602e-03	6.03404640e-03 4.10430912e-05 5.00000000e-01	1793	6.62395832e+00	2.00594380e-03 1.72117274e-05 5.00000000e-01	976	2.04175395e-05	-3.13296488e-01 9.42574530e-01 5.00000000e-01	12920
81              	6.13855848e-03	-2.00507731e-03 1.00232707e-06 5.00000000e-01	23	2.88282865e-03	6.03404640e-03 4.10430912e-05 5.00000000e-01	1793	6.80416431e+00	2.00594380e-03 1.72117274e-05 5.00000000e-01	976	2.06770738e-05	-3.13296488e-01 9.42574530e-01 5.00000000e-01	12920
82              	6.19201284e-03	-2.00507731e-03 1.00232707e-06 5.00000000e-01	23	2.98188817e-03	6.03404640e-03 4.10430912e-05 5.00000000e-01	1793	6.98750856e+00	2.00594380e-03 1.72117274e-05 5.00000000e-01	976	2.09365928e-05	-3.13296488e-01 9.42574530e-01 5.00000000e-01	12920
83              	6.24540002e-03	-2.00507731e-03 1.00232707e-06 5.00000000e-01	23	3.08188406e-03	6.03404640e-03 4.10430912e-05 5.00000000e-01	1793	7.17388225e+00	2.00594380e-03 1.72117274e-05 5.00000000e-01	976	2.11960955e-05	-3.13296488e-01 9.42574530e-01 5.00000000e-01	12920
84              	6.29877769e-03	-2.00507731e-03 1.00232707e-06 5.00000000e-01	23	3.18273305e-03	6.03404640e-03 4.10430912e-05 5.00000000e-01	1793	7.36317176e+00	2.00594380e-03 1.72117274e-05 5.00000000e-01	976	2.14555809e-05	-3.13296488e-01 9.42574530e-01 5.00000000e-01	12920
85              	6.35210704e-03	-2.00507731e-03 1.00232707e-06 5.00000000e-01	23	3.28435256e-03	6.03404640e-03 4.10430912e-05 5.00000000e-01	1793	7.55525828e+00	2.00594380e-03 1.72117274e-05 5.00000000e-01	976	2.17150478e-05	-3.13296488e-01 9.42574530e-01 5.00000000e-01	12920
86              	6.40513278e-03	-2.00507731e-03 1.00232707e-06 5.00000000e-01	23	3.38666066e-03	6.03404640e-03 4.10430912e-05 5.00000000e-01	1793	7.79730813e+00	2.00594380e-03 1.00232707e-06 5.00000000e-01	24	2.19744950e-05	-3.13296488e-01 9.42574530e-01 5.00000000e-01	12920
87              	6.45792720e-03	-2.00507731e-03 1.00232707e-06 5.00000000e-01	23	3.48957650e-03	6.03404640e-03 4.10430912e-05 5.00000000e-01	1793	8.05513686e+00	2.00594380e-03 1.00232707e-06 5.00000000e-01	24	2.22339211e-05	-3.13296488e-01 9.42574530e-01 5.00000000e-01	12920
88              	6.51056241e-03	-2.00507731e-03 1.00232707e-06 5.00000000e-01	23	3.59301980e-03	6.03404640e-03 4.10430912e-05 5.00000000e-01	1793	8.32050879e+00	2.00594380e-03 1.00232707e-06 5.00000000e-01	24	2.24933249e-05	-3.13296488e-01 9.42574530e-01 5.00000000e-01	12920
89              	6.56310053e-03	-2.00507731e-03 1.00232707e-06 5.00000000e-01	23	3.69691290e-03	6.03404640e-03 4.10430912e-05 5.00000000e-01	1793	8.59340247e+00	2.00594380e-03 1.00232707e-06 5.00000000e-01	24	2.27527048e-05	-3.13296488e-01 9.42574530e-01 5.00000000e-01	12920
90              	6.61555138e-03	-2.00507731e-03 1.00232707e-06 5.00000000e-01	23	3.80118117e-03	6.03404640e-03 4.10430912e-05 5.00000000e-01	1793	8.87378525e+00	2.00594380e-03 1.00232707e-06 5.00000000e-01	24	2.30120593e-05	-3.13296488e-01 9.42574530e-01 5.00000000e-01	12920
91              	6.66778209e-03	-2.00507731e-03 1.00232707e-06 5.00000000e-01	23	3.90575277e-03	6.03404640e-03 4.10430912e-05 5.00000000e-01	1793	9.16161304e+00	2.00594380e-03 1.00232707e-06 5.00000000e-01	24	2.32713865e-05	-3.13296488e-01 9.42574530e-01 5.00000000e-01	12920
92              	6.71987061e-03	-2.00507731e-03 1.00232707e-06 5.00000000e-01	23	4.01055833e-03	6.03404640e-03 4.10430912e-05 5.00000000e-01	1793	9.45683024e+00	2.00594380e-03 1.00232707e-06 5.00000000e-01	24	2.35306848e-05	-3.13296488e-01 9.42574530e-01 5.00000000e-01	12920
93              	6.77192965e-03	-2.00507731e-03 1.00232707e-06 5.00000000e-01	23	4.11553340e-03	6.03404640e-03 4.10430912e-05 5.00000000e-01	1793	9.75936956e+00	2.00594380e-03 1.00232707e-06 5.00000000e-01	24	2.37899522e-05	-3.13296488e-01 9.42574530e-01 5.00000000e-01	12920
94              	6.82390455e-03	-2.00507731e-03 1.00232707e-06 5.00000000e-01	23	4.22062052e-03	6.03404640e-03 4.10430912e-05 5.00000000e-01	1793	1.00691519e+01	2.00594380e-03 1.00232707e-06 5.00000000e-01	24	2.40491866e-05	-3.13296488e-01 9.42574530e-01 5.00000000e-01	12920
95              	6.87602580e-03	-2.00507731e-03 1.00232707e-06 5.00000000e-01	23	4.32575800e-03	6.03404640e-03 4.10430912e-05 5.00000000e-01	1793	1.03860861e+01	2.00594380e-03 1.00232707e-06 5.00000000e-01	24	2.43083858e-05	-3.13296488e-01 9.42574530e-01 5.00000000e-01	12920
96              	6.92841590e-03	-2.00507731e-03 1.00232707e-06 5.00000000e-01	23	4.43088497e-03	6.03404640e-03 4.10430912e-05 5.00000000e-01	1793	1.07100695e+01	2.00594380e-03 1.00232707e-06 5.00000000e-01	24	2.45675475e-05	-3.13296488e-01 9.42574530e-01 5.00000000e-01	12920
97              	6.98111233e-03	-2.00507731e-03 1.00232707e-06 5.00000000e-01	23	4.53594277e-03	6.03404640e-03 4.10430912e-05 5.00000000e-01	1793	1.10409877e+01	2.00594380e-03 1.00232707e-06 5.00000000e-01	24	2.48266691e-05	-3.13296488e-01 9.42574530e-01 5.00000000e-01	12920
98              	7.03419428e-03	-2.00507731e-03 1.00232707e-06 5.00000000e-01	23	4.64087553e-03	6.03404640e-03 4.10430912e-05 5.00000000e-01	1793	1.13787150e+01	2.00594380e-03 1.00232707e-06 5.00000000e-01	24	2.50857480e-05	-3.13296488e-01 9.42574530e-01 5.00000000e-01	12920
99              	7.08759127e-03	-2.00507731e-03 1.00232707e-06 5.00000000e-01	23	4.74563024e-03	6.03404640e-03 4.10430912e-05 5.00000000e-01	1793	1.17231149e+01	2.00594380e-03 1.00232707e-06 5.00000000e-01	24	2.53447813e-05	-3.13296488e-01 9.42574530e-01 5.00000000e-01	12920
100             	7.14117214e-03	-2.00507731e-03 1.00232707e-06 5.00000000e-01	23	4.85015687e-03	6.03404640e-03 4.10430912e-05 5.00000000e-01	1793	1.20740396e+01	2.00594380e-03 1.00232707e-06 5.00000000e-01	24	2.56037660e-05	-3.13296488e-01 9.42574530e-01 5.00000000e-01	12920
101             	7.19489018e-03	-2.00507731e-03 1.00232707e-06 5.00000000e-01	23	4.95440844e-03	6.03404640e-03 4.10430912e-05 5.00000000e-01	1793	1.24313309e+01	2.00594380e-03 1.00232707e-06 5.00000000e-01	24	2.58626988e-05	-3.13296488e-01 9.42574530e-01 5.00000000e-01	12920
102             	7.24872311e-03	-2.00507731e-03 1.00232707e-06 5.00000000e-01	23	5.05834096e-03	6.03404640e-03 4.10430912e-05 5.00000000e-01	1793	1.27948239e+01	2.00594380e-03 1.00232707e-06 5.00000000e-01	24	2.61215762e-05	-3.13296488e-01 9.42574530e-01 5.00000000e-01	12920
103             	7.30261092e-03	-2.00507731e-03 1.00232707e-06 5.00000000e-01	23	5.16191331e-03	6.03404640e-03 4.10430912e-05 5.00000000e-01	1793	1.31643442e+01	2.00594380e-03 1.00232707e-06 5.00000000e-01	24	2.63803945e-05	-3.13296488e-01 9.42574530e-01 5.00000000e-01	12920
104             	7.35648215e-03	-2.00507731e-03 1.00232707e-06 5.00000000e-01	23	5.26508702e-03	6.03404640e-03 4.10430912e-05 5.00000000e-01	1793	1.35397092e+01	2.00594380e-03 1.00232707e-06 5.00000000e-01	24	2.66391499e-05	-3.13296488e-01 9.42574530e-01 5.00000000e-01	12920
105             	7.41030607e-03	-2.00507731e-03 1.00232707e-06 5.00000000e-01	23	5.36782623e-03	6.03404640e-03 4.10430912e-05 5.00000000e-01	1793	1.39207282e+01	2.00594380e-03 1.00232707e-06 5.00000000e-01	24	2.68978380e-05	-3.13296488e-01 9.42574530e-01 5.00000000e-01	12920
106             	7.46395043e-03	-2.00507731e-03 1.00232707e-06 5.00000000e-01	23	5.47009740e-03	6.03404640e-03 4.10430912e-05 5.00000000e-01	1793	1.43072037e+01	2.00594380e-03 1.00232707e-06 5.00000000e-01	24	2.71564545e-05	-3.13296488e-01 9.42574530e-01 5.00000000e-01	12920
107             	7.51744117e-03	-2.00507731e-03 1.00232707e-06 5.00000000e-01	23	5.57186861e-03	6.03404640e-03 4.10430912e-05 5.00000000e-01	1793	1.46989317e+01	2.00594380e-03 1.00232707e-06 5.00000000e-01	24	2.74149945e-05	-3.13296488e-01 9.42574530e-01 5.00000000e-01	12920