#      distance             U_x             U_y             U_z wallShearStr... wallShearStr... wallShearStr...               p           omega               k             nut
  3.0219182e-06     0.018437897   2.6285367e-09  -3.4461655e-23               0               0               0   0.00023276991       5570601.8   3.9968312e-07   3.7391034e-13
  5.0865428e-06     0.031038045   6.6680434e-09  -1.4611667e-23               0               0               0   0.00023277012       1240850.2   1.8252634e-06   3.4559065e-12
  7.2269684e-06     0.044100098   1.3130921e-08  -3.7643569e-23               0               0               0   0.00023277034       495682.18   5.7569208e-06    1.932566e-11
  9.4750924e-06      0.05781669   2.2379635e-08  -5.6459314e-23               0               0               0   0.00023277056       256764.63   1.4417827e-05   7.8819719e-11
  1.1864417e-05     0.072385824   3.4925665e-08  -2.3401184e-23               0               0               0   0.00023277079       152802.44   3.1086394e-05   2.5990383e-10
  1.4430548e-05     0.088006914   5.1503399e-08   7.8883356e-23               0               0               0   0.00023277104       99058.221   6.0518696e-05   7.3658852e-10
  1.7211727e-05      0.10486875   7.3070933e-08   1.2748178e-22               0               0               0   0.00023277133       68139.936   0.00010940378   1.8611156e-09
  2.0249401e-05       0.1231232   1.0082316e-07   2.8786953e-23               0               0               0   0.00023277165       49052.783   0.00018656267   4.2814189e-09
  2.3588836e-05      0.14283965   1.3618392e-07  -3.0452075e-23               0               0               0   0.00023277204       36671.309   0.00030228857   9.0656142e-09
  2.7279799e-05      0.16394573   1.8074267e-07  -1.5226037e-23               0               0               0   0.00023277252       28321.837   0.00046603843   1.7755319e-08
  3.1377293e-05      0.18618226   2.3613328e-07               0               0               0               0   0.00023277314        22484.26   0.00068235638   3.2248274e-08
  3.5942381e-05      0.20911581   3.0391762e-07   7.1950183e-23               0               0               0   0.00023277397       18244.025   0.00094683005   5.4497351e-08
  4.1043091e-05      0.23222712   3.8556721e-07   1.0791373e-22               0               0               0   0.00023277506       15039.649    0.0012453334   8.6183117e-08
  4.6755437e-05       0.2550356   4.8252853e-07   1.2149827e-22               0               0               0   0.00023277648       12530.035    0.0015580324   1.2857482e-07
  5.3164546e-05      0.27720475   5.9647849e-07   1.2828836e-22               0               0               0   0.00023277827       10510.288    0.0018656974    1.820526e-07
  6.0365928e-05      0.29857475   7.2964297e-07  -1.9330953e-22               0               0               0   0.00023278051       8853.5792    0.0021545104   2.4683812e-07
    6.84669e-05      0.31908971   8.8474044e-07  -4.1173712e-22               0               0               0   0.00023278331       7476.9373    0.0024168764   3.2495205e-07
  7.7588184e-05      0.33871268   1.0647842e-06  -2.1503982e-22               0               0               0   0.00023278678       6324.5488     0.002649331    4.196172e-07
   8.786571e-05      0.35741909   1.2731443e-06   6.1356241e-23               0               0               0   0.00023279108       5357.5388    0.0028511068   5.3377143e-07
  9.9452634e-05      0.37521871   1.5136942e-06   2.7236415e-22               0               0               0   0.00023279632       4546.6249     0.003023702   6.6994595e-07
  0.00011252163      0.39216383   1.7909684e-06   5.6553114e-23               0               0               0   0.00023280264       3867.6642    0.0031701537   8.2954997e-07
  0.00012726745      0.40834862    2.110465e-06  -1.5312164e-22               0               0               0   0.00023281013       3299.2825    0.0032942022   1.0127859e-06
  0.00014390985      0.42388512   2.4787654e-06  -3.8032718e-23               0               0               0   0.00023281893       2822.4267    0.0033995577   1.2215805e-06
  0.00016269684      0.43886731   2.9032912e-06    6.821053e-23               0               0               0   0.00023282927       2421.0095    0.0034893282    1.460569e-06
  0.00018390838      0.45336304   3.3923411e-06    5.441031e-22               0               0               0    0.0002328414       2082.0039     0.003565903   1.7344594e-06
  0.00020786057      0.46742746   3.9555001e-06   6.7966818e-22               0               0               0   0.00023285562       1794.8362     0.003631221   2.0475822e-06
  0.00023491035      0.48110995   4.6038483e-06   2.0377562e-22               0               0               0   0.00023287223       1550.8451    0.0036869366   2.4048063e-06
  0.00026546084      0.49445445   5.3500852e-06               0               0               0               0   0.00023289158       1342.9264    0.0037344448   2.8115988e-06
   0.0002999673      0.50750006   6.2087809e-06               0               0               0               0   0.00023291407        1165.241    0.0037749128   3.2740893e-06
  0.00033894396      0.52028155   7.1966653e-06   -1.851257e-22               0               0               0   0.00023294016       1012.9787    0.0038093115   3.7991396e-06
  0.00038297165      0.53282992   8.3329528e-06   -3.702514e-22               0               0               0   0.00023297036       882.16479    0.0038384439   4.3944163e-06
  0.00043270649      0.54517285   9.6397176e-06   8.0096522e-22               0               0               0   0.00023300528       769.50515    0.0038629706   5.0684672e-06
  0.00048888965      0.55733517   1.1142328e-05   1.5554503e-21               0               0               0   0.00023304558       672.26045    0.0038834303   5.8307983e-06
  0.00055235838      0.56933929   1.2869953e-05   5.6935939e-22               0               0               0   0.00023309202       588.14488    0.0039002575   6.6919492e-06
   0.0006240585      0.58120553   1.4856153e-05               0               0               0               0   0.00023314547       515.24449    0.0039137966   7.6635638e-06
  0.00070505852       0.5929525   1.7139567e-05   2.3905979e-22               0               0               0    0.0002332069       451.95114    0.0039243128   8.7584494e-06
  0.00079656552      0.60459737   1.9764731e-05   4.7811958e-22               0               0               0   0.00023327742       396.90914    0.0039320009    9.990619e-06
  0.00089994316      0.61615617   2.2783028e-05   2.3905979e-22               0               0               0   0.00023335824       348.97182    0.0039369916   1.1375304e-05
    0.001016732      0.62764406   2.6253823e-05               0               0               0               0   0.00023345078        307.1663     0.003939356   1.2928924e-05
   0.0011486725       0.6390756   3.0245817e-05   1.0417352e-21               0               0               0   0.00023355656       270.66467    0.0039391083      1.4669e-05
   0.0012977308      0.65046502   3.4838663e-05  -7.8790201e-22               0               0               0   0.00023367731       238.76044    0.0039362071   1.6613969e-05
   0.0014661282      0.66182645   4.0124929e-05    -3.49056e-21               0               0               0   0.00023381493       210.84908    0.0039305547   1.8782891e-05
   0.0016563743      0.67317427   4.6212471e-05  -2.6967256e-21               0               0               0   0.00023397151       186.41215     0.003921995    2.119498e-05
   0.0018713042      0.68452337   5.3227352e-05  -1.5854748e-21               0               0               0   0.00023414932       165.00399    0.0039103101   2.3868912e-05
   0.0021141207      0.69588951   6.1317449e-05  -5.4967195e-22               0               0               0   0.00023435081       146.24079    0.0038952145   2.6821831e-05
   0.0023884425      0.70728978   7.0656955e-05   -4.009893e-22               0               0               0   0.00023457856       129.79145    0.0038763474   3.0067955e-05
   0.0026983575      0.71874299   8.1452057e-05   1.2443808e-21               0               0               0   0.00023483527          115.37     0.003853262   3.3616658e-05
   0.0030484842      0.73027033   9.3948164e-05  -2.2368379e-21               0               0               0   0.00023512362       102.72918    0.0038254119    3.746987e-05
   0.0034440402      0.74189609   0.00010843922  -5.6990445e-21               0               0               0   0.00023544618       91.655205    0.0037921333   4.1618622e-05
   0.0038909203       0.7536485   0.00012527985  -1.8168365e-21               0               0               0   0.00023580516       81.963305    0.0037526211   4.6038513e-05
    0.004395784      0.76556092   0.00014490142   3.1397602e-21               0               0               0   0.00023620215       73.494089    0.0037058985   5.0683875e-05
   0.0049661549      0.77767333   0.00016783401    -4.68462e-21               0               0               0   0.00023663771       66.110595    0.0036507764   5.5480412e-05
   0.0056105328      0.79003422   0.00019473667  -1.3757798e-20               0               0               0   0.00023711062       59.695988    0.0035858006   6.0316163e-05
   0.0063385204      0.80270318   0.00022643573   5.3446189e-21               0               0               0   0.00023761594       54.151958    0.0035091842   6.5030781e-05
   0.0071609664      0.81575429   0.00026395402   1.8558578e-20               0               0               0   0.00023814083       49.397952    0.0034187219   6.9403438e-05
   0.0080901272      0.82929299   0.00030865978   2.9368986e-20               0               0               0   0.00023866949       45.366221    0.0033113872     7.30029e-05
   0.0091398493       0.8434913   0.00036256219   3.4056876e-20               0               0               0   0.00023918717       41.988021     0.003182394   7.5150161e-05
    0.010325776        0.858598   0.00042857547   1.6024996e-20               0               0               0   0.00023965767       39.180254     0.003024092    7.529853e-05
     0.01166558      0.87491336   0.00051063471   4.0565667e-21               0               0               0   0.00024001061       36.833168    0.0028246255   7.3110055e-05
    0.013179228      0.89277144   0.00061404695   1.7909665e-20               0               0               0   0.00024015389       34.786936     0.002566595   6.8305646e-05
    0.014889277      0.91247576   0.00074575566   1.6571128e-20               0               0               0    0.0002399394       32.818525    0.0022283415   6.0909949e-05
    0.016821209      0.93403213   0.00091053615   5.0715008e-20               0               0               0   0.00023904586       30.697436    0.0017936203   5.1466411e-05
    0.019003816      0.95679103    0.0011121112   7.7420078e-20               0               0               0   0.00023727668       28.146538    0.0012635045   4.0159588e-05
    0.021469624      0.97883304    0.0013395476   4.3865219e-20               0               0               0   0.00023447053       23.077352   0.00068845318   2.6268467e-05
    0.024255377       0.9952669    0.0015166101    2.405517e-20               0               0               0   0.00022960333       14.332482   0.00023566343   1.2129319e-05
    0.027402591       1.0024696    0.0015843299   5.5564402e-21               0               0               0   0.00022279022       7.3126319   3.6690542e-05   3.1150703e-06
    0.030958166       1.0037759    0.0015883128               0               0               0               0   0.00021583179       5.3270009   1.7761426e-06   3.2427798e-07
    0.034975088       1.0038178    0.0015795135               0               0               0               0   0.00020934056       5.2603573   6.5595387e-07   1.2469789e-07
    0.039513219       1.0038154    0.0015693839   1.9703302e-20               0               0               0   0.00020287966        5.261848   6.5391263e-07   1.2427305e-07
    0.044640187       1.0038176    0.0015601592   2.9551864e-20               0               0               0   0.00019622098       5.2622591   6.5412433e-07   1.2430341e-07
    0.050432395       1.0038245    0.0015498722   9.8485261e-21               0               0               0   0.00018936199        5.262237    6.541362e-07   1.2430619e-07
    0.056976161       1.0038303    0.0015380608               0               0               0               0    0.0001824004       5.2622294   6.5413297e-07   1.2430576e-07
    0.064369002       1.0038308    0.0015254816               0               0               0               0   0.00017551095       5.2622236   6.5413177e-07   1.2430567e-07
    0.072721087       1.0038279    0.0015117726               0               0               0               0   0.00016884664       5.2622135   6.5413016e-07    1.243056e-07
    0.082156882       1.0038227    0.0014970875               0               0               0               0   0.00016249489        5.262196   6.5412761e-07   1.2430553e-07
    0.092817002        1.003815    0.0014811955               0               0               0               0   0.00015653669       5.2621688   6.5412381e-07   1.2430545e-07
