#      distance             U_x             U_y             U_z wallShearStr... wallShearStr... wallShearStr...               p           omega               k             nut
              0      0.99947428               0               0               0               0               0     0.004662441       121.60032   1.6521911e-05    1.358707e-07
   0.0021021021      0.99945911               0               0               0               0               0    0.0046806348        121.6059   1.6510933e-05    1.357742e-07
   0.0042042042      0.99944393               0               0               0               0               0    0.0046988287       121.61148   1.6499955e-05   1.3567769e-07
   0.0063063063      0.99942875               0               0               0               0               0    0.0047170225       121.61706   1.6488977e-05   1.3558118e-07
   0.0084084084      0.99941357               0               0               0               0               0    0.0047352163       121.62265   1.6477999e-05   1.3548468e-07
    0.010510511      0.99939627               0               0               0               0               0    0.0047558379       121.62863   1.6467974e-05   1.3539559e-07
    0.012612613      0.99937763               0               0               0               0               0    0.0047779673       121.63486    1.645854e-05   1.3531111e-07
    0.014714715        0.999359               0               0               0               0               0    0.0048000967       121.64109   1.6449107e-05   1.3522663e-07
    0.016816817      0.99934036               0               0               0               0               0    0.0048222261       121.64732   1.6439673e-05   1.3514215e-07
    0.018918919      0.99932173               0               0               0               0               0    0.0048443556       121.65356   1.6430239e-05   1.3505767e-07
    0.021021021      0.99930254               0               0               0               0               0    0.0048671022       121.65992   1.6420967e-05   1.3497438e-07
    0.023123123      0.99927963               0               0               0               0               0    0.0048939981       121.66717   1.6412781e-05   1.3489906e-07
    0.025225225      0.99925672               0               0               0               0               0     0.004920894       121.67443   1.6404594e-05   1.3482374e-07
    0.027327327      0.99923381               0               0               0               0               0      0.00494779       121.68168   1.6396407e-05   1.3474842e-07
    0.029429429       0.9992109               0               0               0               0               0    0.0049746859       121.68894   1.6388221e-05    1.346731e-07
    0.031531532      0.99918662               0               0               0               0               0      0.00500307       121.69651   1.6380301e-05   1.3459964e-07
    0.033633634      0.99915837               0               0               0               0               0    0.0050358009       121.70499   1.6373164e-05   1.3453162e-07
    0.035735736      0.99913011               0               0               0               0               0    0.0050685318       121.71348   1.6366026e-05   1.3446359e-07
    0.037837838      0.99910186               0               0               0               0               0    0.0051012626       121.72197   1.6358888e-05   1.3439557e-07
     0.03993994      0.99907361               0               0               0               0               0    0.0051339935       121.73046   1.6351751e-05   1.3432754e-07
    0.042042042      0.99903917               0               0               0               0               0    0.0051733431       121.74022   1.6345449e-05   1.3426503e-07
    0.044144144      0.99900416               0               0               0               0               0    0.0052133129       121.75009   1.6339227e-05   1.3420303e-07
    0.046246246      0.99896915               0               0               0               0               0    0.0052532828       121.75997   1.6333004e-05   1.3414104e-07
    0.048348348      0.99893382               0               0               0               0               0    0.0052935879        121.7699   1.6326811e-05   1.3407923e-07
     0.05045045      0.99889015               0               0               0               0               0    0.0053426958       121.78131   1.6321416e-05   1.3402236e-07
    0.052552553      0.99884648               0               0               0               0               0    0.0053918037       121.79273    1.631602e-05    1.339655e-07
    0.054654655       0.9988028               0               0               0               0               0    0.0054409116       121.80414   1.6310624e-05   1.3390864e-07
    0.056756757      0.99875273               0               0               0               0               0     0.005496608       121.81647   1.6305654e-05   1.3385429e-07
    0.058858859      0.99869762               0               0               0               0               0    0.0055574987       121.82953   1.6301021e-05   1.3380192e-07
    0.060960961      0.99864251               0               0               0               0               0    0.0056183893       121.84258   1.6296388e-05   1.3374955e-07
    0.063063063      0.99858094               0               0               0               0               0    0.0056859494       121.85651   1.6292077e-05   1.3369889e-07
    0.065165165      0.99851063               0               0               0               0               0    0.0057625265       121.87161   1.6288203e-05   1.3365054e-07
    0.067267267      0.99844032               0               0               0               0               0    0.0058391036       121.88671   1.6284329e-05    1.336022e-07
    0.069369369      0.99835692               0               0               0               0               0    0.0059282772       121.90242   1.6280808e-05   1.3355609e-07
    0.071471471      0.99826419               0               0               0               0               0    0.0060264321       121.91858   1.6277538e-05   1.3351156e-07
    0.073573574      0.99817147               0               0               0               0               0    0.0061245869       121.93474   1.6274268e-05   1.3346704e-07
    0.075675676      0.99804937               0               0               0               0               0    0.0062544332       121.95736   1.6272219e-05    1.334255e-07
    0.077777778      0.99792694               0               0               0               0               0    0.0063846393       121.98005   1.6270183e-05   1.3338398e-07
     0.07987988      0.99776722               0               0               0               0               0    0.0065439594       121.99297   1.6267163e-05   1.3334509e-07
    0.081981982      0.99758242               0               0               0               0               0    0.0067228534       121.99931    1.626348e-05   1.3330796e-07
    0.084084084      0.99737377               0               0               0               0               0    0.0069373527       122.03661   1.6264066e-05   1.3327204e-07
    0.086186186      0.99712491               0               0               0               0               0    0.0072118285       122.12604   1.6271842e-05   1.3323816e-07
    0.088288288      0.99673727               0  -3.2230654e-22               0               0               0    0.0075261764       122.12677    1.626726e-05   1.3319975e-07
     0.09039039      0.99598592               0  -1.4892347e-21               0               0               0    0.0079450109       121.89504   1.6230293e-05   1.3314945e-07
    0.092492492      0.99526686               0   9.8350254e-18               0               0               0    0.0085574082       126.44588   1.6409336e-05   1.3087628e-07
    0.094594595      0.99463294               0   4.5612122e-17               0               0               0    0.0096802033       143.60771   1.7157968e-05   1.2274172e-07
    0.096696697      0.90659003               0   6.9359249e-17  -0.00046091264  -3.0805974e-06               0     0.010453895       1403727.1   1.6235604e-05   1.0561668e-07
    0.098798799      0.64601085               0   6.9360468e-17   -0.0018316188  -1.2241973e-05               0     0.010538491       5577804.1   1.2014871e-05   7.0745366e-08
      0.1009009      0.38547885               0    5.378557e-17   -0.0029026567  -1.7540785e-05    8.018322e-20     0.009692982       9751100.7   7.4487336e-06   3.9407117e-08
       0.103003      0.12500975               0   1.7442515e-17   -0.0035741371  -1.7689512e-05    2.672774e-19    0.0076073312        13923357   2.4220587e-06   1.2779622e-08
     0.10510511               0               0               0   -0.0035269191  -1.3037705e-05   4.6580089e-19     0.005946848        15925793   1.3423306e-08               0
     0.10720721               0               0               0   -0.0028164444  -3.9556855e-06   6.7487202e-19    0.0046787341        15925793   2.0866932e-08               0
     0.10930931               0               0               0    -0.002519452  -2.0125955e-07   6.0399053e-19    0.0042392771        15925793   2.6652599e-08               0
     0.11141141               0               0               0   -0.0025026004  -5.6363083e-08   3.4343667e-19    0.0043612483        15925793   3.1314972e-08               0
     0.11351351               0               0               0     -0.00248862  -7.4447723e-09     1.18955e-19    0.0044853735        15925793   3.3388736e-08               0
     0.11561562               0               0               0   -0.0024761443  -8.8239147e-09  -8.6623003e-20    0.0046106274        15925793   3.4105937e-08               0
     0.11771772               0               0               0   -0.0024520375  -1.0734594e-08  -9.5807943e-20    0.0046212899        15925793    3.380429e-08               0
     0.11981982               0               0               0   -0.0024229344  -1.2873602e-08  -2.0629947e-20    0.0045827284        15925793   3.3064984e-08               0
     0.12192192               0               0               0   -0.0023922965  -1.3361819e-08               0    0.0045043235        15925793   3.2179629e-08               0
     0.12402402               0               0               0   -0.0023610782  -1.3225711e-08               0    0.0044108499        15925793   3.1239039e-08               0
     0.12612613               0               0               0   -0.0023323637  -1.2585158e-08               0     0.004336608        15925793   3.0388756e-08               0
     0.12822823               0               0               0   -0.0023045579  -1.1761511e-08               0    0.0042693465        15925793   2.9571251e-08               0
     0.13033033               0               0               0   -0.0022796487  -1.0956327e-08               0    0.0042213614        15925793   2.8845098e-08               0
     0.13243243               0               0               0   -0.0022558483   -1.015821e-08               0    0.0041807554        15925793   2.8153915e-08               0
     0.13453453               0               0               0   -0.0022342867  -9.4782026e-09  -1.4530768e-19    0.0041436826        15925793   2.7529472e-08               0
     0.13663664               0               0               0   -0.0022137155  -8.8504444e-09  -3.5489678e-19    0.0041081727        15925793   2.6934553e-08               0
     0.13873874               0               0               0   -0.0021947697  -8.3099793e-09  -4.2964372e-19    0.0040728126        15925793   2.6390062e-08               0
     0.14084084               0               0               0   -0.0021767249  -7.8179032e-09  -4.2964376e-19    0.0040375354        15925793   2.5873523e-08               0
     0.14294294               0               0               0   -0.0021598459  -7.3878765e-09  -4.0622049e-19    0.0040036701        15925793   2.5393967e-08               0
     0.14504505               0               0               0    -0.002143837  -7.0041607e-09  -3.6531511e-19    0.0039708585        15925793   2.4942013e-08               0
     0.14714715               0               0               0    -0.002128576   -6.664169e-09  -2.7246711e-19    0.0039394021        15925793   2.4512907e-08               0
     0.14924925               0               0               0   -0.0021141243  -6.3714888e-09  -1.2341486e-19    0.0039094121        15925793   2.4108524e-08               0
     0.15135135               0               0               0   -0.0021001157  -6.0984364e-09  -1.9544037e-20    0.0038802105        15925793   2.3717581e-08               0
     0.15345345               0               0               0   -0.0020868761  -5.8594433e-09    5.925423e-21    0.0038523767        15925793   2.3349964e-08               0
     0.15555556               0               0               0   -0.0020738813  -5.6267956e-09  -7.6014017e-21    0.0038249641        15925793   2.2990202e-08               0
     0.15765766               0               0               0   -0.0020617166  -5.4156698e-09  -1.5339619e-19    0.0037989804        15925793   2.2657085e-08               0
     0.15975976               0               0               0   -0.0020496157  -5.2059919e-09  -2.7351723e-19    0.0037731174        15925793   2.2326017e-08               0
     0.16186186               0               0               0   -0.0020384194  -5.0168882e-09  -2.8814788e-20    0.0037489709        15925793    2.202407e-08               0
     0.16396396               0               0               0   -0.0020272231  -4.8277846e-09   2.1588765e-19    0.0037248243        15925793   2.1722123e-08               0
     0.16606607               0               0               0   -0.0020168029  -4.6567981e-09   2.4552974e-19    0.0037022786        15925793    2.144478e-08               0
     0.16816817               0               0               0   -0.0020064897  -4.4883086e-09   2.4552977e-19    0.0036799535        15925793   2.1170828e-08               0
     0.17027027               0               0               0   -0.0019966999  -4.3341219e-09   1.4119938e-19    0.0036586258        15925793   2.0913114e-08               0
     0.17237237               0               0               0   -0.0019871723  -4.1871035e-09   -1.541991e-20    0.0036377981        15925793   2.0663538e-08               0
     0.17447447               0               0               0   -0.0019779383  -4.0481112e-09  -1.0522115e-19    0.0036175312        15925793   2.0422934e-08               0
     0.17657658               0               0               0   -0.0019690987  -3.9199055e-09  -1.0522116e-19     0.003598018        15925793   2.0194386e-08               0
     0.17867868               0               0               0   -0.0019603569  -3.7941874e-09  -1.1061139e-19    0.0035786776        15925793   1.9968799e-08               0
     0.18078078               0               0               0   -0.0019521304  -3.6815931e-09  -1.4443837e-19    0.0035602485        15925793   1.9758829e-08               0
     0.18288288               0               0               0   -0.0019439039  -3.5689988e-09  -1.7826536e-19    0.0035418195        15925793   1.9548859e-08               0
     0.18498498               0               0               0   -0.0019361472  -3.4683066e-09  -1.1928981e-19    0.0035242737        15925793   1.9352964e-08               0
     0.18708709               0               0               0   -0.0019284649  -3.3694993e-09  -4.5617075e-20    0.0035068678        15925793   1.9159299e-08               0
     0.18918919               0               0               0   -0.0019210429  -3.2767383e-09   3.0166005e-20    0.0034899263        15925793   1.8973356e-08               0
     0.19129129               0               0               0    -0.001913845  -3.1891826e-09   1.0776585e-19    0.0034733847        15925793   1.8794062e-08               0
     0.19339339               0               0               0   -0.0019067265  -3.1032367e-09    1.584057e-19    0.0034569926        15925793   1.8617105e-08               0
      0.1954955               0               0               0   -0.0018999679  -3.0245981e-09   8.6675999e-20    0.0034412789        15925793   1.8450756e-08               0
      0.1975976               0               0               0   -0.0018932093  -2.9459594e-09   1.4946292e-20    0.0034255653        15925793   1.8284408e-08               0
      0.1996997               0               0               0   -0.0018867688  -2.8732789e-09               0    0.0034105763        15925793    1.812729e-08               0
      0.2018018               0               0               0   -0.0018804121  -2.8021667e-09               0     0.003395778        15925793   1.7972601e-08               0
      0.2039039               0               0               0   -0.0018741916  -2.7337037e-09   -2.024108e-20    0.0033811568        15925793   1.7821824e-08               0
     0.20600601               0               0               0   -0.0018682039  -2.6697621e-09  -7.5025907e-20    0.0033668379        15925793   1.7677725e-08               0
     0.20810811               0               0               0   -0.0018622162  -2.6058204e-09  -1.2981073e-19    0.0033525189        15925793   1.7533626e-08               0
     0.21021021               0               0               0   -0.0018565335  -2.5475638e-09  -1.3458726e-19    0.0033388051        15925793    1.739824e-08               0
     0.21231231               0               0               0     -0.00185088  -2.4898502e-09  -1.3458728e-19     0.003325149        15925793   1.7263687e-08               0
     0.21441441               0               0               0   -0.0018453568  -2.4342242e-09  -1.1221955e-19     0.003311843        15925793   1.7132791e-08               0
     0.21651652               0               0               0   -0.0018400131  -2.3814765e-09  -5.9012927e-20    0.0032990196        15925793   1.7006938e-08               0
     0.21861862               0               0               0   -0.0018346695  -2.3287288e-09  -5.8063064e-21    0.0032861961        15925793   1.6881086e-08               0
     0.22072072               0               0               0   -0.0018295816  -2.2807732e-09               0    0.0032736156        15925793   1.6762326e-08               0
     0.22282282               0               0               0   -0.0018245251  -2.2334046e-09               0    0.0032610647        15925793   1.6644436e-08               0
     0.22492492               0               0               0   -0.0018195517  -2.1875537e-09               0    0.0032486761        15925793   1.6528848e-08               0
     0.22702703               0               0               0   -0.0018147527  -2.1448859e-09               0    0.0032366277        15925793    1.641809e-08               0
     0.22912913               0               0               0   -0.0018099537   -2.102218e-09               0    0.0032245793        15925793   1.6307332e-08               0
     0.23123123               0               0               0   -0.0018053268  -2.0618427e-09  -2.7822258e-20    0.0032130446        15925793   1.6201275e-08               0
     0.23333333               0               0               0   -0.0018007686  -2.0223815e-09  -6.6739912e-20    0.0032017148        15925793   1.6097091e-08               0
     0.23543544               0               0               0   -0.0017962253  -1.9831549e-09  -1.0072015e-19    0.0031903981        15925793   1.5993308e-08               0
     0.23753754               0               0               0   -0.0017918941  -1.9472745e-09  -6.4242568e-20     0.003179268        15925793   1.5895234e-08               0
     0.23963964               0               0               0   -0.0017875628   -1.911394e-09  -2.7764991e-20    0.0031681379        15925793    1.579716e-08               0
     0.24174174               0               0               0   -0.0017833083  -1.8767881e-09   9.1575663e-21    0.0031571236        15925793   1.5701153e-08               0
     0.24384384               0               0               0   -0.0017791826  -1.8443241e-09   4.6827998e-20     0.003146304        15925793   1.5608618e-08               0
     0.24594595               0               0               0   -0.0017750569  -1.8118602e-09   8.4498429e-20    0.0031354843        15925793   1.5516084e-08               0
     0.24804805               0               0               0   -0.0017710535  -1.7808352e-09    7.577706e-20    0.0031250517        15925793   1.5426813e-08               0
     0.25015015               0               0               0   -0.0017671203  -1.7506341e-09   4.0493244e-20    0.0031148407        15925793   1.5339411e-08               0
     0.25225225               0               0               0    -0.001763187   -1.720433e-09   5.2094283e-21    0.0031046296        15925793   1.5252009e-08               0
     0.25435435               0               0               0   -0.0017594104  -1.6923283e-09               0    0.0030946737        15925793   1.5168702e-08               0
     0.25645646               0               0               0   -0.0017556609  -1.6645869e-09               0     0.003084762        15925793   1.5086104e-08               0
     0.25855856               0               0               0   -0.0017519149  -1.6369021e-09   5.8298499e-22    0.0030748524        15925793   1.5003596e-08               0
     0.26066066               0               0               0   -0.0017483332  -1.6119123e-09   2.8890251e-20    0.0030650381        15925793   1.4925377e-08               0
     0.26276276               0               0               0   -0.0017447514  -1.5869226e-09   5.7197517e-20    0.0030552237        15925793   1.4847158e-08               0
     0.26486486               0               0               0   -0.0017411912  -1.5621827e-09    8.157773e-20    0.0030454713        15925793   1.4769502e-08               0
     0.26696697               0               0               0   -0.0017377643  -1.5389937e-09    8.157775e-20    0.0030361029        15925793   1.4695339e-08               0
     0.26906907               0               0               0   -0.0017343373  -1.5158047e-09   8.1577769e-20    0.0030267344        15925793   1.4621177e-08               0
     0.27117117               0               0               0   -0.0017309411   -1.492902e-09   7.5987035e-20    0.0030174706        15925793     1.45478e-08               0
     0.27327327               0               0               0   -0.0017276641  -1.4711111e-09   4.8686157e-20    0.0030086128        15925793   1.4477475e-08               0
     0.27537538               0               0               0    -0.001724387  -1.4493202e-09   2.1385279e-20    0.0029997551        15925793   1.4407149e-08               0
     0.27747748               0               0               0   -0.0017211406   -1.427954e-09  -5.0943244e-21    0.0029909106        15925793   1.4337595e-08               0
     0.27957958               0               0               0   -0.0017180049  -1.4081226e-09  -2.8604969e-20    0.0029821142        15925793   1.4270827e-08               0
     0.28168168               0               0               0   -0.0017148693  -1.3882912e-09  -5.2115614e-20    0.0029733178        15925793   1.4204058e-08               0
     0.28378378               0               0               0   -0.0017117558  -1.3687697e-09  -7.1576495e-20    0.0029645324        15925793   1.4137855e-08               0
     0.28588589               0               0               0    -0.001708749  -1.3507369e-09  -7.1576514e-20    0.0029557993        15925793   1.4074366e-08               0
     0.28798799               0               0               0   -0.0017057422  -1.3327041e-09  -7.1576533e-20    0.0029470663        15925793   1.4010877e-08               0
     0.29009009               0               0               0   -0.0017027438  -1.3147625e-09  -7.0010796e-20    0.0029383651        15925793   1.3947604e-08               0
     0.29219219               0               0               0   -0.0016998589  -1.2980472e-09  -4.7388931e-20    0.0029300921        15925793    1.388722e-08               0
     0.29429429               0               0               0    -0.001696974   -1.281332e-09  -2.4767067e-20     0.002921819        15925793   1.3826836e-08               0
      0.2963964               0               0               0    -0.001694089  -1.2646167e-09   -2.145202e-21     0.002913546        15925793   1.3766452e-08               0
      0.2984985               0               0               0   -0.0016913081  -1.2492277e-09               0    0.0029056401        15925793   1.3708579e-08               0
      0.3006006               0               0               0    -0.001688538  -1.2339777e-09               0    0.0028977726        15925793    1.365097e-08               0
      0.3027027               0               0               0   -0.0016857679  -1.2187276e-09               0    0.0028899051        15925793    1.359336e-08               0
      0.3048048               0               0               0   -0.0016830692  -1.2043508e-09   1.2557187e-20    0.0028820376        15925793   1.3537416e-08               0
     0.30690691               0               0               0   -0.0016804044  -1.1903896e-09   3.1088868e-20    0.0028741702        15925793   1.3482264e-08               0
     0.30900901               0               0               0   -0.0016777396  -1.1764283e-09   4.9620549e-20    0.0028663028        15925793   1.3427111e-08               0
     0.31111111               0               0               0   -0.0016751134  -1.1627406e-09   5.7689033e-20     0.002858456        15925793     1.33729e-08               0
     0.31321321               0               0               0   -0.0016725492  -1.1494918e-09   4.8963729e-20    0.0028506423        15925793   1.3320197e-08               0
     0.31531532               0               0               0   -0.0016699851  -1.1362431e-09   4.0238425e-20    0.0028428286        15925793   1.3267495e-08               0
     0.31741742               0               0               0    -0.001667423  -1.1230051e-09   3.1669188e-20    0.0028350234        15925793   1.3214844e-08               0
     0.31951952               0               0               0   -0.0016649578  -1.1102664e-09   3.0311577e-20    0.0028276105        15925793   1.3164589e-08               0
     0.32162162               0               0               0   -0.0016624927  -1.0975277e-09   2.8953966e-20    0.0028201976        15925793   1.3114334e-08               0
     0.32372372               0               0               0   -0.0016600275   -1.084789e-09   2.7596355e-20    0.0028127847        15925793    1.306408e-08               0
     0.32582583               0               0               0   -0.0016576192  -1.0724747e-09   3.1939243e-20    0.0028055816        15925793    1.301519e-08               0
     0.32792793               0               0               0   -0.0016552509  -1.0604594e-09   4.0299447e-20    0.0027985264        15925793   1.2967263e-08               0
     0.33003003               0               0               0   -0.0016528826  -1.0484441e-09   4.8659651e-20    0.0027914712        15925793   1.2919336e-08               0
     0.33213213               0               0               0   -0.0016505214  -1.0365045e-09   5.5165214e-20    0.0027844176        15925793   1.2871577e-08               0
     0.33423423               0               0               0   -0.0016482449  -1.0254715e-09   3.9452054e-20    0.0027773837        15925793   1.2825826e-08               0
     0.33633634               0               0               0   -0.0016459683  -1.0144385e-09   2.3738894e-20    0.0027703498        15925793   1.2780075e-08               0
     0.33843844               0               0               0   -0.0016436918  -1.0034055e-09   8.0257343e-21    0.0027633159        15925793   1.2734324e-08               0
     0.34054054               0               0               0   -0.0016414571   -9.927981e-10  -1.0041953e-20    0.0027562905        15925793   1.2689579e-08               0
     0.34264264               0               0               0    -0.001639266  -9.8263497e-10  -3.0567786e-20    0.0027492741        15925793   1.2645882e-08               0
     0.34474474               0               0               0   -0.0016370749  -9.7247183e-10  -5.1093619e-20    0.0027422576        15925793   1.2602185e-08               0
     0.34684685               0               0               0   -0.0016348838   -9.623087e-10  -7.1619452e-20    0.0027352412        15925793   1.2558489e-08               0
     0.34894895               0               0               0   -0.0016327596  -9.5263708e-10  -7.5319456e-20    0.0027284516        15925793   1.2516402e-08               0
     0.35105105               0               0               0   -0.0016306501  -9.4307353e-10  -7.5319485e-20    0.0027217119        15925793   1.2474669e-08               0
     0.35315315               0               0               0   -0.0016285407  -9.3350999e-10  -7.5319514e-20    0.0027149721        15925793   1.2432935e-08               0