/*--------------------------------*- C++ -*----------------------------------*\
  =========                 |
  \\      /  F ield         | OpenFOAM: The Open Source CFD Toolbox
   \\    /   O peration     | Website:  https://openfoam.org
    \\  /    A nd           | Version:  12
     \\/     M anipulation  |
\*---------------------------------------------------------------------------*/
FoamFile
{
    format      ascii;
    class       volScalarField;
    location    "300";
    object      epsilon;
}
// * * * * * * * * * * * * * * * * * * * * * * * * * * * * * * * * * * * * * //

dimensions      [0 2 -3 0 0 0 0];

internalField   nonuniform List<scalar> 
7480
(
0.0025836137
0.0045355132
0.0081122947
0.014229677
0.024274146
0.040083662
0.063791079
0.097439225
0.14237026
0.19849036
0.26368153
0.33392758
0.40397835
0.46844914
0.52287698
0.56469693
0.591988
0.61142917
0.61098967
0.60606983
0.59482461
0.57919272
0.56098419
0.54171643
0.52261781
0.50466482
0.48861769
0.47502978
0.4642568
0.45641544
0.45130699
0.44839363
0.44686843
0.44584602
0.44460672
0.44275391
0.44022036
0.43715611
0.43377322
0.43022974
0.42659431
0.42287471
0.41906881
0.41519786
0.41130579
0.40743853
0.40362579
0.39987793
0.39619492
0.39257568
0.38902083
0.38553044
0.38210412
0.37874036
0.37543722
0.3721931
0.36900659
0.36587589
0.36279903
0.35977526
0.35680302
0.35388001
0.3510043
0.34817447
0.34538924
0.34264744
0.33994797
0.33728962
0.33467129
0.33209189
0.32955033
0.32704564
0.32457692
0.32214319
0.3197435
0.31737703
0.31504294
0.31274044
0.31046875
0.3082271
0.30601475
0.30383099
0.3016751
0.29954641
0.29744424
0.29536793
0.29331687
0.29129045
0.28928804
0.28730886
0.28535222
0.28341693
0.28150272
0.27960616
0.27773145
0.27586049
0.27403025
0.2721196
0.27049059
0.26752921
8.8343842e-05
0.00016982545
0.00028346877
0.00045361387
0.00072389824
0.0011671221
0.0018959355
0.0030654484
0.0048560151
0.0074306693
0.010881797
0.015253882
0.020510976
0.026402296
0.032566679
0.038678628
0.04435247
0.04984038
0.054759969
0.059578533
0.064881997
0.07174426
0.080433109
0.089841779
0.10005606
0.11129439
0.12360362
0.13670015
0.15011693
0.16314269
0.17480492
0.18414999
0.19052921
0.19382665
0.19447196
0.19324557
0.19099229
0.18838617
0.18580553
0.18336308
0.18102534
0.17872826
0.17644538
0.17419587
0.17201615
0.16992995
0.16793955
0.16603369
0.16419844
0.16242426
0.16070537
0.15903697
0.15741426
0.15583318
0.15429049
0.15278337
0.15130923
0.14986588
0.14845166
0.14706575
0.14570659
0.14437258
0.14306257
0.14177584
0.1405117
0.13926948
0.13804857
0.13684835
0.13566826
0.13450778
0.13336641
0.13224369
0.13113917
0.13005241
0.12898302
0.12793058
0.1268947
0.12587498
0.12487102
0.12388246
0.12290891
0.12195001
0.12100541
0.12007475
0.11915769
0.11825389
0.11736303
0.11648479
0.11561885
0.11476483
0.11392237
0.11309107
0.11227056
0.11146024
0.11066006
0.1098681
0.10908773
0.10829859
0.10760057
0.10639439
3.0130463e-05
3.8738927e-05
5.0944362e-05
6.6674542e-05
8.6940559e-05
0.00011358404
0.00014916629
0.00019681488
0.00025993385
0.00034183588
0.00044548249
0.00057380978
0.00072975544
0.00091507918
0.0011294476
0.0013707083
0.0016329951
0.0019128328
0.0022041236
0.002506219
0.0028264591
0.0031933913
0.0036494537
0.004245256
0.0050495501
0.0061566493
0.0076770377
0.0098773648
0.013030001
0.017435805
0.023941955
0.031846284
0.040839259
0.050512032
0.060198038
0.069226113
0.076965267
0.082967173
0.087108161
0.089582673
0.090793133
0.091199136
0.091187401
0.09099721
0.090727225
0.090392931
0.089985168
0.089504893
0.088969999
0.088402966
0.087819072
0.087224312
0.086619922
0.086006892
0.085387149
0.084762709
0.084135025
0.083505103
0.082873763
0.082241741
0.081609816
0.080978666
0.080348899
0.079721095
0.079095797
0.078473499
0.07785466
0.077239687
0.076628938
0.076022749
0.075421427
0.074825248
0.074234451
0.073649249
0.073069835
0.072496372
0.071928987
0.071367779
0.070812822
0.07026417
0.069721861
0.069185914
0.068656334
0.068133107
0.067616207
0.067105602
0.066601254
0.066103119
0.065611132
0.065125203
0.064645206
0.064171021
0.063702464
0.063239519
0.062781758
0.062329651
0.061882311
0.061434343
0.061037783
0.060349229
2.6107482e-05
2.74008e-05
2.9661423e-05
3.2824547e-05
3.6865959e-05
4.1847795e-05
4.7913482e-05
5.5262397e-05
6.4115546e-05
7.4680713e-05
8.7126871e-05
0.00010158596
0.00011816459
0.000136927
0.00015786316
0.00018088315
0.00020576846
0.00023226867
0.00026006865
0.0002888932
0.00031856007
0.0003492925
0.00038170464
0.00041722186
0.00045821579
0.00050832065
0.00057292417
0.00066094154
0.00078735751
0.0009729965
0.0012704892
0.0017382312
0.0024621874
0.0035405202
0.0052075043
0.0076176133
0.011148479
0.015799498
0.021199043
0.026967445
0.032681189
0.037933178
0.042384938
0.045865249
0.048394838
0.050143833
0.051345728
0.052208608
0.052864601
0.053372806
0.053751713
0.054011955
0.054170493
0.054248238
0.054262808
0.054225616
0.054143827
0.054023155
0.053868941
0.053685913
0.053478044
0.053248606
0.053000381
0.052735824
0.052457113
0.052166173
0.051864708
0.05155423
0.051236091
0.050911513
0.050581592
0.050247318
0.049909584
0.049569192
0.049226866
0.04888326
0.048538956
0.048194471
0.047850262
0.047506738
0.047164264
0.04682316
0.046483709
0.046146157
0.045810718
0.045477584
0.045146923
0.044818886
0.04449359
0.044171124
0.043851528
0.043534852
0.043221059
0.042910331
0.042602329
0.042297961
0.04199594
0.041694228
0.041428665
0.040963166
2.5610086e-05
2.5821746e-05
2.6275121e-05
2.702736e-05
2.8101626e-05
2.9506658e-05
3.1251992e-05
3.3354274e-05
3.5836639e-05
3.872443e-05
4.2040259e-05
4.5801207e-05
5.0018634e-05
5.4697944e-05
5.9836833e-05
6.5424296e-05
7.1437229e-05
7.7843021e-05
8.4599403e-05
9.1659585e-05
9.897492e-05
0.00010651047
0.00011425141
0.0001222249
0.00013051841
0.0001393045
0.00014886966
0.00015964369
0.00017234072
0.00018789927
0.00020813143
0.00023564865
0.00027441783
0.00033000252
0.00041343751
0.00054053909
0.00074501523
0.0010809534
0.0016151971
0.0024732142
0.0037858705
0.0057020762
0.008399608
0.011660229
0.015249153
0.018902725
0.022355891
0.025391739
0.027899164
0.029880751
0.031424086
0.032646134
0.033642894
0.034470791
0.035156368
0.035715462
0.036164659
0.036521809
0.036802335
0.037017549
0.03717587
0.037284396
0.037349468
0.037376595
0.037370422
0.037334905
0.037273512
0.037189295
0.037084943
0.036962833
0.036825077
0.03667356
0.036509971
0.036335818
0.036152459
0.035961114
0.035762876
0.035558729
0.035349555
0.035136145
0.034919213
0.034699398
0.034477274
0.034253354
0.034028094
0.033801909
0.033575175
0.033348231
0.033121371
0.032894848
0.03266886
0.032443597
0.032219168
0.031995866
0.031773529
0.031553085
0.031333595
0.031113716
0.030921863
0.03058056
2.5412999e-05
2.5475519e-05
2.5583557e-05
2.5768043e-05
2.6057412e-05
2.6473429e-05
2.7031378e-05
2.7742149e-05
2.8614188e-05
2.9654504e-05
3.0868778e-05
3.2261072e-05
3.3833657e-05
3.5586991e-05
3.7519641e-05
3.962821e-05
4.1907039e-05
4.4348196e-05
4.6941312e-05
4.9674167e-05
5.2532983e-05
5.5503779e-05
5.857354e-05
6.1732595e-05
6.4977596e-05
6.8314996e-05
7.1765646e-05
7.5367617e-05
7.9186824e-05
8.3321705e-05
8.7921598e-05
9.3233756e-05
9.960265e-05
0.00010748487
0.00011762377
0.00013100768
0.00014936347
0.00017538673
0.00021312661
0.00026987533
0.0003573227
0.00049524214
0.0007233903
0.0010909845
0.0016971714
0.0026300047
0.0040317329
0.0059130396
0.0081577207
0.010604196
0.0130771
0.015406263
0.017472038
0.019225618
0.020685053
0.021904301
0.022937748
0.023821899
0.024577247
0.025218098
0.025758682
0.02621309
0.026593302
0.026908726
0.027167061
0.027375059
0.027538689
0.0276631
0.027752731
0.02781148
0.027842791
0.027849709
0.027834935
0.02780087
0.027749662
0.027683229
0.027603293
0.027511397
0.027408927
0.02729713
0.027177129
0.027049935
0.026916454
0.026777504
0.026633819
0.026486064
0.026334845
0.026180709
0.026024144
0.025865581
0.025705385
0.025543893
0.025381364
0.025218192
0.025054406
0.024890881
0.024727119
0.0245619
0.02441899
0.024159602
2.5201472e-05
2.5248259e-05
2.5302457e-05
2.5371091e-05
2.5465212e-05
2.5597267e-05
2.5779484e-05
2.6022902e-05
2.6336965e-05
2.672946e-05
2.7206585e-05
2.7773024e-05
2.8432011e-05
2.9185427e-05
3.0033903e-05
3.0976922e-05
3.2012911e-05
3.3139296e-05
3.4352519e-05
3.5648168e-05
3.7021075e-05
3.8465501e-05
3.9975376e-05
4.1544719e-05
4.316824e-05
4.4842083e-05
4.6564853e-05
4.8338484e-05
5.0169794e-05
5.2072541e-05
5.4068729e-05
5.6195238e-05
5.8507429e-05
6.1079901e-05
6.4022695e-05
6.747636e-05
7.1637437e-05
7.6801808e-05
8.3385108e-05
9.2016661e-05
0.00010364467
0.00011963535
0.00014240915
0.00017560216
0.00022631294
0.0003050239
0.00043276758
0.00064235494
0.00098518568
0.0015399887
0.0023901105
0.0035950834
0.0050976375
0.0068005802
0.0085877759
0.010337229
0.011952833
0.01338405
0.014626962
0.015704696
0.016644295
0.017465059
0.018179566
0.018798598
0.019333155
0.01979357
0.02018857
0.020525448
0.0208106
0.021049742
0.021247901
0.021409485
0.021538394
0.0216381
0.021711692
0.021761925
0.021791263
0.021801916
0.021795867
0.021774897
0.021740611
0.02169445
0.021637714
0.021571572
0.02149708
0.021415191
0.021326774
0.021232615
0.021133422
0.021029825
0.020922376
0.020811578
0.02069785
0.0205817
0.020463349
0.020343636
0.020222456
0.020098677
0.019992411
0.019794027
2.4956688e-05
2.5002038e-05
2.5049563e-05
2.5099333e-05
2.5153727e-05
2.5216657e-05
2.5293184e-05
2.5389127e-05
2.551065e-05
2.566388e-05
2.5854606e-05
2.6088047e-05
2.6368683e-05
2.670015e-05
2.7085192e-05
2.752566e-05
2.8022551e-05
2.8576063e-05
2.9185645e-05
2.9850087e-05
3.0567593e-05
3.1335855e-05
3.2152134e-05
3.3013386e-05
3.3916434e-05
3.4858177e-05
3.5835865e-05
3.684742e-05
3.7891794e-05
3.8969572e-05
4.0083358e-05
4.1238725e-05
4.2445458e-05
4.3718119e-05
4.5077613e-05
4.6554804e-05
4.8203156e-05
5.0082731e-05
5.2273134e-05
5.4882803e-05
5.8070172e-05
6.2028333e-05
6.7052644e-05
7.3557395e-05
8.2242314e-05
9.4088061e-05
0.00011076462
0.00013491896
0.00017115724
0.000227479
0.0003177938
0.00046616994
0.00070875666
0.0011055141
0.0017249123
0.0025999343
0.0037011758
0.0049656028
0.0063101677
0.0076471812
0.0089060272
0.010048966
0.011069435
0.011977197
0.012784186
0.0134994
0.014130333
0.014684777
0.015170624
0.015595025
0.015964215
0.016283782
0.016558798
0.016793806
0.016992862
0.017159605
0.017297299
0.017408882
0.017496991
0.017564004
0.017612061
0.017643092
0.017658836
0.017660861
0.017650584
0.017629289
0.017598139
0.017558192
0.017510405
0.017455635
0.01739464
0.01732811
0.017256644
0.017180882
0.017101235
0.017018553
0.016933048
0.016843777
0.016767589
0.016618977
2.4682926e-05
2.4727701e-05
2.4774145e-05
2.4821089e-05
2.4868687e-05
2.4917741e-05
2.4969622e-05
2.5026285e-05
2.5090236e-05
2.5164439e-05
2.5252199e-05
2.5357009e-05
2.5482387e-05
2.5631723e-05
2.580814e-05
2.6014377e-05
2.6252717e-05
2.6524927e-05
2.6832241e-05
2.7175364e-05
2.7554501e-05
2.7969381e-05
2.8419302e-05
2.8903184e-05
2.9419647e-05
2.9967101e-05
3.0543853e-05
3.1148234e-05
3.1778747e-05
3.243427e-05
3.3114236e-05
3.3818865e-05
3.4549524e-05
3.5309032e-05
3.6102048e-05
3.6935561e-05
3.782172e-05
3.8776982e-05
3.9822701e-05
4.0986583e-05
4.2304209e-05
4.3832244e-05
4.5643379e-05
4.7823806e-05
5.0500302e-05
5.3847289e-05
5.8102583e-05
6.36242e-05
7.0962417e-05
8.0983538e-05
9.5073611e-05
0.00011549884
0.00014614581
0.00019384092
0.00027101484
0.0003971268
0.00060514243
0.00094153387
0.0014629283
0.0021747066
0.0030537606
0.0040534027
0.0051095752
0.0061577126
0.007150094
0.0080636556
0.0088941047
0.0096448529
0.010320242
0.010924544
0.011462738
0.01194036
0.012362799
0.012735019
0.013061624
0.013346887
0.013594719
0.013808684
0.013992022
0.01414768
0.014278332
0.0143864
0.014474079
0.014543361
0.014596047
0.014633774
0.014658029
0.014670166
0.014671412
0.014662874
0.014645541
0.014620311
0.014587976
0.014549331
0.014504982
0.014455828
0.014402341
0.014343885
0.014294198
0.014189126
2.438441e-05
2.4428564e-05
2.4474351e-05
2.4520463e-05
2.4566659e-05
2.4613017e-05
2.4659801e-05
2.4707485e-05
2.4756791e-05
2.4808722e-05
2.4864569e-05
2.4925907e-05
2.4994554e-05
2.5072518e-05
2.5161921e-05
2.5264916e-05
2.5383603e-05
2.5519948e-05
2.567571e-05
2.5852392e-05
2.60512e-05
2.6273023e-05
2.6518417e-05
2.6787615e-05
2.7080549e-05
2.7396886e-05
2.7736071e-05
2.8097387e-05
2.8480024e-05
2.888317e-05
2.9306095e-05
2.9748245e-05
3.0209371e-05
3.068965e-05
3.1189852e-05
3.1711461e-05
3.2257277e-05
3.283178e-05
3.3441379e-05
3.4094811e-05
3.4803206e-05
3.5582604e-05
3.6454898e-05
3.7446828e-05
3.8593046e-05
3.9936912e-05
4.154448e-05
4.3505641e-05
4.5933235e-05
4.8989768e-05
5.2912701e-05
5.8032257e-05
6.4879953e-05
7.4292913e-05
8.7682351e-05
0.00010728164
0.00013712674
0.00018398089
0.00026074545
0.00038528565
0.00059137186
0.00092199863
0.0014009452
0.0020271264
0.002776095
0.0036048573
0.0044617632
0.0053014535
0.006095597
0.0068323008
0.0075087707
0.0081253059
0.0086834385
0.0091859104
0.0096363135
0.010038471
0.01039615
0.010713005
0.010992524
0.011237977
0.011452399
0.011638597
0.01179915
0.011936425
0.012052585
0.012149609
0.012229304
0.012293324
0.012343175
0.012380227
0.012405713
0.012420749
0.012426339
0.012423446
0.012412876
0.012395613
0.012372345
0.012342846
0.012317794
0.012252875
2.4064939e-05
2.4108442e-05
2.4153566e-05
2.4199008e-05
2.4244477e-05
2.4289926e-05
2.4335384e-05
2.4380936e-05
2.4426739e-05
2.4473043e-05
2.4520222e-05
2.456879e-05
2.4619425e-05
2.4672973e-05
2.473044e-05
2.479298e-05
2.4861859e-05
2.4938418e-05
2.5024026e-05
2.512003e-05
2.5227713e-05
2.5348246e-05
2.5482651e-05
2.5631771e-05
2.5796259e-05
2.5976571e-05
2.6172966e-05
2.6385528e-05
2.6614186e-05
2.6858753e-05
2.7118965e-05
2.7394525e-05
2.7685153e-05
2.7990643e-05
2.8310934e-05
2.8646167e-05
2.8996848e-05
2.9364028e-05
2.9749496e-05
3.0155984e-05
3.0587254e-05
3.1048569e-05
3.1547291e-05
3.209301e-05
3.2698086e-05
3.3377736e-05
3.4152374e-05
3.5050045e-05
3.6105501e-05
3.7363554e-05
3.8882967e-05
4.0758284e-05
4.3107765e-05
4.6097487e-05
4.9985172e-05
5.5128245e-05
6.2119439e-05
7.1880423e-05
8.6026293e-05
0.00010712049
0.00013979943
0.00019265377
0.00027855268
0.00041991103
0.00064986188
0.0009944759
0.0014616063
0.0020398884
0.0027006426
0.0034038075
0.0041103526
0.0047927642
0.0054365631
0.0060356079
0.0065875322
0.0070919532
0.0075500258
0.0079639063
0.0083362029
0.0086697022
0.0089672449
0.0092316284
0.0094655403
0.0096715264
0.0098519749
0.01000911
0.010144997
0.010261545
0.010360515
0.010443521
0.010512032
0.010567386
0.010610796
0.010643404
0.010666214
0.010680324
0.010686598
0.010685308
0.010684063
0.010657643
2.3728107e-05
2.3770951e-05
2.38154e-05
2.3860169e-05
2.3904965e-05
2.3949725e-05
2.3994439e-05
2.4039114e-05
2.4083775e-05
2.4128464e-05
2.4173257e-05
2.4218274e-05
2.4263697e-05
2.4309784e-05
2.4356887e-05
2.4405455e-05
2.445604e-05
2.4509299e-05
2.4565973e-05
2.4626882e-05
2.4692893e-05
2.4764901e-05
2.4843791e-05
2.4930414e-05
2.5025564e-05
2.512995e-05
2.5244185e-05
2.5368772e-05
2.5504102e-05
2.5650461e-05
2.5808034e-05
2.5976925e-05
2.6157167e-05
2.6348749e-05
2.6551642e-05
2.6765828e-05
2.6991355e-05
2.7228411e-05
2.7477418e-05
2.7739142e-05
2.8014782e-05
2.83061e-05
2.8615649e-05
2.8946947e-05
2.930471e-05
2.969497e-05
3.0125456e-05
3.0606508e-05
3.1151295e-05
3.1776479e-05
3.2502525e-05
3.3358477e-05
3.4382042e-05
3.5621357e-05
3.7140497e-05
3.9042122e-05
4.1463445e-05
4.4596901e-05
4.8744263e-05
5.4342916e-05
6.2102856e-05
7.3262626e-05
8.979778e-05
0.0001151541
0.0001557149
0.00022151998
0.0003293343
0.00050593715
0.00077324655
0.0011419827
0.0016073597
0.0021490088
0.0027351791
0.0033334148
0.0039195271
0.0044793367
0.0050055119
0.005494367
0.0059444524
0.006355939
0.0067300198
0.0070684432
0.0073732611
0.0076466735
0.0078909154
0.0081081873
0.0083006152
0.0084702264
0.0086189345
0.0087485281
0.0088606638
0.0089568683
0.0090385427
0.0091069983
0.0091634244
0.0092090405
0.0092448586
0.0092717134
0.0092940923
0.0093056185
2.3377313e-05
2.3419503e-05
2.3463276e-05
2.3507371e-05
2.3551495e-05
2.3595585e-05
2.3639625e-05
2.3683611e-05
2.3727542e-05
2.3771417e-05
2.3815237e-05
2.3859011e-05
2.3902763e-05
2.3946538e-05
2.3990413e-05
2.4034507e-05
2.4078993e-05
2.41241e-05
2.4170124e-05
2.4217427e-05
2.4266436e-05
2.4317639e-05
2.4371567e-05
2.442879e-05
2.4489897e-05
2.455548e-05
2.4626119e-05
2.4702369e-05
2.4784741e-05
2.4873701e-05
2.4969656e-05
2.5072951e-05
2.5183873e-05
2.5302646e-05
2.5429436e-05
2.5564365e-05
2.5707528e-05
2.5859019e-05
2.6018972e-05
2.6187613e-05
2.6365313e-05
2.655265e-05
2.6750496e-05
2.6960117e-05
2.7183296e-05
2.7422437e-05
2.768068e-05
2.7962185e-05
2.8272354e-05
2.8618125e-05
2.9008056e-05
2.9453293e-05
2.9968344e-05
3.0571624e-05
3.1285905e-05
3.2143581e-05
3.3187953e-05
3.4476081e-05
3.6083912e-05
3.8136216e-05
4.0798158e-05
4.4324437e-05
4.9100194e-05
5.5713938e-05
6.5191525e-05
7.9208112e-05
0.00010060938
0.00013477185
0.00019000466
0.00028050408
0.00042827799
0.00065124085
0.00095961663
0.0013510365
0.0018092386
0.0023079694
0.0028205005
0.0033266208
0.0038137668
0.0042747194
0.0047054618
0.0051041376
0.0054704055
0.0058048798
0.0061087507
0.0063835546
0.0066310185
0.0068529519
0.007051177
0.0072274795
0.0073835737
0.007521082
0.0076415274
0.0077463442
0.0078368696
0.0079144345
0.0079801556
0.0080354739
0.008081667
0.0081312752
2.3015744e-05
2.305729e-05
2.3100397e-05
2.3143824e-05
2.3187284e-05
2.323071e-05
2.3274089e-05
2.3317413e-05
2.3360677e-05
2.3403874e-05
2.3446991e-05
2.3490012e-05
2.3532922e-05
2.3575706e-05
2.3618354e-05
2.366087e-05
2.3703273e-05
2.3745606e-05
2.3787942e-05
2.3830386e-05
2.3873089e-05
2.391624e-05
2.3960074e-05
2.4004866e-05
2.4050934e-05
2.4098627e-05
2.4148325e-05
2.4200426e-05
2.4255337e-05
2.4313469e-05
2.4375223e-05
2.4440982e-05
2.4511105e-05
2.4585915e-05
2.4665698e-05
2.4750695e-05
2.4841111e-05
2.4937116e-05
2.5038863e-05
2.5146504e-05
2.5260217e-05
2.5380235e-05
2.5506884e-05
2.5640629e-05
2.578214e-05
2.5932357e-05
2.6092554e-05
2.6264441e-05
2.6450288e-05
2.6653071e-05
2.6876568e-05
2.7125592e-05
2.7406339e-05
2.7726727e-05
2.8096513e-05
2.8528423e-05
2.9039203e-05
2.9650608e-05
3.038974e-05
3.1296052e-05
3.242199e-05
3.3839666e-05
3.56508e-05
3.8015889e-05
4.1164553e-05
4.5450198e-05
5.1408234e-05
5.9977121e-05
7.2681434e-05
9.2136248e-05
0.00012325269
0.00017335914
0.00025592935
0.00038860599
0.00058689484
0.00085878933
0.0012017886
0.0016009625
0.0020338978
0.0024787372
0.0029191112
0.0033444716
0.0037483704
0.004127066
0.0044787272
0.0048028313
0.0050996999
0.0053701967
0.0056155249
0.0058370813
0.0060363555
0.0062148585
0.0063740833
0.0065154783
0.0066404439
0.0067503718
0.0068464194
0.0069306505
0.0070009993
0.0070891964
2.2646356e-05
2.2687276e-05
2.2729732e-05
2.2772507e-05
2.2815316e-05
2.2858092e-05
2.2900821e-05
2.2943495e-05
2.2986111e-05
2.3028657e-05
2.3071121e-05
2.3113484e-05
2.3155723e-05
2.319781e-05
2.3239716e-05
2.3281411e-05
2.3322869e-05
2.3364067e-05
2.3404993e-05
2.3445646e-05
2.3486046e-05
2.352623e-05
2.356626e-05
2.3606224e-05
2.3646242e-05
2.368646e-05
2.372706e-05
2.376825e-05
2.3810267e-05
2.385337e-05
2.3897838e-05
2.3943959e-05
2.3992026e-05
2.4042329e-05
2.4095144e-05
2.4150731e-05
2.4209327e-05
2.4271147e-05
2.4336384e-05
2.4405212e-05
2.4477796e-05
2.4554303e-05
2.4634911e-05
2.4719841e-05
2.4809373e-05
2.4903892e-05
2.5003919e-05
2.5110162e-05
2.5223572e-05
2.5345423e-05
2.5477382e-05
2.5621598e-05
2.5780841e-05
2.5958677e-05
2.6159579e-05
2.6389215e-05
2.665487e-05
2.6965964e-05
2.7334161e-05
2.7774988e-05
2.8308827e-05
2.896252e-05
2.9771338e-05
3.0786103e-05
3.2076878e-05
3.3740485e-05
3.5925565e-05
3.8860223e-05
4.2886748e-05
4.8534309e-05
5.6727955e-05
6.8935938e-05
8.7838782e-05
0.00011810171
0.00016688581
0.00024751441
0.00037431514
0.00056007165
0.00081054094
0.0011212548
0.0014773889
0.0018595337
0.0022500373
0.0026359643
0.0030087785
0.0033630884
0.0036957285
0.0040051213
0.0042907703
0.0045528962
0.0047921896
0.0050096301
0.0052063718
0.005383651
0.005542761
0.0056850368
0.0058115671
0.0059250109
0.0060197908
0.0061471528
2.2271862e-05
2.2312178e-05
2.2354006e-05
2.2396149e-05
2.2438326e-05
2.2480471e-05
2.2522568e-05
2.2564611e-05
2.2606594e-05
2.2648508e-05
2.269034e-05
2.2732071e-05
2.2773678e-05
2.2815134e-05
2.2856406e-05
2.2897458e-05
2.2938254e-05
2.2978753e-05
2.301892e-05
2.3058718e-05
2.3098117e-05
2.3137095e-05
2.3175638e-05
2.3213744e-05
2.3251425e-05
2.3288712e-05
2.3325657e-05
2.3362332e-05
2.3398834e-05
2.3435283e-05
2.347182e-05
2.350861e-05
2.3545828e-05
2.3583666e-05
2.3622317e-05
2.366198e-05
2.3702846e-05
2.3745102e-05
2.3788928e-05
2.3834491e-05
2.3881951e-05
2.3931457e-05
2.3983157e-05
2.4037196e-05
2.4093737e-05
2.4152969e-05
2.4215129e-05
2.4280525e-05
2.4349562e-05
2.4422785e-05
2.450092e-05
2.4584919e-05
2.4676026e-05
2.4775859e-05
2.4886492e-05
2.5010564e-05
2.5151435e-05
2.5313439e-05
2.5502004e-05
2.5724084e-05
2.5988645e-05
2.6307278e-05
2.6694811e-05
2.7171098e-05
2.7762839e-05
2.8505185e-05
2.9447372e-05
3.065995e-05
3.2242419e-05
3.4339002e-05
3.7189715e-05
4.1140466e-05
4.6758865e-05
5.4997518e-05
6.7391336e-05
8.6878686e-05
0.00011806815
0.00016911671
0.00025182727
0.00037910572
0.0005605213
0.00079883237
0.0010868508
0.0014098453
0.0017512107
0.0020969669
0.0024370817
0.0027648444
0.0030759877
0.0033680275
0.00363974
0.0038907565
0.0041212936
0.0043319373
0.0045235475
0.0046971679
0.0048536255
0.0049960757
0.0051152276
0.0052820522
2.1894726e-05
2.1934463e-05
2.1975689e-05
2.2017225e-05
2.2058794e-05
2.2100331e-05
2.214182e-05
2.2183253e-05
2.2224626e-05
2.2265928e-05
2.2307148e-05
2.2348267e-05
2.2389266e-05
2.2430115e-05
2.2470786e-05
2.2511242e-05
2.2551447e-05
2.2591358e-05
2.2630934e-05
2.267013e-05
2.2708904e-05
2.2747214e-05
2.278502e-05
2.2822284e-05
2.2858977e-05
2.2895074e-05
2.2930563e-05
2.2965444e-05
2.299973e-05
2.3033451e-05
2.3066653e-05
2.3099398e-05
2.3131763e-05
2.3163839e-05
2.3195727e-05
2.3227536e-05
2.325938e-05
2.3291378e-05
2.3323653e-05
2.3356324e-05
2.3389515e-05
2.3423341e-05
2.3457918e-05
2.3493356e-05
2.3529767e-05
2.3567267e-05
2.3605985e-05
2.3646072e-05
2.3687713e-05
2.3731149e-05
2.3776692e-05
2.3824759e-05
2.3875898e-05
2.3930831e-05
2.3990504e-05
2.4056138e-05
2.4129303e-05
2.4212027e-05
2.4306892e-05
2.4417187e-05
2.4547115e-05
2.4702067e-05
2.4888902e-05
2.5116479e-05
2.5396428e-05
2.5743794e-05
2.6178482e-05
2.6727554e-05
2.7427834e-05
2.8328982e-05
2.9505623e-05
3.106235e-05
3.3152331e-05
3.6034534e-05
4.0079408e-05
4.5933444e-05
5.4614656e-05
6.7958352e-05
8.9113124e-05
0.00012319944
0.00017911756
0.00026788181
0.00040014835
0.00058253911
0.00081379686
0.001084302
0.0013799797
0.0016870958
0.0019948552
0.0022956275
0.0025843079
0.0028576815
0.0031139166
0.0033521317
0.0035721477
0.0037742771
0.0039587411
0.0041289739
0.0042717227
0.0044775731
2.1517157e-05
2.1556344e-05
2.1596996e-05
2.1637953e-05
2.1678942e-05
2.1719899e-05
2.1760805e-05
2.1801655e-05
2.1842442e-05
2.1883158e-05
2.192379e-05
2.1964322e-05
2.2004734e-05
2.2045001e-05
2.2085093e-05
2.2124977e-05
2.2164618e-05
2.2203977e-05
2.2243011e-05
2.2281676e-05
2.2319928e-05
2.2357721e-05
2.2395009e-05
2.2431744e-05
2.2467882e-05
2.250338e-05
2.2538201e-05
2.2572311e-05
2.2605687e-05
2.2638312e-05
2.2670178e-05
2.2701289e-05
2.2731657e-05
2.2761304e-05
2.2790258e-05
2.2818556e-05
2.2846241e-05
2.2873361e-05
2.2899971e-05
2.292613e-05
2.2951905e-05
2.297736e-05
2.3002566e-05
2.3027588e-05
2.3052498e-05
2.3077363e-05
2.3102258e-05
2.312726e-05
2.315246e-05
2.3177963e-05
2.3203908e-05
2.3230469e-05
2.3257879e-05
2.3286449e-05
2.3316592e-05
2.3348852e-05
2.3383945e-05
2.3422803e-05
2.3466638e-05
2.3517009e-05
2.3575921e-05
2.3645946e-05
2.3730377e-05
2.3833422e-05
2.3960525e-05
2.4118692e-05
2.431697e-05
2.4567259e-05
2.488534e-05
2.5291831e-05
2.5815361e-05
2.649525e-05
2.7384707e-05
2.8565449e-05
3.0151036e-05
3.231634e-05
3.5345053e-05
3.9681319e-05
4.6061608e-05
5.568504e-05
7.0758213e-05
9.484146e-05
0.00013425009
0.00019793159
0.00029600221
0.00043668467
0.00062262221
0.00084862563
0.0011036807
0.0013752015
0.0016523164
0.0019268882
0.0021932475
0.0024476311
0.0026877483
0.0029123891
0.0031205622
0.0033155608
0.0034798447
0.003722893
2.1141115e-05
2.1179782e-05
2.121989e-05
2.1260299e-05
2.1300738e-05
2.1341143e-05
2.1381497e-05
2.1421792e-05
2.1462023e-05
2.150218e-05
2.1542252e-05
2.1582223e-05
2.1622074e-05
2.1661783e-05
2.1701321e-05
2.1740657e-05
2.1779759e-05
2.1818588e-05
2.1857105e-05
2.1895268e-05
2.1933033e-05
2.1970356e-05
2.200719e-05
2.2043488e-05
2.2079201e-05
2.2114283e-05
2.2148688e-05
2.2182374e-05
2.22153e-05
2.2247431e-05
2.2278737e-05
2.2309192e-05
2.2338776e-05
2.2367471e-05
2.2395265e-05
2.2422147e-05
2.244811e-05
2.2473152e-05
2.2497276e-05
2.2520487e-05
2.2542798e-05
2.2564224e-05
2.2584784e-05
2.26045e-05
2.2623396e-05
2.2641498e-05
2.2658833e-05
2.2675433e-05
2.2691332e-05
2.2706568e-05
2.2721193e-05
2.2735271e-05
2.274889e-05
2.2762167e-05
2.2775266e-05
2.2788409e-05
2.2801899e-05
2.281614e-05
2.2831672e-05
2.2849208e-05
2.2869679e-05
2.2894298e-05
2.2924637e-05
2.296272e-05
2.3011161e-05
2.3073332e-05
2.3153568e-05
2.3257485e-05
2.3392425e-05
2.3567876e-05
2.3796447e-05
2.4095065e-05
2.4485934e-05
2.5000496e-05
2.5681722e-05
2.6589975e-05
2.7815974e-05
2.94931e-05
3.1826552e-05
3.5148328e-05
4.000177e-05
4.7264093e-05
5.8493307e-05
7.6321958e-05
0.00010530336
0.00015257469
0.00022704486
0.00033722485
0.00048798288
0.00067747924
0.00089762521
0.0011374263
0.0013864495
0.0016364161
0.0018813537
0.0021172424
0.0023408564
0.0025546012
0.0027361923
0.0030122348
2.0768314e-05
2.0806491e-05
2.0846088e-05
2.0885981e-05
2.0925901e-05
2.0965786e-05
2.1005618e-05
2.104539e-05
2.1085094e-05
2.1124723e-05
2.1164264e-05
2.1203704e-05
2.1243023e-05
2.1282201e-05
2.1321212e-05
2.1360027e-05
2.1398613e-05
2.1436937e-05
2.147496e-05
2.1512643e-05
2.1549945e-05
2.1586822e-05
2.162323e-05
2.1659123e-05
2.1694454e-05
2.1729176e-05
2.1763243e-05
2.1796611e-05
2.1829235e-05
2.1861074e-05
2.1892089e-05
2.1922243e-05
2.1951502e-05
2.1979831e-05
2.2007197e-05
2.2033566e-05
2.2058904e-05
2.2083179e-05
2.2106361e-05
2.212842e-05
2.2149331e-05
2.2169072e-05
2.218762e-05
2.220496e-05
2.2221074e-05
2.223595e-05
2.2249577e-05
2.2261945e-05
2.2273047e-05
2.228288e-05
2.2291441e-05
2.2298736e-05
2.2304777e-05
2.2309589e-05
2.2313214e-05
2.2315721e-05
2.231721e-05
2.2317832e-05
2.2317797e-05
2.2317398e-05
2.2317037e-05
2.2317252e-05
2.2318758e-05
2.23225e-05
2.2329713e-05
2.2342008e-05
2.2361477e-05
2.2390831e-05
2.24336e-05
2.2494354e-05
2.2579054e-05
2.2695576e-05
2.285417e-05
2.3068645e-05
2.3357564e-05
2.3745894e-05
2.4268767e-05
2.4975624e-05
2.5937238e-05
2.7259686e-05
2.910371e-05
3.1718548e-05
3.5524493e-05
4.1198407e-05
4.9898123e-05
6.362773e-05
8.5821774e-05
0.00012217648
0.00018031472
0.00026837535
0.00039229016
0.00055251273
0.00074340781
0.00095564789
0.0011795385
0.0014070816
0.001631468
0.0018530629
0.0020442005
0.0023451395
2.0400235e-05
2.0437954e-05
2.0477073e-05
2.0516481e-05
2.0555915e-05
2.0595313e-05
2.0634655e-05
2.0673934e-05
2.0713144e-05
2.0752275e-05
2.0791317e-05
2.0830256e-05
2.0869074e-05
2.0907752e-05
2.0946264e-05
2.0984585e-05
2.1022684e-05
2.1060528e-05
2.1098081e-05
2.1135308e-05
2.1172168e-05
2.120862e-05
2.1244622e-05
2.1280131e-05
2.1315101e-05
2.1349487e-05
2.1383245e-05
2.1416329e-05
2.1448697e-05
2.1480307e-05
2.1511116e-05
2.1541086e-05
2.1570176e-05
2.1598346e-05
2.1625555e-05
2.1651758e-05
2.1676911e-05
2.1700968e-05
2.172388e-05
2.1745601e-05
2.1766083e-05
2.1785281e-05
2.1803148e-05
2.181964e-05
2.1834711e-05
2.1848321e-05
2.1860427e-05
2.187099e-05
2.1879971e-05
2.1887331e-05
2.1893036e-05
2.189705e-05
2.1899344e-05
2.1899889e-05
2.1898666e-05
2.1895664e-05
2.1890886e-05
2.1884355e-05
2.1876122e-05
2.1866273e-05
2.1854946e-05
2.1842342e-05
2.182875e-05
2.181457e-05
2.1800348e-05
2.1786816e-05
2.1774946e-05
2.1766022e-05
2.1761729e-05
2.1764275e-05
2.1776537e-05
2.1802303e-05
2.1846508e-05
2.1915665e-05
2.2018417e-05
2.2166206e-05
2.2374486e-05
2.2664354e-05
2.3064777e-05
2.3616698e-05
2.4378749e-05
2.5435817e-05
2.6919447e-05
2.9028261e-05
3.2091209e-05
3.6651303e-05
4.3619249e-05
5.4568813e-05
7.2203269e-05
0.00010114032
0.00014787358
0.00021991221
0.00032353758
0.00046064438
0.0006274549
0.00081633839
0.0010175418
0.0012286163
0.001415998
0.0017275327
2.0038139e-05
2.0075431e-05
2.0114103e-05
2.015306e-05
2.0192042e-05
2.0230984e-05
2.0269868e-05
2.0308688e-05
2.0347435e-05
2.0386101e-05
2.0424676e-05
2.0463145e-05
2.0501494e-05
2.0539701e-05
2.0577746e-05
2.0615601e-05
2.0653241e-05
2.0690632e-05
2.0727743e-05
2.0764537e-05
2.0800978e-05
2.0837028e-05
2.0872645e-05
2.0907788e-05
2.0942415e-05
2.0976482e-05
2.1009946e-05
2.1042765e-05
2.1074895e-05
2.1106296e-05
2.1136927e-05
2.1166748e-05
2.1195717e-05
2.1223793e-05
2.1250932e-05
2.1277087e-05
2.1302211e-05
2.1326251e-05
2.1349153e-05
2.1370863e-05
2.1391324e-05
2.1410478e-05
2.1428266e-05
2.1444628e-05
2.1459504e-05
2.1472833e-05
2.1484554e-05
2.1494606e-05
2.1502929e-05
2.1509462e-05
2.1514145e-05
2.1516917e-05
2.1517719e-05
2.1516492e-05
2.1513181e-05
2.1507732e-05
2.1500095e-05
2.1490231e-05
2.1478109e-05
2.1463713e-05
2.1447049e-05
2.1428155e-05
2.1407105e-05
2.1384026e-05
2.1359118e-05
2.1332669e-05
2.1305088e-05
2.1276937e-05
2.124898e-05
2.1222242e-05
2.1198084e-05
2.1178313e-05
2.1165309e-05
2.1162212e-05
2.1173174e-05
2.1203675e-05
2.1260996e-05
2.1354904e-05
2.1498518e-05
2.1709748e-05
2.2013357e-05
2.2443646e-05
2.3050336e-05
2.3904758e-05
2.5115186e-05
2.6849853e-05
2.9369549e-05
3.3128375e-05
3.8865815e-05
4.7875039e-05
6.2362696e-05
8.615508e-05
0.00012483314
0.00018524322
0.00027357853
0.00039278229
0.00053929537
0.00071249101
0.00087518247
0.0011736679
1.9683082e-05
1.9719978e-05
1.9758237e-05
1.9796775e-05
1.9835335e-05
1.9873854e-05
1.9912313e-05
1.9950705e-05
1.9989022e-05
2.0027255e-05
2.0065394e-05
2.0103426e-05
2.0141336e-05
2.0179104e-05
2.0216711e-05
2.0254132e-05
2.0291341e-05
2.0328308e-05
2.0365002e-05
2.0401391e-05
2.0437438e-05
2.0473107e-05
2.0508361e-05
2.0543158e-05
2.057746e-05
2.0611224e-05