/*--------------------------------*- C++ -*----------------------------------*\
  =========                 |
  \\      /  F ield         | OpenFOAM: The Open Source CFD Toolbox
   \\    /   O peration     | Website:  https://openfoam.org
    \\  /    A nd           | Version:  12
     \\/     M anipulation  |
\*---------------------------------------------------------------------------*/
FoamFile
{
    format      ascii;
    class       volScalarField;
    location    "1300";
    object      p;
}
// * * * * * * * * * * * * * * * * * * * * * * * * * * * * * * * * * * * * * //

dimensions      [0 2 -2 0 0 0 0];

internalField   nonuniform List<scalar> 
13056
(
0.0040829016
0.0041026954
0.0041459223
0.0042005582
0.0042649516
0.0043390391
0.0044221595
0.0045135931
0.0046130023
0.0047204346
0.004836237
0.004961059
0.005095933
0.0052424199
0.0054028082
0.0055805332
0.0057805911
0.0060113651
0.0062844743
0.0066276487
0.0070658038
0.0077621038
0.0086459815
0.012588901
0.009121178
0.0040396337
0.0039421398
0.0043978823
0.0045193269
0.0044664574
0.004392367
0.0043240319
0.0042556555
0.0041865798
0.0041187666
0.0040537222
0.0039920898
0.0039335816
0.0038779216
0.0038249032
0.0037743715
0.0037261699
0.0036799728
0.0036357863
0.0035932215
0.0035523025
0.0035129124
0.0034746418
0.0034376997
0.0034019419
0.0033670086
0.0033330442
0.0033000262
0.0032677124
0.0032359839
0.0032050335
0.0031747372
0.0031448225
0.0031153446
0.003086445
0.0030579913
0.003029758
0.0030017818
0.0029742329
0.0029470111
0.0029198656
0.0028928591
0.0028660735
0.0028395274
0.0028130343
0.0027865405
0.0027600646
0.002733749
0.0027074943
0.0026810932
0.0026546075
0.0026280781
0.0026015697
0.0025749332
0.002548063
0.0025209746
0.0024937775
0.0024664567
0.0024388064
0.0024108214
0.002382486
0.0023539385
0.002325087
0.0022957071
0.0022658431
0.0022355094
0.0022047735
0.0021734749
0.0021414654
0.0021087241
0.0020753954
0.0020413856
0.0020064103
0.0019704676
0.0019335889
0.0018957685
0.001856765
0.001816402
0.0017747097
0.0017316776
0.0016870358
0.0016405125
0.0015921646
0.0015418697
0.0014892239
0.0014340056
0.0013762073
0.001315646
0.0012528374
0.0011898877
0.0011279524
0.0010668387
0.0010064847
0.00094704072
0.00088840156
0.00083036367
0.00077297134
0.0007164466
0.00066077804
0.00060579936
0.00055166026
0.00049849239
0.00044661315
0.00039632672
0.00034762569
0.00030223988
0.00025856026
0.00022878554
0.00019037401
0.0003123431
-0.00024362995
0.0040829016
0.0041026954
0.0041459223
0.0042005582
0.0042649516
0.0043390391
0.0044221595
0.0045135931
0.0046130023
0.0047204346
0.0048362371
0.004961059
0.005095933
0.00524242
0.0054028082
0.0055805332
0.0057805911
0.0060113652
0.0062844743
0.0066276487
0.0070658037
0.0077621037
0.0086459819
0.012571719
0.0091219831
0.0040402965
0.0039422377
0.0043979192
0.0045193531
0.0044664796
0.0043923864
0.0043240491
0.0042556709
0.0041865938
0.0041187793
0.0040537338
0.0039921005
0.0039335915
0.0038779307
0.0038249117
0.0037743794
0.0037261774
0.0036799798
0.0036357929
0.0035932277
0.0035523083
0.0035129179
0.003474647
0.0034377047
0.0034019466
0.0033670131
0.0033330484
0.0033000303
0.0032677163
0.0032359876
0.003205037
0.0031747405
0.0031448257
0.0031153477
0.0030864479
0.0030579941
0.0030297607
0.0030017844
0.0029742354
0.0029470135
0.0029198679
0.0028928613
0.0028660757
0.0028395295
0.0028130362
0.0027865425
0.0027600664
0.0027337508
0.002707496
0.0026810948
0.0026546091
0.0026280797
0.0026015712
0.0025749346
0.0025480644
0.0025209759
0.0024937788
0.002466458
0.0024388075
0.0024108225
0.0023824871
0.0023539395
0.002325088
0.0022957081
0.002265844
0.0022355103
0.0022047744
0.0021734758
0.0021414662
0.0021087249
0.0020753961
0.0020413864
0.002006411
0.0019704683
0.0019335896
0.0018957692
0.0018567656
0.0018164026
0.0017747103
0.0017316782
0.0016870363
0.001640513
0.0015921651
0.0015418701
0.0014892243
0.001434006
0.0013762077
0.0013156463
0.0012528378
0.0011898881
0.0011279527
0.001066839
0.001006485
0.000947041
0.00088840183
0.00083036393
0.00077297158
0.00071644683
0.00066077827
0.00060579958
0.00055166047
0.00049849259
0.00044661335
0.00039632691
0.00034762588
0.00030224006
0.00025856044
0.00022878572
0.00019037419
0.00031234331
-0.00024362981
0.0040829016
0.0041026954
0.0041459223
0.0042005582
0.0042649516
0.0043390391
0.0044221595
0.0045135931
0.0046130023
0.0047204346
0.0048362371
0.0049610591
0.005095933
0.00524242
0.0054028082
0.0055805332
0.0057805911
0.0060113652
0.0062844743
0.0066276487
0.0070658037
0.0077621033
0.008645982
0.012555392
0.009122858
0.0040410621
0.0039423541
0.0043979635
0.0045193844
0.0044665061
0.0043924096
0.0043240697
0.0042556893
0.0041866104
0.0041187944
0.0040537477
0.0039921133
0.0039336033
0.0038779417
0.0038249219
0.0037743889
0.0037261863
0.0036799882
0.0036358007
0.003593235
0.0035523152
0.0035129245
0.0034746533
0.0034377106
0.0034019522
0.0033670184
0.0033330535
0.0033000351
0.0032677209
0.003235992
0.0032050412
0.0031747445
0.0031448296
0.0031153513
0.0030864514
0.0030579975
0.0030297639
0.0030017875
0.0029742384
0.0029470164
0.0029198707
0.0028928639
0.0028660782
0.002839532
0.0028130386
0.0027865447
0.0027600686
0.0027337529
0.002707498
0.0026810968
0.002654611
0.0026280815
0.002601573
0.0025749363
0.002548066
0.0025209775
0.0024937803
0.0024664594
0.002438809
0.0024108239
0.0023824884
0.0023539408
0.0023250893
0.0022957093
0.0022658452
0.0022355114
0.0022047755
0.0021734768
0.0021414672
0.0021087258
0.002075397
0.0020413872
0.0020064118
0.0019704691
0.0019335903
0.0018957699
0.0018567663
0.0018164033
0.0017747109
0.0017316788
0.0016870369
0.0016405136
0.0015921656
0.0015418707
0.0014892248
0.0014340065
0.0013762082
0.0013156468
0.0012528382
0.0011898885
0.0011279531
0.0010668394
0.0010064854
0.00094704133
0.00088840214
0.00083036423
0.00077297188
0.00071644711
0.00066077854
0.00060579985
0.00055166073
0.00049849284
0.00044661358
0.00039632714
0.0003476261
0.00030224028
0.00025856065
0.00022878593
0.00019037441
0.00031234356
-0.00024362964
0.0040829016
0.0041026954
0.0041459223
0.0042005582
0.0042649516
0.0043390391
0.0044221595
0.0045135931
0.0046130023
0.0047204346
0.0048362371
0.0049610591
0.0050959331
0.00524242
0.0054028082
0.0055805332
0.0057805911
0.0060113652
0.0062844743
0.0066276486
0.0070658035
0.0077621027
0.0086459823
0.012540834
0.0091238386
0.0040417677
0.0039424638
0.004398007
0.0045194151
0.0044665321
0.0043924324
0.0043240898
0.0042557073
0.0041866267
0.0041188093
0.0040537613
0.0039921258
0.0039336149
0.0038779524
0.0038249319
0.0037743983
0.003726195
0.0036799963
0.0036358084
0.0035932423
0.0035523221
0.0035129309
0.0034746594
0.0034377163
0.0034019577
0.0033670236
0.0033330585
0.0033000398
0.0032677254
0.0032359963
0.0032050453
0.0031747485
0.0031448333
0.0031153549
0.0030864549
0.0030580008
0.0030297671
0.0030017905
0.0029742414
0.0029470192
0.0029198734
0.0028928665
0.0028660807
0.0028395344
0.0028130409
0.002786547
0.0027600708
0.002733755
0.0027075
0.0026810987
0.0026546129
0.0026280833
0.0026015747
0.002574938
0.0025480676
0.0025209791
0.0024937818
0.0024664609
0.0024388104
0.0024108252
0.0023824897
0.0023539421
0.0023250905
0.0022957104
0.0022658463
0.0022355125
0.0022047765
0.0021734778
0.0021414682
0.0021087268
0.0020753979
0.0020413881
0.0020064126
0.0019704699
0.0019335911
0.0018957706
0.001856767
0.001816404
0.0017747116
0.0017316794
0.0016870375
0.0016405141
0.0015921662
0.0015418712
0.0014892253
0.001434007
0.0013762086
0.0013156472
0.0012528386
0.0011898888
0.0011279535
0.0010668397
0.0010064857
0.00094704165
0.00088840245
0.00083036453
0.00077297216
0.00071644739
0.00066077881
0.0006058001
0.00055166098
0.00049849308
0.00044661382
0.00039632737
0.00034762632
0.0003022405
0.00025856086
0.00022878614
0.00019037461
0.00031234381
-0.00024362948
0.0040829016
0.0041026954
0.0041459223
0.0042005582
0.0042649516
0.0043390391
0.0044221595
0.0045135931
0.0046130023
0.0047204347
0.0048362371
0.0049610591
0.0050959331
0.00524242
0.0054028082
0.0055805332
0.0057805911
0.0060113651
0.0062844743
0.0066276485
0.0070658034
0.0077621018
0.0086459828
0.012526463
0.0091249786
0.0040424121
0.0039425754
0.004398052
0.0045194468
0.0044665589
0.0043924558
0.0043241106
0.0042557259
0.0041866435
0.0041188246
0.0040537753
0.0039921387
0.0039336268
0.0038779634
0.0038249421
0.0037744078
0.0037262039
0.0036800047
0.0036358163
0.0035932497
0.0035523291
0.0035129375
0.0034746656
0.0034377223
0.0034019633
0.003367029
0.0033330636
0.0033000447
0.00326773
0.0032360007
0.0032050495
0.0031747525
0.0031448372
0.0031153586
0.0030864584
0.0030580042
0.0030297704
0.0030017937
0.0029742444
0.0029470221
0.0029198762
0.0028928692
0.0028660833
0.0028395368
0.0028130433
0.0027865493
0.002760073
0.0027337571
0.0027075021
0.0026811007
0.0026546148
0.0026280851
0.0026015765
0.0025749397
0.0025480693
0.0025209807
0.0024937833
0.0024664624
0.0024388118
0.0024108266
0.002382491
0.0023539433
0.0023250917
0.0022957116
0.0022658474
0.0022355136
0.0022047776
0.0021734788
0.0021414692
0.0021087277
0.0020753989
0.002041389
0.0020064135
0.0019704707
0.0019335919
0.0018957714
0.0018567677
0.0018164047
0.0017747123
0.00173168
0.0016870381
0.0016405147
0.0015921667
0.0015418717
0.0014892258
0.0014340075
0.0013762091
0.0013156476
0.001252839
0.0011898892
0.0011279539
0.0010668401
0.001006486
0.00094704198
0.00088840277
0.00083036483
0.00077297246
0.00071644767
0.00066077909
0.00060580037
0.00055166123
0.00049849333
0.00044661406
0.0003963276
0.00034762655
0.00030224072
0.00025856108
0.00022878636
0.00019037481
0.00031234406
-0.00024362933
0.0040829016
0.0041026954
0.0041459223
0.0042005582
0.0042649516
0.0043390391
0.0044221595
0.0045135931
0.0046130024
0.0047204347
0.0048362371
0.0049610591
0.0050959331
0.00524242
0.0054028082
0.0055805332
0.0057805911
0.0060113651
0.0062844742
0.0066276484
0.0070658032
0.0077621005
0.0086459835
0.012511699
0.009126113
0.0040429894
0.0039426957
0.0043981007
0.0045194808
0.0044665876
0.0043924809
0.0043241328
0.0042557458
0.0041866615
0.0041188409
0.0040537903
0.0039921524
0.0039336395
0.0038779752
0.0038249531
0.0037744181
0.0037262135
0.0036800137
0.0036358247
0.0035932576
0.0035523365
0.0035129446
0.0034746723
0.0034377286
0.0034019693
0.0033670347
0.003333069
0.0033000499
0.003267735
0.0032360054
0.003205054
0.0031747568
0.0031448413
0.0031153626
0.0030864622
0.0030580078
0.0030297738
0.003001797
0.0029742476
0.0029470252
0.0029198791
0.0028928721
0.0028660861
0.0028395395
0.0028130459
0.0027865517
0.0027600753
0.0027337594
0.0027075043
0.0026811028
0.0026546168
0.0026280871
0.0026015784
0.0025749415
0.002548071
0.0025209824
0.002493785
0.002466464
0.0024388133
0.0024108281
0.0023824924
0.0023539447
0.002325093
0.0022957129
0.0022658487
0.0022355148
0.0022047787
0.0021734799
0.0021414702
0.0021087287
0.0020753998
0.0020413899
0.0020064144
0.0019704715
0.0019335927
0.0018957722
0.0018567685
0.0018164054
0.001774713
0.0017316807
0.0016870388
0.0016405154
0.0015921673
0.0015418723
0.0014892264
0.001434008
0.0013762096
0.0013156481
0.0012528395
0.0011898897
0.0011279543
0.0010668405
0.0010064864
0.00094704234
0.00088840311
0.00083036516
0.00077297277
0.00071644798
0.00066077938
0.00060580065
0.0005516615
0.00049849359
0.00044661431
0.00039632785
0.00034762679
0.00030224095
0.00025856131
0.00022878659
0.00019037503
0.00031234433
-0.00024362916
0.0040829016
0.0041026954
0.0041459223
0.0042005582
0.0042649516
0.0043390391
0.0044221595
0.0045135931
0.0046130024
0.0047204347
0.0048362371
0.0049610591
0.0050959331
0.00524242
0.0054028082
0.0055805332
0.0057805911
0.0060113651
0.0062844741
0.0066276482
0.007065803
0.0077620988
0.0086459844
0.012496515
0.0091272682
0.0040435726
0.003942829
0.0043981548
0.0045195183
0.0044666192
0.0043925085
0.0043241572
0.0042557676
0.0041866812
0.0041188588
0.0040538067
0.0039921675
0.0039336534
0.0038779881
0.0038249651
0.0037744292
0.003726224
0.0036800235
0.0036358339
0.0035932663
0.0035523447
0.0035129523
0.0034746796
0.0034377355
0.0034019759
0.0033670409
0.0033330749
0.0033000555
0.0032677404
0.0032360106
0.0032050589
0.0031747615
0.0031448458
0.0031153669
0.0030864663
0.0030580118
0.0030297776
0.0030018006
0.0029742511
0.0029470286
0.0029198824
0.0028928752
0.002866089
0.0028395424
0.0028130486
0.0027865544
0.0027600779
0.0027337619
0.0027075067
0.0026811051
0.002654619
0.0026280892
0.0026015804
0.0025749435
0.0025480729
0.0025209842
0.0024937867
0.0024664657
0.002438815
0.0024108297
0.002382494
0.0023539462
0.0023250944
0.0022957143
0.00226585
0.002235516
0.00220478
0.0021734811
0.0021414714
0.0021087298
0.0020754009
0.0020413909
0.0020064154
0.0019704725
0.0019335936
0.0018957731
0.0018567693
0.0018164062
0.0017747137
0.0017316815
0.0016870395
0.001640516
0.0015921679
0.0015418729
0.001489227
0.0014340086
0.0013762101
0.0013156486
0.0012528399
0.0011898901
0.0011279547
0.0010668409
0.0010064868
0.00094704272
0.00088840348
0.00083036551
0.00077297311
0.0007164483
0.00066077969
0.00060580095
0.0005516618
0.00049849388
0.00044661459
0.00039632812
0.00034762705
0.00030224121
0.00025856155
0.00022878684
0.00019037527
0.00031234463
-0.00024362897
0.0040829016
0.0041026954
0.0041459223
0.0042005582
0.0042649516
0.0043390391
0.0044221596
0.0045135931
0.0046130024
0.0047204347
0.0048362371
0.0049610591
0.0050959331
0.00524242
0.0054028082
0.0055805332
0.0057805911
0.006011365
0.006284474
0.006627648
0.0070658026
0.0077620965
0.0086459857
0.012480959
0.0091284551
0.0040442898
0.0039429812
0.0043982167
0.0045195608
0.0044666546
0.0043925394
0.0043241846
0.004255792
0.0041867032
0.0041188788
0.004053825
0.0039921843
0.0039336689
0.0038780025
0.0038249785
0.0037744417
0.0037262356
0.0036800344
0.0036358441
0.0035932759
0.0035523538
0.0035129609
0.0034746877
0.0034377432
0.0034019832
0.0033670479
0.0033330815
0.0033000618
0.0032677463
0.0032360163
0.0032050644
0.0031747667
0.0031448508
0.0031153717
0.0030864709
0.0030580162
0.0030297818
0.0030018047
0.0029742549
0.0029470323
0.0029198859
0.0028928786
0.0028660923
0.0028395455
0.0028130517
0.0027865573
0.0027600807
0.0027337646
0.0027075093
0.0026811076
0.0026546215
0.0026280916
0.0026015827
0.0025749457
0.0025480751
0.0025209862
0.0024937887
0.0024664676
0.0024388168
0.0024108315
0.0023824957
0.0023539478
0.002325096
0.0022957158
0.0022658515
0.0022355175
0.0022047813
0.0021734824
0.0021414726
0.0021087311
0.0020754021
0.0020413921
0.0020064164
0.0019704735
0.0019335946
0.001895774
0.0018567703
0.0018164071
0.0017747146
0.0017316823
0.0016870402
0.0016405168
0.0015921687
0.0015418736
0.0014892276
0.0014340092
0.0013762107
0.0013156492
0.0012528405
0.0011898906
0.0011279552
0.0010668413
0.0010064873
0.00094704314
0.00088840388
0.0008303659
0.00077297348
0.00071644866
0.00066078004
0.00060580129
0.00055166212
0.00049849419
0.00044661489
0.00039632841
0.00034762734
0.00030224148
0.00025856183
0.00022878711
0.00019037553
0.00031234495
-0.00024362877
0.0040829016
0.0041026954
0.0041459223
0.0042005582
0.0042649516
0.0043390391
0.0044221596
0.0045135931
0.0046130024
0.0047204347
0.0048362371
0.0049610591
0.0050959331
0.00524242
0.0054028082
0.0055805332
0.0057805911
0.0060113649
0.0062844739
0.0066276476
0.0070658022
0.0077620936
0.0086459873
0.012465082
0.0091293547
0.0040452437
0.0039431631
0.0043982899
0.0045196104
0.0044666959
0.0043925753
0.0043242162
0.0042558202
0.0041867286
0.0041189019
0.004053846
0.0039922036
0.0039336867
0.003878019
0.0038249938
0.0037744559
0.0037262489
0.0036800468
0.0036358558
0.0035932869
0.0035523641
0.0035129707
0.003474697
0.003437752
0.0034019915
0.0033670557
0.003333089
0.0033000689
0.0032677531
0.0032360227
0.0032050705
0.0031747726
0.0031448564
0.003115377
0.0030864761
0.0030580211
0.0030297866
0.0030018092
0.0029742593
0.0029470365
0.00291989
0.0028928825
0.0028660961
0.0028395491
0.0028130551
0.0027865606
0.0027600839
0.0027337677
0.0027075123
0.0026811105
0.0026546242
0.0026280942
0.0026015852
0.0025749482
0.0025480774
0.0025209885
0.0024937909
0.0024664697
0.0024388189
0.0024108334
0.0023824976
0.0023539497
0.0023250978
0.0022957175
0.0022658531
0.002235519
0.0022047828
0.0021734839
0.002141474
0.0021087324
0.0020754034
0.0020413933
0.0020064176
0.0019704747
0.0019335957
0.0018957751
0.0018567713
0.0018164081
0.0017747155
0.0017316832
0.0016870411
0.0016405176
0.0015921694
0.0015418743
0.0014892283
0.0014340099
0.0013762114
0.0013156498
0.0012528411
0.0011898912
0.0011279557
0.0010668418
0.0010064877
0.00094704361
0.00088840433
0.00083036633
0.0007729739
0.00071644906
0.00066078042
0.00060580166
0.00055166248
0.00049849454
0.00044661523
0.00039632874
0.00034762766
0.00030224179
0.00025856213
0.00022878741
0.00019037582
0.00031234531
-0.00024362855
0.0040829016
0.0041026954
0.0041459223
0.0042005582
0.0042649516
0.0043390391
0.0044221596
0.0045135932
0.0046130024
0.0047204347
0.0048362371
0.0049610591
0.0050959331
0.00524242
0.0054028082
0.0055805331
0.005780591
0.0060113648
0.0062844736
0.0066276472
0.0070658016
0.0077620898
0.0086459893
0.012448964
0.0091296378
0.0040465237
0.0039433939
0.0043983809
0.0045196711
0.004466746
0.0043926187
0.0043242543
0.0042558541
0.004186759
0.0041189295
0.0040538712
0.0039922267
0.0039337079
0.0038780386
0.0038250119
0.0037744728
0.0037262646
0.0036800616
0.0036358696
0.0035932999
0.0035523763
0.0035129822
0.0034747078
0.0034377622
0.0034020012
0.0033670649
0.0033330978
0.0033000772
0.003267761
0.0032360303
0.0032050777
0.0031747795
0.003144863
0.0031153833
0.0030864821
0.0030580269
0.0030297921
0.0030018145
0.0029742644
0.0029470414
0.0029198947
0.002892887
0.0028661004
0.0028395533
0.0028130591
0.0027865645
0.0027600876
0.0027337712
0.0027075157
0.0026811138
0.0026546274
0.0026280973
0.0026015882
0.002574951
0.0025480802
0.0025209912
0.0024937935
0.0024664722
0.0024388212
0.0024108357
0.0023824998
0.0023539518
0.0023250998
0.0022957195
0.002265855
0.0022355209
0.0022047846
0.0021734856
0.0021414757
0.002108734
0.0020754049
0.0020413948
0.002006419
0.001970476
0.001933597
0.0018957763
0.0018567725
0.0018164092
0.0017747166
0.0017316842
0.0016870421
0.0016405185
0.0015921703
0.0015418752
0.0014892291
0.0014340106
0.0013762121
0.0013156505
0.0012528417
0.0011898918
0.0011279563
0.0010668424
0.0010064883
0.00094704414
0.00088840484
0.00083036682
0.00077297437
0.00071644952
0.00066078086
0.00060580208
0.00055166289
0.00049849493
0.00044661561
0.00039632911
0.00034762802
0.00030224215
0.00025856247
0.00022878775
0.00019037614
0.00031234571
-0.00024362829
0.0040829016
0.0041026954
0.0041459223
0.0042005583
0.0042649516
0.0043390391
0.0044221596
0.0045135932
0.0046130024
0.0047204347
0.0048362371
0.0049610591
0.0050959331
0.00524242
0.0054028082
0.0055805331
0.0057805909
0.0060113647
0.0062844734
0.0066276466
0.0070658008
0.0077620849
0.0086459919
0.012432713
0.0091296109
0.0040482378
0.0039437051
0.0043985011
0.0045197496
0.00446681
0.0043926739
0.0043243026
0.0042558969
0.0041867973
0.004118964
0.0040539026
0.0039922554
0.0039337343
0.0038780629
0.0038250344
0.0037744937
0.0037262841
0.0036800797
0.0036358866
0.0035933158
0.0035523913
0.0035129963
0.0034747211
0.0034377748
0.0034020131
0.0033670762
0.0033331085
0.0033000874
0.0032677707
0.0032360395
0.0032050865
0.0031747878
0.003144871
0.003115391
0.0030864894
0.0030580339
0.0030297988
0.0030018209
0.0029742705
0.0029470472
0.0029199003
0.0028928924
0.0028661056
0.0028395583
0.0028130639
0.0027865691
0.0027600921
0.0027337755
0.0027075198
0.0026811178
0.0026546312
0.002628101
0.0026015917
0.0025749544
0.0025480835
0.0025209943
0.0024937965
0.0024664751
0.002438824
0.0024108384
0.0023825024
0.0023539543
0.0023251023
0.0022957218
0.0022658573
0.002235523
0.0022047867
0.0021734876
0.0021414776
0.0021087358
0.0020754067
0.0020413965
0.0020064207
0.0019704776
0.0019335985
0.0018957778
0.0018567739
0.0018164105
0.0017747179
0.0017316854
0.0016870433
0.0016405197
0.0015921714
0.0015418762
0.0014892301
0.0014340116
0.001376213
0.0013156513
0.0012528425
0.0011898926
0.001127957
0.0010668431
0.001006489
0.00094704476
0.00088840544
0.0008303674
0.00077297492
0.00071645005
0.00066078137
0.00060580258
0.00055166337
0.00049849539
0.00044661606
0.00039632954
0.00034762844
0.00030224256
0.00025856287
0.00022878815
0.00019037652
0.00031234618
-0.000243628
0.0040829016
0.0041026954
0.0041459223
0.0042005583
0.0042649516
0.0043390391
0.0044221596
0.0045135932
0.0046130024
0.0047204347
0.0048362371
0.0049610591
0.0050959331
0.00524242
0.0054028082
0.0055805331
0.0057805908
0.0060113645
0.006284473
0.0066276458
0.0070657998
0.0077620786
0.0086459952
0.012416438
0.0091297177
0.0040505311
0.0039441496
0.0043986704
0.0045198574
0.0044668969
0.0043927482
0.0043243672
0.0042559538
0.004186848
0.0041190096
0.0040539439
0.003992293
0.0039337688
0.0038780946
0.0038250637
0.0037745208
0.0037263093
0.0036801032
0.0036359085
0.0035933364
0.0035524106
0.0035130144
0.0034747382
0.0034377909
0.0034020283
0.0033670906
0.0033331221
0.0033001004
0.003267783
0.0032360512
0.0032050977
0.0031747985
0.0031448811
0.0031154006
0.0030864986
0.0030580427
0.0030298072
0.003001829
0.0029742783
0.0029470547
0.0029199074
0.0028928992
0.0028661122
0.0028395646
0.00281307
0.0027865749
0.0027600977
0.0027337809
0.002707525
0.0026811227
0.002654636
0.0026281056
0.0026015962
0.0025749587
0.0025480876
0.0025209983
0.0024938003
0.0024664787
0.0024388276
0.0024108418
0.0023825056
0.0023539574
0.0023251053
0.0022957247
0.00226586
0.0022355257
0.0022047893
0.0021734901
0.00214148
0.0021087381
0.0020754088
0.0020413986
0.0020064227
0.0019704795
0.0019336004
0.0018957796
0.0018567756
0.0018164122
0.0017747194
0.0017316869
0.0016870447
0.001640521
0.0015921727
0.0015418774
0.0014892313
0.0014340127
0.001376214
0.0013156523
0.0012528435
0.0011898935
0.0011279579
0.0010668439
0.0010064897
0.00094704552
0.00088840616
0.00083036809
0.00077297559
0.00071645069
0.00066078199
0.00060580317
0.00055166394
0.00049849595
0.0004466166
0.00039633007
0.00034762894
0.00030224305
0.00025856335
0.00022878863
0.00019037698
0.00031234675
-0.00024362764
0.0040829016
0.0041026954
0.0041459223
0.0042005583
0.0042649516
0.0043390391
0.0044221596
0.0045135932
0.0046130024
0.0047204347
0.0048362371
0.0049610591
0.0050959331
0.00524242
0.0054028081
0.005580533
0.0057805907
0.0060113642
0.0062844726
0.0066276449
0.0070657985
0.0077620705
0.0086459993
0.012400224
0.0091300115
0.0040536575
0.0039448091
0.0043989232
0.0045200147
0.0044670215
0.0043928538
0.0043244583
0.0042560335
0.0041869187
0.0041190729
0.004054001
0.0039923449
0.0039338161
0.0038781381
0.0038251037
0.0037745578
0.0037263436
0.0036801351
0.0036359383
0.0035933642
0.0035524367
0.0035130389
0.0034747612
0.0034378126
0.0034020488
0.00336711
0.0033331404
0.0033001177
0.0032677995
0.0032360668
0.0032051125
0.0031748126
0.0031448946
0.0031154135
0.0030865109
0.0030580544
0.0030298184
0.0030018397
0.0029742885
0.0029470645
0.0029199168
0.0028929082
0.0028661208
0.0028395729
0.0028130779
0.0027865825
0.002760105
0.0027337879
0.0027075317
0.0026811292
0.0026546422
0.0026281116
0.0026016019
0.0025749642
0.0025480929
0.0025210034
0.0024938052
0.0024664835
0.0024388321
0.0024108462
0.0023825099
0.0023539615
0.0023251092
0.0022957284
0.0022658636
0.0022355292
0.0022047926
0.0021734933
0.002141483
0.0021087411
0.0020754117
0.0020414013
0.0020064253
0.001970482
0.0019336028
0.0018957818
0.0018567777
0.0018164143
0.0017747214
0.0017316888
0.0016870465
0.0016405228
0.0015921744
0.001541879
0.0014892328
0.0014340141
0.0013762154
0.0013156536
0.0012528447
0.0011898946
0.001127959
0.001066845
0.0010064907
0.00094704647
0.00088840708
0.00083036897
0.00077297643
0.0007164515
0.00066078277
0.00060580392
0.00055166466
0.00049849665
0.00044661727
0.00039633072
0.00034762958
0.00030224367
0.00025856395
0.00022878924
0.00019037755
0.00031234746
-0.00024362719
0.0040829016
0.0041026954
0.0041459223
0.0042005583
0.0042649517
0.0043390391
0.0044221596
0.0045135932
0.0046130024
0.0047204347
0.0048362372
0.0049610591
0.0050959331
0.0052424199
0.0054028081
0.0055805329
0.0057805905
0.0060113639
0.0062844719
0.0066276436
0.0070657968
0.0077620602
0.0086460045
0.012384101
0.0091304002
0.0040579665
0.0039457957
0.0043993129
0.0045202532
0.0044672075
0.00439301
0.0043245921
0.0042561499
0.0041870213
0.0041191644
0.0040540833
0.0039924194
0.0039338839
0.0038782001
0.0038251607
0.0037746104
0.0037263922
0.0036801802
0.0036359803
0.0035934034
0.0035524733
0.0035130732
0.0034747935
0.003437843
0.0034020774
0.003367137
0.003333166
0.0033001419
0.0032678224
0.0032360886
0.0032051332
0.0031748322
0.0031449133
0.0031154313
0.0030865278
0.0030580706
0.0030298339
0.0030018545
0.0029743026
0.002947078
0.0029199297
0.0028929206
0.0028661327
0.0028395842
0.0028130888
0.002786593
0.002760115
0.0027337976
0.002707541
0.0026811381
0.0026546507
0.0026281198
0.0026016098
0.0025749718
0.0025481001
0.0025210104
0.0024938119
0.0024664899
0.0024388383
0.0024108521
0.0023825156
0.002353967
0.0023251145
0.0022957335
0.0022658685
0.0022355338
0.0022047971
0.0021734976
0.0021414872
0.002108745
0.0020754155
0.0020414049
0.0020064288
0.0019704854
0.001933606
0.0018957849
0.0018567807
0.0018164171
0.0017747241
0.0017316914
0.001687049
0.0016405251
0.0015921766
0.0015418811
0.0014892348
0.001434016
0.0013762172
0.0013156553
0.0012528463
0.0011898962
0.0011279605
0.0010668464
0.0010064921
0.00094704773
0.00088840828
0.00083037012
0.00077297754
0.00071645256
0.00066078379
0.00060580491
0.00055166561
0.00049849757
0.00044661816
0.00039633158
0.00034763041
0.00030224448
0.00025856474
0.00022879002
0.0001903783
0.00031234838
-0.00024362661
0.0040829016
0.0041026954
0.0041459223
0.0042005583
0.0042649517
0.0043390391
0.0044221596
0.0045135932
0.0046130024
0.0047204347
0.0048362372
0.0049610591
0.0050959331
0.0052424199
0.005402808
0.0055805327
0.0057805902
0.0060113634
0.0062844712
0.006627642
0.0070657947
0.0077620471
0.0086460109
0.01236802
0.0091307841
0.0040636224
0.0039472399
0.004399915
0.0045206193
0.0044674895
0.004393245
0.0043247922
0.0042563231
0.0041871734
0.0041192995
0.0040542044
0.0039925286
0.0039339831
0.0038782906
0.0038252437
0.0037746868
0.0037264628
0.0036802457
0.0036360411
0.00359346
0.0035525263
0.0035131228
0.00347484
0.0034378867
0.0034021185
0.0033671758
0.0033332026
0.0033001765
0.0032678552
0.0032361197
0.0032051627
0.0031748603
0.00314494
0.0031154567
0.003086552
0.0030580937
0.0030298559
0.0030018755
0.0029743227
0.0029470972
0.0029199481
0.0028929382
0.0028661495
0.0028396003
0.0028131043
0.0027866078
0.0027601292
0.0027338112
0.002707554
0.0026811506
0.0026546628
0.0026281313
0.0026016209
0.0025749824
0.0025481104
0.0025210202
0.0024938214
0.002466499
0.002438847
0.0024108605
0.0023825236
0.0023539747
0.0023251219
0.0022957406
0.0022658753
0.0022355404
0.0022048034
0.0021735036
0.002141493
0.0021087506
0.0020754208
0.00204141
0.0020064337
0.00197049
0.0019336104
0.0018957892
0.0018567847
0.0018164209
0.0017747278
0.0017316949
0.0016870523
0.0016405283
0.0015921796
0.001541884
0.0014892375
0.0014340186
0.0013762197
0.0013156576
0.0012528485
0.0011898983
0.0011279624
0.0010668483
0.0010064939
0.00094704946
0.00088840993
0.0008303717
0.00077297905
0.00071645402
0.00066078519
0.00060580625
0.00055166691
0.00049849882
0.00044661937
0.00039633275
0.00034763154
0.00030224559
0.00025856581
0.00022879109
0.00019037932
0.00031234964
-0.00024362582
0.0040829016
0.0041026954
0.0041459223
0.0042005583
0.0042649517
0.0043390391
0.0044221596
0.0045135932
0.0046130024
0.0047204347
0.0048362372
0.0049610591
0.005095933
0.0052424198
0.0054028079
0.0055805325
0.0057805899
0.0060113628
0.0062844701
0.0066276399
0.0070657919
0.0077620302
0.0086460189
0.012351856
0.009131063
0.0040704564
0.0039492714
0.0044008243
0.0045211723
0.0044679114
0.004393595
0.0043250895
0.0042565798
0.0041873982
0.0041194988
0.0040543826
0.0039926892
0.0039341287
0.0038784233
0.0038253652
0.0037747985
0.0037265659
0.003680341
0.0036361297
0.0035935425
0.0035526032
0.0035131948
0.0034749075
0.0034379501
0.0034021782
0.003367232
0.0033332557
0.0033002267
0.0032679027
0.0032361647
0.0032052054
0.0031749008
0.0031449785
0.0031154934
0.003086587
0.0030581269
0.0030298876
0.0030019058
0.0029743517
0.0029471248
0.0029199746
0.0028929635
0.0028661737
0.0028396235
0.0028131265
0.0027866291
0.0027601496
0.0027338307
0.0027075728
0.0026811687
0.0026546801
0.0026281479
0.0026016368
0.0025749977
0.0025481251
0.0025210343
0.0024938349
0.002466512
0.0024388595
0.0024108725
0.0023825351
0.0023539858
0.0023251325
0.0022957508
0.0022658851
0.0022355498
0.0022048123
0.0021735122
0.0021415012
0.0021087585
0.0020754284
0.0020414173
0.0020064406
0.0019704967
0.0019336168
0.0018957952
0.0018567906
0.0018164265
0.0017747331
0.0017317
0.0016870571
0.0016405329
0.001592184
0.0015418881
0.0014892415
0.0014340223
0.0013762232
0.001315661
0.0012528517
0.0011899012
0.0011279653
0.0010668509
0.0010064964
0.0009470519
0.00088841226
0.00083037393
0.00077298119
0.00071645607
0.00066078716
0.00060580815
0.00055166874
0.00049850058
0.00044662107
0.0003963344
0.00034763314
0.00030224714
0.00025856732
0.0002287926
0.00019038075
0.0003123514
-0.00024362471
0.0040829016
0.0041026954
0.0041459223
0.0042005583
0.0042649517
0.0043390391
0.0044221596
0.0045135932
0.0046130025
0.0047204347
0.0048362371
0.0049610591
0.005095933
0.0052424197
0.0054028077
0.0055805322
0.0057805894
0.0060113621
0.0062844688
0.0066276372
0.0070657884
0.0077620087
0.0086460288
0.012335453
0.0091310942
0.0040782936
0.0039520132
0.0044021428
0.0045219784
0.0044685223
0.0043941007
0.0043255187
0.0042569502
0.0041877225
0.0041197859
0.0040546392
0.0039929203
0.0039343381
0.003878614
0.0038255397
0.0037749589
0.0037267138
0.003680478
0.0036362568
0.0035936608
0.0035527136
0.003513298
0.0034750043
0.003438041
0.0034022637
0.0033673126
0.0033333317
0.0033002986
0.0032679707
0.0032362291
0.0032052665
0.0031749589
0.0031450337
0.0031155459
0.003086637
0.0030581746
0.0030299331
0.0030019492
0.0029743931
0.0029471645
0.0029200124
0.0028929997
0.0028662084
0.0028396568
0.0028131583
0.0027866596
0.0027601789
0.0027338588
0.0027075997
0.0026811945
0.0026547048
0.0026281717