/*--------------------------------*- C++ -*----------------------------------*\
  =========                 |
  \\      /  F ield         | OpenFOAM: The Open Source CFD Toolbox
   \\    /   O peration     | Website:  https://openfoam.org
    \\  /    A nd           | Version:  12
     \\/     M anipulation  |
\*---------------------------------------------------------------------------*/
FoamFile
{
    format      ascii;
    class       surfaceScalarField;
    location    "1300";
    object      phi;
}
// * * * * * * * * * * * * * * * * * * * * * * * * * * * * * * * * * * * * * //

dimensions      [0 3 -1 0 0 0 0];

internalField   nonuniform List<scalar> 
14782
(
0.00078635953
7.1540525e-06
-0.00079351358
0.00077670724
9.6522835e-06
0.00076587359
1.0833657e-05
0.00075456093
1.1312651e-05
0.00074277682
1.1784118e-05
0.00073057076
1.2206057e-05
0.00071798171
1.2589052e-05
0.00070505705
1.2924659e-05
0.00069186905
1.3188003e-05
0.00067854147
1.3327576e-05
0.00066526449
1.3276977e-05
0.00065230084
1.2963655e-05
0.00063998656
1.2314277e-05
0.00062867712
1.1309439e-05
0.00061864324
1.0033885e-05
0.00060999477
8.6484657e-06
0.00060266138
7.3333877e-06
0.00059650887
6.1525144e-06
0.0005912824
5.2264654e-06
0.00058672779
4.5546112e-06
0.00058277795
3.9498406e-06
0.00057921616
3.5617896e-06
0.00057588758
3.3285866e-06
0.00057272087
3.1667105e-06
0.00056966003
3.0608401e-06
0.00056668586
2.9741622e-06
0.00056379001
2.895858e-06
0.00056097614
2.8138641e-06
0.00055824725
2.7288929e-06
0.0005556091
2.6381528e-06
0.00055306035
2.5487429e-06
0.00055058951
2.4708374e-06
0.00054816549
2.4240216e-06
0.00054574681
2.4186878e-06
0.00054331259
2.4342161e-06
0.00054086823
2.4443592e-06
0.00053843551
2.4327205e-06
0.00053604311
2.3924004e-06
0.00053371648
2.3266278e-06
0.00053147046
2.246026e-06
0.00052930931
2.1611475e-06
0.00052723114
2.0781672e-06
0.00052522924
2.0018983e-06
0.00052329467
1.9345732e-06
0.00052140357
1.8910959e-06
0.00051950506
1.8985132e-06
0.00051751423
1.990834e-06
0.00051529244
2.2217854e-06
0.00051267711
2.6153267e-06
0.00050967196
3.0051526e-06
0.00050654746
3.1244991e-06
0.00050360695
2.9405136e-06
0.00050098454
2.6224129e-06
0.00049866616
2.3183789e-06
0.00049656971
2.0964425e-06
0.00049461681
1.9528998e-06
0.00049274451
1.8723057e-06
0.00049092736
1.8171471e-06
0.00048916424
1.7631207e-06
0.00048744658
1.71766e-06
0.00048576621
1.6803683e-06
0.00048411418
1.6520296e-06
0.00048248357
1.6306089e-06
0.00048086943
1.6141441e-06
0.00047926757
1.6018571e-06
0.00047767543
1.5921478e-06
0.00047609195
1.5834768e-06
0.00047451607
1.5758789e-06
0.00047294627
1.5697982e-06
0.00047138109
1.5651841e-06
0.00046981903
1.5620575e-06
0.00046825875
1.5602789e-06
0.0004666992
1.5595552e-06
0.00046513917
1.5600303e-06
0.00046357754
1.5616233e-06
0.00046201333
1.5642152e-06
0.00046044533
1.5680017e-06
0.00045887253
1.5727926e-06
0.00045729407
1.5784598e-06
0.00045570881
1.5852649e-06
0.00045411648
1.5923328e-06
0.0004525174
1.5990738e-06
0.00045091608
1.6013265e-06
0.00044937085
1.5452245e-06
0.00044844273
9.2811748e-07
0.0004524754
-4.032662e-06
0.00045898101
-6.5056184e-06
0.00046251366
-3.5326503e-06
0.0004643439
-1.8302346e-06
0.00046491792
-5.7402289e-07
0.00046482468
9.3237573e-08
0.0004643589
4.657732e-07
0.00046367752
6.8138745e-07
0.00046286337
8.1414967e-07
0.00046196337
8.9999664e-07
0.00046100704
9.5632912e-07
0.00045999909
1.0079523e-06
0.00045892878
1.0703069e-06
0.00045782693
1.1018491e-06
1.3410342e-06
0.00082497993
6.7727235e-06
-0.0008245986
0.00082537752
9.2546926e-06
0.00082558794
1.0623242e-05
0.00082568223
1.1218358e-05
0.00082565455
1.18118e-05
0.00082550121
1.2359399e-05
0.00082521577
1.2874485e-05
0.00082477628
1.3364156e-05
0.0008241273
1.3836984e-05
0.00082317385
1.4281024e-05
0.00082179146
1.4659363e-05
0.00081981104
1.4944073e-05
0.00081703164
1.5093681e-05
0.00081325621
1.5084865e-05
0.00080836262
1.492748e-05
0.00080235372
1.4657361e-05
0.00079534176
1.4345355e-05
0.00078749763
1.3996645e-05
0.00077904639
1.3677706e-05
0.00077020718
1.339382e-05
0.00076120578
1.2951237e-05
0.00075230809
1.2459479e-05
0.00074370391
1.1932766e-05
0.00073551339
1.1357234e-05
0.00072781166
1.0762568e-05
0.00072062882
1.0156999e-05
0.00071396671
9.5579733e-06
0.00070779593
8.9846446e-06
0.00070205935
8.4654663e-06
0.00069668888
8.0086302e-06
0.00069161804
7.6195828e-06
0.00068678478
7.3040924e-06
0.00068215091
7.0578968e-06
0.00067770512
6.8644714e-06
0.00067343808
6.7012577e-06
0.00066933747
6.544966e-06
0.00066538659
6.3836062e-06
0.00066156591
6.2130739e-06
0.00065785922
6.033322e-06
0.00065425641
5.8488359e-06
0.00065075268
5.6648818e-06
0.00064734637
5.4844697e-06
0.00064403574
5.3125341e-06
0.00064081873
5.1515854e-06
0.00063769793
5.0118958e-06
0.0006346856
4.9108363e-06
0.00063180932
4.8671144e-06
0.00062912465
4.9064555e-06
0.00062669867
5.0413146e-06
0.00062449403
5.209785e-06
0.00062233063
5.2879081e-06
0.00062005276
5.2183784e-06
0.00061762998
5.0451943e-06
0.00061511255
4.8358103e-06
0.00061256823
4.6407595e-06
0.00061004011
4.4810197e-06
0.00060754519
4.3672249e-06
0.00060508893
4.2734081e-06
0.00060267562
4.1764332e-06
0.00060030794
4.085342e-06
0.00059798562
4.0026874e-06
0.00059570657
3.9310801e-06
0.0005934686
3.8685739e-06
0.00059126953
3.8132231e-06
0.00058910677
3.764615e-06
0.00058697858
3.7203386e-06
0.00058488407
3.6779877e-06
0.00058282217
3.6377718e-06
0.00058079159
3.6003789e-06
0.00057879112
3.5656591e-06
0.00057681952
3.5336537e-06
0.00057487565
3.5041559e-06
0.00057295854
3.4766574e-06
0.00057106722
3.4513569e-06
0.00056920075
3.4280887e-06
0.00056735835
3.4066184e-06
0.0005655391
3.3872522e-06
0.00056374222
3.3696701e-06
0.00056196698
3.3536967e-06
0.00056021243
3.3398225e-06
0.00055847808
3.3266737e-06
0.00055676341
3.3137479e-06
0.00055506634
3.2983961e-06
0.00055337933
3.2322388e-06
0.00055163562
2.6718224e-06
0.00054885991
-1.2569554e-06
0.00054619977
-3.8454738e-06
0.00054485482
-2.187707e-06
0.0005437289
-7.0431345e-07
0.00054259818
5.5670296e-07
0.0005413683
1.3231097e-06
0.00054005694
1.7771316e-06
0.00053869642
2.0419073e-06
0.00053731074
2.1998388e-06
0.00053591047
2.3002659e-06
0.0005345087
2.3580943e-06
0.00053307879
2.4378655e-06
0.00053166185
2.4872415e-06
0.00053001267
2.75103e-06
2.7422846e-06
0.00085269514
6.4991536e-06
-0.00085242157
0.00085309937
8.8504622e-06
0.00085347221
1.0250394e-05
0.00085376219
1.0928386e-05
0.00085402544
1.1548549e-05
0.00085425017
1.2134663e-05
0.00085444814
1.2676519e-05
0.00085463018
1.3182115e-05
0.00085480264
1.3664521e-05
0.00085496409
1.4119578e-05
0.00085511453
1.4508924e-05
0.0008552422
1.4816401e-05
0.00085533115
1.5004733e-05
0.00085535549
1.5060519e-05
0.00085528269
1.5000281e-05
0.00085507071
1.4869349e-05
0.0008546726
1.474346e-05
0.00085402415
1.4645092e-05
0.00085305289
1.4648966e-05
0.00085167335
1.477336e-05
0.00084972486
1.489973e-05
0.00084709378
1.509056e-05
0.00084371867
1.5307873e-05
0.00083956848
1.550743e-05
0.00083465693
1.567411e-05
0.00082902946
1.5784469e-05
0.00082280273
1.5784712e-05
0.00081615228
1.5635094e-05
0.00080925127
1.5366472e-05
0.00080226679
1.4993107e-05
0.00079534757
1.4538803e-05
0.00078861079
1.4040876e-05
0.00078213687
1.3531815e-05
0.00077596351
1.3037833e-05
0.00077008846
1.2576303e-05
0.00076448523
1.21482e-05
0.00075911591
1.1752926e-05
0.00075394255
1.1386436e-05
0.00074893686
1.1039006e-05
0.00074408085
1.0704856e-05
0.00073936397
1.0381754e-05
0.00073477878
1.0069663e-05
0.00073031749
9.773826e-06
0.00072597493
9.4941423e-06
0.0007217546
9.2322213e-06
0.00071766815
8.9972909e-06
0.00071373181
8.8034573e-06
0.00070997015
8.6681085e-06
0.00070640969
8.6017816e-06
0.00070304266
8.5768095e-06
0.0006998086
8.5219673e-06
0.00069663436
8.39262e-06
0.00069347358
8.2059764e-06
0.00069031233
7.9970526e-06
0.0006871606
7.7924955e-06
0.00068403502
7.6065961e-06
0.00068094967
7.4525735e-06
0.00067791354
7.3095419e-06
0.00067493147
7.1585055e-06
0.00067200529
7.0115198e-06
0.00066913488
6.8730987e-06
0.00066631972
6.7462392e-06
0.00066355926
6.6290351e-06
0.00066085223
6.5202521e-06
0.00065819661
6.4202342e-06
0.00065559108
6.325864e-06
0.00065303461
6.2344588e-06
0.0006505256
6.1467816e-06
0.00064806245
6.0635307e-06
0.00064564383
5.9842829e-06
0.00064326842
5.9090601e-06
0.00064093494
5.8376325e-06
0.00063864227
5.7693313e-06
0.00063638923
5.7043939e-06
0.00063417475
5.6425698e-06
0.00063199786
5.5835075e-06
0.00062985752
5.5275925e-06
0.0006277528
5.4743931e-06
0.0006256828
5.4236948e-06
0.00062364644
5.3761866e-06
0.000621643
5.3301155e-06
0.00061967154
5.2851996e-06
0.00061772855
5.2413893e-06
0.00061579503
5.1657614e-06
0.00061372928
4.7375681e-06
0.00061061505
1.8572782e-06
0.00060723238
-4.6280366e-07
0.00060479487
2.4980315e-07
0.00060277783
1.3127302e-06
0.00060097267
2.3618551e-06
0.00059922355
3.072235e-06
0.00059748529
3.5153858e-06
0.00059575076
3.7764424e-06
0.00059402454
3.9260595e-06
0.00059230641
4.0183908e-06
0.00059060502
4.0594827e-06
0.00058888404
4.1588463e-06
0.00058720604
4.1652472e-06
0.00058520904
4.74803e-06
4.2975398e-06
0.00088128051
6.2962455e-06
-0.0008810776
0.00088165814
8.4728328e-06
0.00088203217
9.8763582e-06
0.00088232612
1.0634437e-05
0.00088259676
1.1277909e-05
0.00088283549
1.1895934e-05
0.0008830495
1.2462513e-05
0.0008832494
1.2982216e-05
0.00088344322
1.3470702e-05
0.00088363191
1.3930889e-05
0.00088381834
1.4322491e-05
0.00088399716
1.4637578e-05
0.00088416255
1.4839348e-05
0.00088430469
1.4918373e-05
0.0008844171
1.4887878e-05
0.00088449609
1.4790357e-05
0.0008845468
1.4692746e-05
0.0008845709
1.4620995e-05
0.00088457432
1.4645541e-05
0.00088456608
1.4781603e-05
0.00088452665
1.4939162e-05
0.00088444534
1.5171865e-05
0.00088429746
1.5455755e-05
0.00088404316
1.576173e-05
0.0008836275
1.6089776e-05
0.00088298272
1.642925e-05
0.00088199674
1.677069e-05
0.00088052976
1.7102071e-05
0.00087847223
1.7424007e-05
0.00087574023
1.7725107e-05
0.00087228747
1.799156e-05
0.0008681124
1.8215948e-05
0.0008632901
1.8354112e-05
0.00085795962
1.8368312e-05
0.00085227255
1.8263378e-05
0.00084638132
1.8039422e-05
0.00084042206
1.7712191e-05
0.00083450162
1.7306873e-05
0.00082868997
1.6850658e-05
0.00082301833
1.6376499e-05
0.00081748918
1.5910901e-05
0.00081209159
1.5467255e-05
0.00080681389
1.5051527e-05
0.0008016501
1.4657927e-05
0.00079660093
1.4281392e-05
0.00079167365
1.3924575e-05
0.00078687941
1.3597691e-05
0.00078223065
1.3316873e-05
0.00077773723
1.3095194e-05
0.00077339872
1.2915319e-05
0.00076919815
1.2722537e-05
0.00076511012
1.248065e-05
0.00076111189
1.2204209e-05
0.00075718615
1.1922788e-05
0.0007533242
1.1654451e-05
0.00074952525
1.1405542e-05
0.00074579292
1.118491e-05
0.00074212935
1.0973113e-05
0.00073853458
1.0753267e-05
0.00073500887
1.0537234e-05
0.00073155226
1.0329704e-05
0.00072816428
1.0134226e-05
0.00072484415
9.9491599e-06
0.00072159048
9.7739262e-06
0.00071840131
9.6094021e-06
0.00071527535
9.4518218e-06
0.00071221106
9.2987529e-06
0.00070920626
9.1515802e-06
0.0007062591
9.0106857e-06
0.00070336807
8.87532e-06
0.00070053162
8.7455117e-06
0.00069774821
8.6210359e-06
0.00069501646
8.5010882e-06
0.00069233491
8.3859438e-06
0.00068970221
8.2752684e-06
0.00068711713
8.1685893e-06
0.00068457836
8.0663549e-06
0.00068208474
7.9680187e-06
0.00067963512
7.8733149e-06
0.0006772282
7.783099e-06
0.00067486307
7.6952498e-06
0.00067253861
7.6096584e-06
0.00067025157
7.5284331e-06
0.00066798732
7.4300061e-06
0.00066565898
7.0659077e-06
0.00066279339
4.7228708e-06
0.0006597113
2.619286e-06
0.00065705766
2.9034462e-06
0.00065469904
3.6713462e-06
0.00065253675
4.5241504e-06
0.00065046109
5.1478898e-06
0.00064842307
5.5534063e-06
0.00064640575
5.7937687e-06
0.00064440758
5.9242285e-06
0.0006424252
6.0007663e-06
0.00064046685
6.0178374e-06
0.00063849182
6.1338798e-06
0.00063657936
6.077699e-06
0.00063427687
7.0505191e-06
6.0193848e-06
0.0009108415
6.1334548e-06
-0.00091067871
0.00091118259
8.1317396e-06
0.00091153227
9.5266845e-06
0.00091181582
1.0350883e-05
0.00091207469
1.1019037e-05
0.00091231051
1.1660115e-05
0.00091252573
1.2247298e-05
0.0009127285
1.2779442e-05
0.00091292631
1.3272896e-05
0.00091312002
1.373718e-05
0.00091331175
1.4130752e-05
0.00091349661
1.445272e-05
0.00091366914
1.4666819e-05
0.00091382124
1.4766278e-05
0.00091394611
1.4763001e-05
0.00091404035
1.4696123e-05
0.00091410928
1.4623818e-05
0.00091415621
1.4574057e-05
0.00091419084
1.4610913e-05
0.00091422574
1.4746701e-05
0.00091425404
1.4910863e-05
0.00091428175
1.5144158e-05
0.00091431064
1.5426861e-05
0.00091433854
1.5733831e-05
0.00091436335
1.6064971e-05
0.0009143814
1.6411194e-05
0.00091438578
1.6766313e-05
0.00091436368
1.7124166e-05
0.00091429677
1.7490925e-05
0.00091415429
1.7867577e-05
0.0009138893
1.8256554e-05
0.00091344045
1.8664803e-05
0.00091270504
1.9089514e-05
0.00091155148
1.9521877e-05
0.00090986446
1.9950399e-05
0.00090755295
2.0350929e-05
0.00090456379
2.0701355e-05
0.00090089983
2.0970834e-05
0.00089663702
2.1113468e-05
0.00089190038
2.1113139e-05
0.00088682801
2.098327e-05
0.00088155336
2.0741899e-05
0.00087618899
2.0415899e-05
0.00087081319
2.0033729e-05
0.00086546734
1.9627238e-05
0.00086016987
1.9222052e-05
0.00085493211
1.8835449e-05
0.00084976784
1.8481141e-05
0.00084469347
1.8169565e-05
0.00083972156
1.7887229e-05
0.00083485544
1.7588658e-05
0.00083009089
1.7245195e-05
0.00082542161
1.6873497e-05
0.00082084116
1.6503238e-05
0.00081634462
1.6150984e-05
0.00081193001
1.5820156e-05
0.00080759762
1.5517302e-05
0.0008033455
1.5225227e-05
0.00079917076
1.4928013e-05
0.00079507308
1.4634911e-05
0.00079105311
1.4349669e-05
0.00078711069
1.4076647e-05
0.00078324508
1.3814772e-05
0.0007794553
1.3563706e-05
0.00077573996
1.3324738e-05
0.00077209734
1.3094441e-05
0.00076852564
1.2870455e-05
0.00076502307
1.2654157e-05
0.00076158787
1.2445879e-05
0.00075821849
1.2244703e-05
0.0007549133
1.2050698e-05
0.00075167069
1.1863653e-05
0.00074848913
1.1682645e-05
0.00074536707
1.1508008e-05
0.000742303
1.1339338e-05
0.00073929553
1.1176054e-05
0.00073634321
1.1018672e-05
0.0007334447
1.0866535e-05
0.00073059869
1.0719325e-05
0.00072780373
1.0578054e-05
0.00072505876
1.0440227e-05
0.00072236255
1.030586e-05
0.00071971233
1.0178656e-05
0.00071709825
1.0044091e-05
0.00071447655
9.6876073e-06
0.00071161682
7.5825955e-06
0.00070863691
5.5992043e-06
0.00070585378
5.6865759e-06
0.00070325915
6.2659738e-06
0.00070081616
6.9671448e-06
0.00069845895
7.505101e-06
0.00069614774
7.8646117e-06
0.00069386451
8.0770024e-06
0.00069160542
8.1833186e-06
0.00068936587
8.2403094e-06
0.00068715464
8.2290706e-06
0.00068492805
8.3604729e-06
0.00068278086
8.2248823e-06
0.00068017567
9.655713e-06
7.9194344e-06
0.00094139062
6.0020802e-06
-0.00094125924
0.00094169104
7.831316e-06
0.00094201731
9.2004133e-06
0.00094229574
1.0072457e-05
0.00094254997
1.0764803e-05
0.0009427875
1.1422592e-05
0.00094300723
1.2027566e-05
0.00094321422
1.2572446e-05
0.00094341465
1.3072465e-05
0.00094361157
1.3540266e-05
0.00094380377
1.3938554e-05
0.00094398926
1.4267222e-05
0.00094416191
1.4494172e-05
0.0009443144
1.4613787e-05
0.00094444054
1.4636862e-05
0.00094453772
1.4598949e-05
0.00094461025
1.4551279e-05
0.00094466112
1.4523191e-05
0.00094469991
1.4572125e-05
0.00094473803
1.470858e-05
0.00094477098
1.4877913e-05
0.00094480426
1.511088e-05
0.00094484005
1.5391071e-05
0.00094487722
1.5696654e-05
0.00094491556
1.6026633e-05
0.00094495473
1.6372028e-05
0.00094499391
1.6727129e-05
0.00094503143
1.7086648e-05
0.00094506714
1.7455218e-05
0.00094509992
1.7834793e-05
0.0009451282
1.8228272e-05
0.00094515005
1.8642959e-05
0.00094516002
1.9079539e-05
0.00094514727
1.9534632e-05
0.00094509231
2.0005357e-05
0.00094496065
2.0482593e-05
0.00094470072
2.0961283e-05
0.00094423239
2.1439161e-05
0.00094343633
2.1909525e-05
0.00094218176
2.2367718e-05
0.00094035941
2.2805612e-05
0.00093789393
2.3207386e-05
0.00093476758
2.3542249e-05
0.00093103809
2.3763214e-05
0.00092681485
2.3850479e-05
0.00092222505
2.3811854e-05
0.00091739313
2.366737e-05
0.00091242391
2.3450363e-05
0.00090739212
2.3201355e-05
0.0009023414
2.2937943e-05
0.0008972938
2.263626e-05
0.0008922628
2.22762e-05
0.0008872617
2.1874592e-05
0.00088230349
2.1461447e-05
0.00087739805
2.1056426e-05
0.00087255208
2.0666128e-05
0.00086777106
2.0298321e-05
0.00086305777
1.9938517e-05
0.00085841317
1.9572613e-05
0.00085383891
1.9209175e-05
0.00084933693
1.8851639e-05
0.0008449089
1.8504679e-05
0.00084055599
1.8167688e-05
0.00083627915
1.7840544e-05
0.00083207871
1.752518e-05
0.00082795364
1.7219509e-05
0.00082390286
1.692123e-05
0.00081992569
1.663133e-05
0.00081602115
1.6350418e-05
0.00081218822
1.6077636e-05
0.0008084257
1.5813219e-05
0.00080473231
1.5557044e-05
0.00080110681
1.5308139e-05
0.00079754786
1.5066957e-05
0.00079405412
1.4833085e-05
0.00079062429
1.460588e-05
0.000787257
1.4385964e-05
0.00078395093
1.4172602e-05
0.00078070481
1.3965448e-05
0.00077751717
1.3765688e-05
0.00077438694
1.3570463e-05
0.0007713129
1.3379895e-05
0.0007682927
1.3198859e-05
0.00076531977
1.3017019e-05
0.00076237474
1.2632643e-05
0.00075934122
1.0616107e-05
0.00075625796
8.6824655e-06
0.0007532821
8.662438e-06
0.00075043306
9.1150203e-06
0.00074770268
9.697521e-06
0.00074505419
1.0153591e-05
0.00074245794
1.0460864e-05
0.00073989691
1.0638032e-05
0.00073736571
1.0714517e-05
0.00073485843
1.074759e-05
0.00073238402
1.0703483e-05
0.00072989584
1.0848655e-05
0.0007275035
1.0617222e-05
0.00072458656
1.2572646e-05
1.001129e-05
0.0009729581
5.8947615e-06
-0.00097285078
0.00097322213
7.5672829e-06
0.00097352715
8.8953985e-06
0.00097379982
9.7997864e-06
0.00097404922
1.0515402e-05
0.00097428556
1.1186251e-05
0.00097450707
1.180606e-05
0.0009747164
1.2363116e-05
0.00097491815
1.2870715e-05
0.00097511807
1.3340338e-05
0.00097531107
1.3745561e-05
0.00097549808
1.4080209e-05
0.00097567206
1.4320189e-05
0.00097582645
1.4459403e-05
0.00097595536
1.4507944e-05
0.0009760564
1.4497913e-05
0.00097613314
1.4474543e-05
0.00097618857
1.4467755e-05
0.00097623192
1.452878e-05
0.00097627315
1.4667344e-05
0.00097630931
1.4841758e-05
0.00097634529
1.5074898e-05
0.00097638322
1.5353136e-05
0.00097642232
1.5657554e-05
0.0009764627
1.5986255e-05
0.00097650407
1.6330663e-05
0.00097654585
1.6685343e-05
0.00097658691
1.7045588e-05
0.00097662718
1.7414948e-05
0.00097666618
1.7795796e-05
0.0009767037
1.8190749e-05
0.00097674062
1.8606038e-05
0.00097677743
1.9042728e-05
0.00097681407
1.9498e-05
0.00097685049
1.9968932e-05
0.00097688534
2.0447744e-05
0.00097691631
2.0930316e-05
0.00097693897
2.1416501e-05
0.00097694387
2.1904628e-05
0.00097691386
2.239772e-05
0.00097681823
2.2901242e-05
0.00097660767
2.3417947e-05
0.00097620107
2.394885e-05
0.00097547645
2.4487834e-05
0.00097429924
2.5027689e-05
0.00097255635
2.5554744e-05
0.00097017181
2.6051908e-05
0.00096714599
2.6476183e-05
0.00096355741
2.6789934e-05
0.00095951876
2.6976596e-05
0.00095515195
2.7003074e-05
0.00095056491
2.6863235e-05
0.00094583791
2.6601591e-05
0.00094102147
2.627789e-05
0.00093614632
2.5931577e-05
0.00093123608
2.5576366e-05
0.00092631375
2.5220656e-05
0.00092139878
2.485348e-05
0.00091650522
2.446618e-05
0.00091164339
2.4071e-05
0.00090682157
2.3673459e-05
0.00090204707
2.3279177e-05
0.00089732627
2.288849e-05
0.00089266441
2.2502403e-05
0.00088806553
2.212406e-05
0.00088353212
2.1752919e-05
0.00087906582
2.1387532e-05
0.00087466799
2.1029157e-05
0.0008703396
2.0678807e-05
0.00086608132
2.0335917e-05
0.00086189337
2.0001177e-05
0.00085777562
1.9674794e-05
0.00085372783
1.9355921e-05
0.00084974949
1.9045297e-05
0.00084583995
1.8742631e-05
0.0008419985
1.844733e-05
0.00083822423
1.816023e-05
0.00083451624
1.7880591e-05
0.00083087357
1.7608114e-05
0.00082729504
1.7344223e-05
0.00082377978
1.7085727e-05
0.00082032679
1.6832884e-05
0.00081693415
1.659149e-05
0.00081359745
1.6353724e-05
0.00081030963
1.5920462e-05
0.00080700633
1.3919406e-05
0.00080369811
1.1990693e-05
0.00080046744
1.1893105e-05
0.00079733201
1.2250447e-05
0.00079429504
1.2734498e-05
0.00079133749
1.3111144e-05
0.00078843852
1.3359826e-05
0.00078558304
1.3493521e-05
0.00078276453
1.3533025e-05
0.00077997559
1.3536524e-05
0.00077722492
1.3454155e-05
0.00077446263
1.3610949e-05
0.00077181273
1.3267124e-05
0.00076857208
1.5813294e-05
1.2308091e-05
0.001005578
5.8048669e-06
-0.0010054881
0.0010058105
7.3347792e-06
0.0010060941
8.6117709e-06
0.0010063587
9.5351482e-06
0.0010066029
1.0271264e-05
0.001006837
1.0952159e-05
0.0010070597
1.1583319e-05
0.0010072715
1.2151317e-05
0.0010074761
1.2666101e-05
0.001007678
1.3138441e-05
0.0010078733
1.3550324e-05
0.0010080618
1.3891624e-05
0.0010082375
1.4144534e-05
0.001008394
1.4302879e-05
0.0010085259
1.4376037e-05
0.001008631
1.4392889e-05
0.001008712
1.439349e-05
0.0010087721
1.4407697e-05
0.0010088198
1.4481078e-05
0.0010088639
1.4623185e-05
0.0010089029
1.4802795e-05
0.0010089411
1.5036672e-05
0.0010089808
1.5313492e-05
0.0010090213
1.561697e-05
0.0010090631
1.5944499e-05
0.0010091057
1.6288037e-05
0.0010091487
1.6642403e-05
0.0010091909
1.7003394e-05
0.0010092322
1.7373576e-05
0.0010092726
1.775545e-05
0.0010093119
1.8151465e-05
0.0010093509
1.8566998e-05
0.0010093903
1.9003355e-05
0.0010094304
1.945789e-05
0.0010094715
1.9927785e-05
0.001009513
2.0406319e-05
0.001009554
2.0889317e-05
0.0010095942
2.1376303e-05
0.0010096328
2.1866002e-05
0.0010096692
2.236134e-05
0.0010097027
2.2867736e-05
0.0010097318
2.3388808e-05
0.0010097527
2.3927995e-05
0.0010097555
2.4484993e-05
0.001009721
2.5062168e-05
0.0010096124
2.566334e-05
0.0010093714
2.6292958e-05
0.0010088937
2.695386e-05
0.0010080392
2.7644411e-05
0.0010066776
2.8338195e-05
0.0010047064
2.8974319e-05
0.0010020919
2.9477722e-05
0.00099888572
2.9807761e-05
0.00099518971
2.99739e-05
0.00099112255
2.9998733e-05
0.00098679236
2.9906553e-05
0.00098227986
2.9733157e-05
0.00097763622
2.9497123e-05
0.00097289513
2.9207268e-05
0.00096808521
2.8880928e-05
0.00096323277
2.8525899e-05
0.00095836013
2.8151817e-05
0.00095348489
2.7763721e-05
0.00094862113
2.7366164e-05
0.00094378072
2.6964477e-05
0.00093897348
2.6560159e-05
0.00093420711
2.6153895e-05
0.00092948771
2.5748556e-05
0.00092482032
2.5346203e-05
0.00092020916
2.4947077e-05
0.00091565747
2.4552861e-05
0.00091116773
2.4164534e-05
0.00090674191
2.3781744e-05
0.00090238135
2.3405857e-05
0.00089808701
2.3036973e-05
0.00089385956
2.2674783e-05
0.00088969925
2.2320541e-05
0.00088560616
2.1973673e-05
0.00088158021
2.1634068e-05
0.00087762091
2.1303524e-05
0.00087372803
2.097861e-05
0.0008699011
2.065981e-05
0.00086613885
2.035374e-05
0.00086243841
2.0054165e-05
0.00085879873
1.9560146e-05
0.00085517931
1.7538823e-05
0.00085158235
1.558765e-05
0.00084805632
1.5419134e-05
0.00084461088
1.5695887e-05
0.00084125211
1.6093271e-05
0.00083797129
1.6391968e-05
0.00083475479
1.6576325e-05
0.00083159003
1.6658281e-05
0.0008284701
1.6652956e-05
0.00082538625
1.6620372e-05
0.0008223467
1.6493702e-05
0.00081929809
1.6659562e-05
0.00081637857
1.6186644e-05
0.00081280181
1.9390057e-05
1.4821907e-05
0.0010392849
5.7274544e-06
-0.0010392075
0.0010394902
7.1294797e-06
0.0010397526
8.3493732e-06
0.001040008
9.2797904e-06
0.0010402471
1.0032138e-05
0.0010404786
1.0720614e-05
0.0010407019
1.1360022e-05
0.0010409157
1.193749e-05
0.0010411226
1.2459257e-05
0.0010413258
1.2935184e-05
0.0010415229
1.3353228e-05
0.0010417127
1.3701914e-05
0.0010418897
1.3967518e-05
0.0010420481
1.4144443e-05
0.0010421828
1.4241316e-05
0.0010422917
1.428403e-05
0.001042377
1.4308162e-05
0.0010424417
1.4342969e-05
0.0010424939
1.4428927e-05
0.0010425413
1.4575731e-05
0.0010425836
1.4760579e-05
0.0010426246
1.4995624e-05
0.0010426666
1.5271489e-05
0.0010427093
1.5574261e-05
0.001042753
1.59008e-05
0.0010427974
1.6243639e-05
0.001042842
1.6597827e-05
0.0010428858
1.6959581e-05
0.0010429287
1.7330687e-05
0.0010429705
1.7713625e-05
0.0010430113
1.8110719e-05
0.0010430517
1.8526604e-05
0.0010430923
1.8962733e-05
0.0010431334
1.9416738e-05
0.0010431754
1.9885777e-05
0.0010432179
2.0363861e-05
0.0010432603
2.0846871e-05
0.0010433025
2.1334155e-05
0.0010433438
2.1824701e-05
0.0010433841
2.2321081e-05
0.0010434232
2.2828564e-05
0.0010434611
2.3350945e-05
0.0010434978
2.389127e-05
0.0010435332
2.4449594e-05
0.0010435669
2.502853e-05
0.0010435979
2.5632265e-05
0.0010436245
2.6266403e-05
0.0010436407
2.6937607e-05
0.0010436333
2.7651831e-05
0.0010435727
2.8398827e-05
0.0010434038
2.9143185e-05
0.0010430256
2.9855961e-05
0.0010422949
3.0538414e-05
0.0010410698
3.1199061e-05
0.0010392392
3.1829293e-05
0.0010367692
3.2376539e-05
0.0010337133
3.2789044e-05
0.0010301709
3.3039508e-05
0.0010262558
3.3122411e-05
0.0010220674
3.3069358e-05
0.001017676
3.2917229e-05
0.001013128
3.2699904e-05
0.0010084587
3.2433002e-05
0.0010037007
3.2124167e-05
0.00099888285
3.1782296e-05
0.00099402882
3.1414192e-05
0.0009891573
3.1025407e-05
0.0009842838
3.062206e-05
0.00097942145
3.0208558e-05
0.00097458124
2.9787281e-05
0.00096977213
2.9361976e-05
0.0009650015
2.893516e-05
0.00096027557
2.8507671e-05
0.00095559929
2.8082142e-05
0.00095097669
2.7659573e-05
0.0009464111
2.7240369e-05
0.00094190505
2.6826592e-05
0.00093746058
2.6418142e-05
0.00093307928
2.6015371e-05
0.00092876211
2.5620698e-05
0.00092451008
2.5230632e-05
0.00092032383
2.4846063e-05
0.0009162031
2.447447e-05
0.00091214654
2.4110724e-05
0.00090815618
2.3550509e-05
0.00090420286
2.1492142e-05
0.00090028778
1.9502728e-05
0.00089644471
1.9262208e-05
0.00089267613
1.9464467e-05
0.00088898723
1.9782171e-05
0.00088537482
2.0004376e-05
0.00088183091
2.0120239e-05
0.00087834584
2.0143347e-05
0.00087491311
2.0085687e-05
0.00087152309
2.0010391e-05
0.0008681836
1.9833197e-05
0.00086483769
2.0005469e-05
0.00086163758
1.9386753e-05
0.00085771288
2.3314761e-05
1.756373e-05
0.0010741149
5.6590874e-06
-0.0010740465
0.001074297
6.9473699e-06
0.0010745391
8.1073379e-06
0.0010747843
9.0345241e-06
0.0010750183
9.7981614e-06
0.0010752468
1.0492123e-05
0.0010754697
1.1137125e-05
0.0010756848
1.1722375e-05
0.0010758933
1.225073e-05
0.0010760978
1.2730686e-05
0.0010762965
1.3154513e-05
0.0010764874
1.3511016e-05
0.0010766659
1.3789064e-05
0.0010768263
1.398399e-05
0.001076964
1.4103687e-05
0.0010770767
1.4171288e-05
0.0010771664
1.4218473e-05
0.0010772359
1.4273475e-05
0.0010772926
1.4372247e-05
0.0010773435
1.4524773e-05
0.0010773891
1.4715002e-05
0.001077433
1.4951694e-05
0.0010774774
1.5227119e-05
0.0010775222
1.5529471e-05
0.0010775678
1.5855241e-05
0.0010776139
1.6197547e-05
0.00107766
1.655166e-05
0.0010777054
1.6914157e-05
0.0010777499
1.7286217e-05
0.0010777933
1.7670207e-05
0.0010778357
1.8068346e-05
0.0010778777
1.8484635e-05
0.0010779198
1.8920583e-05
0.0010779624
1.9374113e-05
0.0010780058
1.98424e-05
0.0010780496
2.0320081e-05
0.0010780933
2.0803149e-05
0.0010781367
2.1290797e-05
0.0010781791
2.1782265e-05
0.0010782204
2.2279825e-05
0.0010782606
2.2788376e-05
0.0010782998
2.3311668e-05
0.0010783385
2.385262e-05
0.0010783765
2.4411554e-05
0.0010784141
2.4990917e-05
0.0010784513
2.5595065e-05
0.001078488
2.6229699e-05
0.0010785247
2.6900952e-05
0.0010785625
2.7613997e-05
0.001078602
2.8359329e-05
0.0010786402
2.9105066e-05
0.0010786687
2.9827439e-05
0.0010786722
3.053492e-05
0.0010786195
3.1251691e-05
0.0010784551
3.1993746e-05
0.0010780715
3.2760139e-05
0.0010773176
3.3542908e-05
0.001076047
3.4310125e-05
0.001074157
3.5012462e-05
0.0010716347
3.5591564e-05
0.00106855
3.6001973e-05
0.0010650081
3.6241857e-05
0.0010611162
3.6324886e-05
0.0010569583
3.6282012e-05
0.0010525916
3.6149031e-05
0.0010480583
3.5947431e-05
0.0010433962
3.5687549e-05
0.0010386389
3.5379374e-05
0.0010338144
3.5033056e-05
0.0010289455
3.4656172e-05
0.0010240513
3.4256146e-05
0.0010191482
3.3838313e-05
0.0010142498
3.3406084e-05
0.0010093674
3.2964517e-05
0.0010045106
3.2516373e-05
0.00099968741
3.2063554e-05
0.00099490439
3.1609614e-05
0.00099016706
3.1155474e-05
0.00098548
3.0702429e-05
0.00098084674
3.0253954e-05
0.00097627055
2.9806825e-05
0.00097175396
2.936265e-05
0.00096729846
2.8929971e-05
0.00096290461
2.8504576e-05
0.00095857652
2.7878593e-05
0.00095429095
2.5777713e-05
0.00095005071
2.3742966e-05
0.00094588425
2.3428672e-05
0.00094178947
2.3559243e-05
0.0009377695
2.3802146e-05
0.00093382374
2.3950135e-05
0.00092994837
2.3995613e-05
0.0009261368
2.3954909e-05
0.00092238371
2.3838778e-05
0.00091867924
2.3714861e-05
0.00091503111
2.3481331e-05
0.00091137889
2.3657691e-05
0.00090788888
2.2876757e-05
0.0009036058
2.759784e-05
2.0543377e-05
0.0011101054
5.5973716e-06
-0.0011100437
0.001110268
6.7848234e-06
0.0011104909
7.8843977e-06
0.0011107255
8.7999733e-06
0.0011109539
9.569722e-06
0.0011111789
1.0267104e-05
0.0011114007
1.0915377e-05
0.0011116165
1.150658e-05
0.0011118263
1.2040879e-05
0.0011120319
1.252507e-05
0.001112232
1.2954465e-05
0.001112424
1.3318982e-05
0.0011126038
1.360926e-05
0.0011127662
1.3821606e-05
0.0011129066
1.3963248e-05
0.0011130231
1.4054786e-05
0.0011131171
1.4124494e-05
0.0011131913
1.4199258e-05
0.0011132525
1.431106e-05
0.0011133071
1.4470198e-05
0.0011133561
1.4665996e-05
0.001113403
1.4904798e-05
0.0011134498
1.5180276e-05
0.0011134968
1.5482475e-05
0.0011135444
1.5807689e-05
0.0011135923
1.6149609e-05
0.0011136402
1.6503747e-05
0.0011136874
1.6866982e-05
0.0011137336
1.7240027e-05
0.0011137787
1.7625073e-05
0.0011138228
1.802424e-05
0.0011138665
1.8440982e-05
0.0011139103
1.8876806e-05
0.0011139545
1.9329908e-05
0.0011139994
1.9797523e-05
0.0011140446
2.0274827e-05
0.0011140898
2.0757974e-05
0.0011141346
2.1246023e-05
0.0011141784
2.1738413e-05
0.0011142211
2.2237177e-05
0.0011142626
2.2746844e-05
0.0011143032
2.3271096e-05
0.001114343
2.3812746e-05
0.0011143822
2.4372393e-05
0.0011144208
2.495236e-05
0.0011144589
2.555688e-05
0.0011144971
2.6191513e-05
0.001114536
2.6862123e-05
0.001114577
2.7572952e-05
0.0011146215
2.831483e-05
0.0011146678
2.9058737e-05
0.0011147131
2.9782175e-05
0.0011147557
3.0492296e-05
0.0011147951
3.1212319e-05
0.0011148301
3.1958738e-05
0.0011148549
3.2735291e-05
0.0011148532
3.3544691e-05
0.0011147868
3.4376474e-05
0.0011145809
3.5218376e-05
0.001114104
3.6068422e-05
0.0011131933
3.6912706e-05
0.0011117075
3.7727649e-05
0.0011095828
3.8449564e-05
0.0011068529
3.9011944e-05