/*--------------------------------*- C++ -*----------------------------------*\
  =========                 |
  \\      /  F ield         | OpenFOAM: The Open Source CFD Toolbox
   \\    /   O peration     | Website:  https://openfoam.org
    \\  /    A nd           | Version:  12
     \\/     M anipulation  |
\*---------------------------------------------------------------------------*/
FoamFile
{
    format      ascii;
    class       volVectorField;
    location    "1300";
    object      U;
}
// * * * * * * * * * * * * * * * * * * * * * * * * * * * * * * * * * * * * * //

dimensions      [0 1 -1 0 0 0 0];

internalField   nonuniform List<vector> 
7480
(
(0.98683282 0.0005329023 1.0344916e-16)
(0.97532588 0.001256195 0)
(0.96256663 0.001733594 0)
(0.94882917 0.0020076518 0)
(0.93434601 0.0021845969 0)
(0.91932077 0.0023136031 0)
(0.9038308 0.0024161298 0)
(0.8879013 0.0025127315 0)
(0.8715755 0.0026181467 0)
(0.8549797 0.0027398905 0)
(0.8383075 0.0028783734 0)
(0.82183939 0.003027253 0)
(0.80595675 0.0031620201 0)
(0.79111879 0.0032332138 0)
(0.77776062 0.0031611353 0)
(0.76611206 0.0029435413 0)
(0.75619493 0.00301855 0)
(0.74786209 0.0021380497 0)
(0.74084021 0.0013527216 1.8654068e-17)
(0.73478608 0.0019404233 -7.5207972e-17)
(0.72954693 0.0011768445 -9.2007937e-17)
(0.72491578 0.00048740006 0)
(0.72065295 0.00034105355 0)
(0.71661873 9.2232393e-05 0)
(0.71274392 -2.146525e-05 0)
(0.7089839 -6.1259909e-05 0)
(0.70532341 -4.5303625e-05 0)
(0.70176059 -1.2330567e-05 0)
(0.6983001 2.4572855e-05 0)
(0.69495125 5.7419509e-05 0)
(0.69171793 8.2644659e-05 0)
(0.68859128 0.00010060265 0)
(0.68555378 0.00010984719 0)
(0.68254232 0.00011200389 0)
(0.67951472 0.00011426181 0)
(0.67646593 0.00011886792 0)
(0.67341408 0.00012387801 0)
(0.67039488 0.00012656311 0)
(0.66744486 0.00012541206 0)
(0.66458966 0.00012068475 0)
(0.66184034 0.00011370047 0)
(0.65919732 0.00010577611 0)
(0.6566551 9.7853535e-05 0)
(0.65420233 8.99532e-05 0)
(0.65182775 8.1553984e-05 0)
(0.64948231 6.9900712e-05 0)
(0.64708758 4.6654214e-05 0)
(0.64451124 -4.0745059e-06 0)
(0.64154028 -7.9938185e-05 0)
(0.63797699 -0.00014997538 0)
(0.63402953 -0.00016847072 0)
(0.63017814 -0.00015179654 0)
(0.62669664 -0.00011809754 0)
(0.62364068 -9.2053721e-05 0)
(0.62091502 -7.3392252e-05 0)
(0.61841113 -5.8142024e-05 0)
(0.61604326 -4.3681567e-05 0)
(0.61373855 -3.0363989e-05 0)
(0.61150875 -1.9153745e-05 0)
(0.60933981 -1.0093543e-05 0)
(0.60722275 -2.6361089e-06 0)
(0.60514626 3.7297228e-06 0)
(0.60310002 9.0035117e-06 0)
(0.60107699 1.3196708e-05 0)
(0.59907152 1.640643e-05 0)
(0.59707916 1.8732455e-05 0)
(0.59509803 2.0279303e-05 0)
(0.59312718 2.1181497e-05 0)
(0.59116496 2.1576345e-05 0)
(0.58920937 2.1568128e-05 0)
(0.58725854 2.1237942e-05 0)
(0.58531072 2.0643447e-05 0)
(0.58336441 1.982435e-05 0)
(0.58141825 1.8823408e-05 0)
(0.57947079 1.7673565e-05 0)
(0.57752069 1.6401193e-05 0)
(0.57556661 1.5127405e-05 0)
(0.57360715 1.395692e-05 0)
(0.57164113 1.2831986e-05 0)
(0.5696673 1.1711628e-05 0)
(0.56768465 1.056657e-05 0)
(0.56569288 9.3906323e-06 0)
(0.56369302 8.173774e-06 0)
(0.56170037 7.2565075e-06 0)
(0.5598671 1.7926395e-05 0)
(0.55934253 0.00027241502 0)
(0.57008879 0.00038258687 0)
(0.57556386 0.00035067529 0)
(0.57885813 0.00029533923 0)
(0.5800978 0.00023251838 0)
(0.58027319 0.00018250205 0)
(0.57985562 0.00014385341 0)
(0.57910509 0.00011360851 0)
(0.57815087 9.0208806e-05 0)
(0.57707201 7.2859954e-05 0)
(0.57589824 6.0354057e-05 0)
(0.5746975 5.1775363e-05 0)
(0.57335778 8.2353155e-05 6.8628313e-20)
(0.5722102 3.794706e-05 -1.4905931e-19)
(0.56992399 5.9847391e-05 -1.0537844e-17)
(0.99589768 0.0022871143 0)
(0.99632278 0.0034464537 0)
(0.99686968 0.0040224749 0)
(0.9971425 0.0040895585 0)
(0.99714817 0.0041216998 0)
(0.99700256 0.0041178675 0)
(0.99673864 0.0040964414 0)
(0.9963163 0.004050499 0)
(0.99568251 0.0039750454 0)
(0.99474308 0.0038567155 0)
(0.99337107 0.0036785279 0)
(0.99139101 0.0034261939 0)
(0.98857418 0.0030922615 0)
(0.98466227 0.0026897542 0)
(0.97943809 0.0022659228 0)
(0.97282712 0.0018632627 0)
(0.96490707 0.0015678879 0)
(0.95587055 0.0014649506 0)
(0.94595501 0.0013119332 0)
(0.9354497 0.0011784921 0)
(0.92459014 0.0011991717 0)
(0.91371713 0.0011424712 0)
(0.90310313 0.0010621448 0)
(0.89293758 0.0010495052 0)
(0.88333261 0.0010069675 0)
(0.87434502 0.00093644083 0)
(0.86599545 0.00085014551 0)
(0.85826522 0.00076710925 0)
(0.85109912 0.00069274099 0)
(0.84441736 0.00062851603 0)
(0.8381346 0.00057619552 0)
(0.832175 0.00053640986 0)
(0.8264659 0.00050965269 0)
(0.82098698 0.0004933621 0)
(0.81573043 0.00048045358 0)
(0.81068402 0.00046560032 0)
(0.80582965 0.00044722719 0)
(0.8011445 0.0004258371 0)
(0.79660471 0.00040245262 0)
(0.79219417 0.00037846321 0)
(0.78790471 0.0003552221 0)
(0.78373371 0.00033346174 0)
(0.7796796 0.00031354423 0)
(0.7757397 0.00029557832 0)
(0.77191146 0.00028043914 0)
(0.76820375 0.00027063192 0)
(0.76463759 0.00027019328 0)
(0.76125968 0.00028401257 0)
(0.75816001 0.00031081169 0)
(0.75540738 0.00033360236 0)
(0.75283682 0.0003313888 0)
(0.7501794 0.00030550615 0)
(0.74733247 0.00026867675 0)
(0.74432555 0.00023575695 0)
(0.74125099 0.00021151521 0)
(0.73818021 0.00019507938 0)
(0.73514598 0.00018393541 0)
(0.73215489 0.00017478706 0)
(0.72921409 0.00016576073 0)
(0.72632763 0.00015736844 0)
(0.72349667 0.00014967039 0)
(0.72071945 0.00014270148 0)
(0.7179931 0.00013635659 0)
(0.71531513 0.00013055626 0)
(0.7126825 0.00012526985 0)
(0.71009226 0.0001203895 0)
(0.70754317 0.00011579698 0)
(0.70503419 0.00011147214 0)
(0.70256384 0.0001074214 0)
(0.70013053 0.00010362628 0)
(0.69773281 0.00010007317 0)
(0.69536922 9.6740928e-05 0)
(0.69303849 9.3601317e-05 0)
(0.69073947 9.0649453e-05 0)
(0.68847101 8.7870919e-05 0)
(0.68623206 8.5249817e-05 0)
(0.68402163 8.2776334e-05 0)
(0.68183864 8.0411811e-05 0)
(0.67968224 7.814443e-05 0)
(0.67755141 7.6000363e-05 0)
(0.67544515 7.3946877e-05 0)
(0.67336292 7.1963446e-05 0)
(0.67130382 6.9922599e-05 0)
(0.66926839 6.6450112e-05 0)
(0.66725505 4.3743403e-05 0)
(0.66499977 -0.00013181822 0)
(0.66050484 -0.00016574158 0)
(0.65866658 -8.6236067e-05 0)
(0.65725435 -4.4112506e-05 0)
(0.65594665 -9.8358361e-06 0)
(0.65452019 8.7710456e-06 0)
(0.6529737 1.8642237e-05 0)
(0.65135123 2.3676472e-05 0)
(0.64968641 2.6488414e-05 0)
(0.64800454 2.815005e-05 0)
(0.64630135 2.870623e-05 0)
(0.64462636 2.9137599e-05 0)
(0.64283842 3.1353492e-05 0)
(0.64130832 3.1353501e-05 0)
(0.6385019 3.3653299e-05 0)
(0.99617321 0.0021847854 0)
(0.9965409 0.0028425225 0)
(0.99711239 0.0030009724 0)
(0.99757807 0.0029794092 0)
(0.99788966 0.0029839002 0)
(0.99814091 0.0030079339 0)
(0.99837987 0.0030360593 0)
(0.99860545 0.0030649697 0)
(0.99881365 0.0030961786 0)
(0.99900731 0.0031280997 0)
(0.99918914 0.0031568171 0)
(0.99935398 0.0031795856 0)
(0.99948606 0.0031939343 0)
(0.99956078 0.0032003191 0)
(0.99954367 0.0032055244 0)
(0.99939049 0.0032107888 0)
(0.99905097 0.0032001608 0)
(0.99845728 0.0031573038 0)
(0.99752727 0.0031147965 0)
(0.99618708 0.0030204672 0)
(0.99428376 0.0029041659 0)
(0.99162334 0.0028026853 0)
(0.98812207 0.0026908702 0)
(0.98372113 0.0025557891 0)
(0.97840879 0.0024132457 0)
(0.97222804 0.0022741281 0)
(0.9652449 0.0021274084 0)
(0.95766623 0.0019662142 0)
(0.94969581 0.0018062785 0)
(0.9415345 0.0016521146 0)
(0.93337213 0.0015055568 0)
(0.92536526 0.0013680399 0)
(0.91763187 0.001245908 0)
(0.91024031 0.0011445047 0)
(0.90320819 0.0010605612 0)
(0.8965141 0.00098966706 0)
(0.89011703 0.00092868058 0)
(0.88396896 0.00087506511 0)
(0.8780297 0.0008263971 0)
(0.87227271 0.00078064387 0)
(0.86668261 0.00073665962 0)
(0.86125099 0.00069435408 0)
(0.85596855 0.0006542211 0)
(0.85082651 0.000616332 0)
(0.84582127 0.00058145515 0)
(0.84096485 0.00055121031 0)
(0.83627259 0.00052720932 0)
(0.83176777 0.0005125303 0)
(0.82748566 0.00050545275 0)
(0.82345114 0.00049976259 0)
(0.81961895 0.00048430772 0)
(0.8158932 0.00045903503 0)
(0.81220077 0.00042979392 0)
(0.80850589 0.00040161695 0)
(0.80481212 0.00037633642 0)
(0.80113981 0.00035419325 0)
(0.79750799 0.00033561117 0)
(0.79392943 0.00031892518 0)
(0.79041276 0.0003028262 0)
(0.78696125 0.00028782712 0)
(0.78357492 0.00027387164 0)
(0.78025352 0.00026099751 0)
(0.77699644 0.0002491222 0)
(0.7738029 0.00023811633 0)
(0.77067055 0.00022790779 0)
(0.76759717 0.00021831089 0)
(0.76458194 0.00020917665 0)
(0.76162312 0.00020049922 0)
(0.75871878 0.00019228216 0)
(0.75586717 0.00018449218 0)
(0.75306681 0.00017710994 0)
(0.75031619 0.00017010722 0)
(0.74761386 0.00016344404 0)
(0.74495852 0.00015711186 0)
(0.74234883 0.00015108769 0)
(0.73978361 0.00014534701 0)
(0.73726171 0.00013986123 0)
(0.73478194 0.00013459556 0)
(0.73234328 0.0001295628 0)
(0.72994457 0.00012477334 0)
(0.72758466 0.0001201742 0)
(0.72526273 0.00011575223 0)
(0.72297732 0.00011150507 0)
(0.72072471 0.00010623701 0)
(0.71847369 9.0607493e-05 0)
(0.71585885 7.6273968e-06 0)
(0.71115423 -5.1215935e-05 0)
(0.70800879 -2.1943628e-05 0)
(0.70546222 1.0360581e-05 0)
(0.70329911 3.5977098e-05 0)
(0.70124399 5.0141432e-05 0)
(0.69921089 5.7000782e-05 0)
(0.69718098 5.9750554e-05 0)
(0.69515653 6.0268913e-05 0)
(0.69314697 5.9578548e-05 0)
(0.69113882 5.8011488e-05 0)
(0.68917664 5.7281953e-05 0)
(0.68710873 5.536894e-05 0)
(0.68533678 6.0301002e-05 0)
(0.68216215 5.4885345e-05 4.0183324e-20)
(0.99636938 0.0020428788 0)
(0.99666469 0.0026450514 0)
(0.99717666 0.0029790284 0)
(0.99763003 0.0031498491 0)
(0.99794942 0.0032870486 0)
(0.99820797 0.0034022744 0)
(0.99845406 0.0034847578 0)
(0.9986905 0.0035400076 0)
(0.99891398 0.0035747261 0)
(0.9991285 0.0035932824 0)
(0.9993389 0.0035832681 0)
(0.99954568 0.0035478004 0)
(0.99974244 0.003478527 0)
(0.99991929 0.0033747155 0)
(1.0000656 0.0032371515 0)
(1.000175 0.0030775034 0)
(1.000249 0.0029121493 0)
(1.0002894 0.0027526168 0)
(1.0003014 0.0026230454 0)
(1.0002989 0.0025386733 0)
(1.0002748 0.0024729958 0)
(1.000211 0.0024350941 0)
(1.0000902 0.0024159607 0)
(0.99987483 0.0024019901 0)
(0.99951254 0.0023924136 0)
(0.99893123 0.0023811641 0)
(0.99804996 0.0023656935 0)
(0.99669369 0.0023439728 0)
(0.99472373 0.0023119367 0)
(0.99202932 0.002267593 0)
(0.98853281 0.0022118522 0)
(0.98420801 0.0021498059 0)
(0.97907824 0.0020734603 0)
(0.97329173 0.0019767019 0)
(0.96701467 0.0018688758 0)
(0.96042445 0.0017547646 0)
(0.95368852 0.0016380419 0)
(0.94694662 0.0015231971 0)
(0.9403006 0.0014167426 0)
(0.93380522 0.0013217483 0)
(0.92747561 0.0012371053 0)
(0.92130258 0.0011617234 0)
(0.91527029 0.0010945873 0)
(0.90936846 0.0010339785 0)
(0.90359349 0.00097813529 0)
(0.89795072 0.00092618686 0)
(0.89245147 0.00087880735 0)
(0.8871104 0.0008371355 0)
(0.88194119 0.0008028188 0)
(0.87695133 0.00077323879 0)
(0.87213115 0.00074261653 0)
(0.86745248 0.0007080728 0)
(0.86288733 0.00067124677 0)
(0.85841129 0.00063467997 0)
(0.85400953 0.00059999007 0)
(0.8496777 0.0005678862 0)
(0.84541894 0.00053908862 0)
(0.84123743 0.00051239956 0)
(0.83713424 0.00048665774 0)
(0.83310891 0.00046233651 0)
(0.82916162 0.00043960664 0)
(0.82529238 0.00041853581 0)
(0.82150039 0.00039887025 0)
(0.81778466 0.00038045142 0)
(0.81414281 0.00036322455 0)
(0.81057297 0.00034696027 0)
(0.80707412 0.00033149655 0)
(0.80364365 0.00031683901 0)
(0.80027932 0.00030296836 0)
(0.79697924 0.00028982126 0)
(0.79374175 0.00027736246 0)
(0.7905651 0.00026554915 0)
(0.7874476 0.00025432282 0)
(0.78438768 0.00024366439 0)
(0.78138373 0.00023353634 0)
(0.77843429 0.00022389953 0)
(0.77553797 0.00021475027 0)
(0.77269331 0.00020605236 0)
(0.76989906 0.00019776981 0)
(0.76715384 0.00018990419 0)
(0.76445629 0.00018237974 0)
(0.76180541 0.00017517574 0)
(0.75919963 0.00016829754 0)
(0.75663558 0.00016097634 0)
(0.75408998 0.0001463462 0)
(0.75134329 7.6635225e-05 0)
(0.74758609 1.8609675e-05 0)
(0.7444051 3.3622473e-05 0)
(0.74158749 5.5252061e-05 0)
(0.7390744 7.5179726e-05 0)
(0.73669856 8.712794e-05 0)
(0.73438045 9.3080633e-05 0)
(0.7320893 9.5116558e-05 0)
(0.7298178 9.4622605e-05 0)
(0.72757072 9.2929863e-05 0)
(0.7253326 9.044686e-05 0)
(0.72314708 8.944143e-05 0)
(0.72085854 8.6146743e-05 0)
(0.7188934 9.6074705e-05 0)
(0.71540581 8.1700017e-05 -3.3225438e-20)
(0.99655568 0.0019822319 0)
(0.99680338 0.0025641774 0)
(0.99724922 0.0029217892 0)
(0.99766149 0.0030775098 0)
(0.99796298 0.0031644586 0)
(0.99820928 0.0032260275 0)
(0.9984459 0.0032635098 0)
(0.99867665 0.0032824096 0)
(0.99889717 0.0032906553 0)
(0.99910997 0.0032876732 0)
(0.99931944 0.0032730976 0)
(0.99952575 0.003239575 0)
(0.9997231 0.0031828408 0)
(0.99990317 0.0031031978 0)
(1.0000571 0.0030068656 0)
(1.0001781 0.0029050498 0)
(1.0002673 0.0028122973 0)
(1.0003283 0.0027345745 0)
(1.0003691 0.0026815073 0)
(1.0004055 0.0026509101 0)
(1.0004392 0.0026230849 0)
(1.0004688 0.0026014615 0)
(1.0005 0.0025810381 0)
(1.0005314 0.0025593367 0)
(1.0005608 0.0025375165 0)
(1.0005855 0.0025149332 0)
(1.0006002 0.0024918802 0)
(1.0005945 0.002467888 0)
(1.0005521 0.0024431518 0)
(1.000447 0.0024179953 0)
(1.0002387 0.0023922943 0)
(0.99986507 0.0023645217 0)
(0.99925261 0.0023346023 0)
(0.99824932 0.0023026145 0)
(0.99671993 0.0022654627 0)
(0.99454709 0.0022205541 0)
(0.99165005 0.0021677268 0)
(0.98799375 0.0021052429 0)
(0.98362059 0.0020259138 0)
(0.97865545 0.0019314695 0)
(0.97324739 0.0018300986 0)
(0.96754974 0.0017254411 0)
(0.96170111 0.0016217164 0)
(0.95580906 0.0015243335 0)
(0.94993612 0.0014355607 0)
(0.94410973 0.0013551552 0)
(0.9383427 0.0012831292 0)
(0.93264785 0.0012195092 0)
(0.92704262 0.0011637974 0)
(0.92154444 0.0011133738 0)
(0.91616255 0.0010638996 0)
(0.91089564 0.0010127607 0)
(0.90573685 0.00096097346 0)
(0.90067818 0.00091071363 0)
(0.89571336 0.0008633365 0)
(0.89083832 0.00081920553 0)
(0.88605319 0.00077867256 0)
(0.88135773 0.00074051258 0)
(0.87674829 0.00070370392 0)
(0.87222263 0.00066877498 0)
(0.86778163 0.00063586006 0)
(0.86342586 0.00060502369 0)
(0.85915469 0.00057604781 0)
(0.85496704 0.00054878942 0)
(0.85086171 0.00052319897 0)
(0.846837 0.00049902147 0)
(0.84289082 0.00047606121 0)
(0.83902124 0.00045431153 0)
(0.83522631 0.00043373386 0)
(0.83150422 0.00041423228 0)
(0.82785325 0.00039575216 0)
(0.82427163 0.00037823344 0)
(0.82075762 0.00036159688 0)
(0.81730956 0.0003458102 0)
(0.81392574 0.00033081906 0)
(0.8106046 0.00031656733 0)
(0.80734461 0.00030303738 0)
(0.80414417 0.00029017628 0)
(0.80100191 0.00027794056 0)
(0.79791631 0.00026632731 0)
(0.79488588 0.0002552402 0)
(0.79190952 0.00024465421 0)
(0.78898565 0.00023462024 0)
(0.78611184 0.00022461715 0)
(0.78327389 0.00020882451 0)
(0.78035389 0.00014574766 0)
(0.77700222 9.1656542e-05 0)
(0.77385457 9.5520065e-05 0)
(0.77091233 0.00010934341 0)
(0.76817846 0.00012377204 0)
(0.76556703 0.00013265661 0)
(0.76302018 0.00013656557 0)
(0.76050902 0.00013684951 0)
(0.75802313 0.00013489605 0)
(0.75556546 0.00013200695 0)
(0.75312022 0.00012801511 0)
(0.7507311 0.00012624071 0)
(0.74824022 0.00012084353 4.9924291e-20)
(0.74609721 0.0001367071 0)
(0.74231362 0.00011087845 0)
(0.99672898 0.0019374374 0)
(0.9969366 0.0024695968 0)
(0.99732024 0.0028117582 0)
(0.99769428 0.0029725086 0)
(0.99798448 0.0030716037 0)
(0.99822684 0.0031569001 0)
(0.9984596 0.0032253975 0)
(0.99868706 0.0032756163 0)
(0.99890432 0.0033102314 0)
(0.99911342 0.0033371022 0)
(0.99931822 0.0033349616 0)
(0.99951847 0.003317836 0)
(0.99970955 0.0032743081 0)
(0.99988392 0.003205788 0)
(1.0000334 0.0031171225 0)
(1.0001527 0.0030173577 0)
(1.0002426 0.002917775 0)
(1.0003058 0.0028232234 0)
(1.0003499 0.0027435138 0)
(1.0003888 0.0026790002 0)
(1.0004254 0.002618172 0)
(1.0004595 0.0025686239 0)
(1.000496 0.0025282151 0)
(1.0005347 0.0024934589 0)
(1.0005746 0.0024640394 0)
(1.0006158 0.0024379074 0)
(1.0006575 0.002413832 0)
(1.0006986 0.0023904763 0)
(1.0007376 0.0023684687 0)
(1.0007741 0.0023481118 0)
(1.000807 0.0023295523 0)
(1.0008344 0.0023136956 0)
(1.0008529 0.0023010633 0)
(1.0008549 0.0022907124 0)
(1.0008255 0.0022809084 0)
(1.0007373 0.0022695797 0)
(1.0005451 0.0022548862 0)
(1.0001845 0.0022351882 0)
(0.99954897 0.002210626 0)
(0.99849231 0.0021807852 0)
(0.99688383 0.0021438645 0)
(0.99462295 0.0021000529 0)
(0.99165152 0.002047608 0)
(0.98799141 0.0019807947 0)
(0.9837441 0.001901307 0)
(0.97904015 0.0018152865 0)
(0.97401829 0.0017258799 0)
(0.96880418 0.001638874 0)
(0.96349375 0.0015596146 0)
(0.9581476 0.0014871898 0)
(0.9527965 0.0014183209 0)
(0.94745703 0.0013505894 0)
(0.94214216 0.001284164 0)
(0.93686611 0.0012202231 0)
(0.93164192 0.0011596076 0)
(0.9264778 0.0011024818 0)
(0.92138002 0.0010490947 0)
(0.91635317 0.00099844 0)
(0.91139892 0.00094967282 0)
(0.90651806 0.00090322738 0)
(0.90171256 0.00085916906 0)
(0.89698464 0.00081760292 0)
(0.89233589 0.00077834738 0)
(0.88776708 0.0007412646 0)
(0.88327937 0.00070630862 0)
(0.8788724 0.00067322458 0)
(0.87454433 0.00064180915 0)
(0.87029464 0.00061203147 0)
(0.86612243 0.00058382265 0)
(0.8620266 0.00055706484 0)
(0.85800598 0.00053169023 0)
(0.85405925 0.00050762274 0)
(0.85018505 0.00048476268 0)
(0.84638205 0.00046306488 0)
(0.84264879 0.00044245822 0)
(0.83898387 0.00042286934 0)
(0.83538592 0.000404268 0)
(0.83185346 0.00038658454 0)
(0.82838516 0.0003697647 0)
(0.82497957 0.0003537995 0)
(0.82163524 0.00033857095 0)
(0.81835108 0.00032404775 0)
(0.81512559 0.00031031139 0)
(0.8119572 0.00029698352 0)
(0.80883758 0.00027880546 0)
(0.8057034 0.00021892692 0)
(0.80240506 0.00016525713 0)
(0.79919159 0.00016179278 0)
(0.79610282 0.00016937856 0)
(0.79315929 0.00017887266 0)
(0.79032149 0.00018437068 0)
(0.78755092 0.00018584378 0)
(0.7848234 0.00018418529 0)
(0.78212713 0.00018042482 0)
(0.77946336 0.00017584812 0)
(0.77681573 0.00017005829 0)
(0.77422779 0.00016734143 0)
(0.77153931 0.00015927508 0)
(0.76922275 0.00018211752 3.5545681e-20)
(0.76514878 0.00014270773 0)
(0.9968891 0.0018995637 0)
(0.99706442 0.0023817378 0)
(0.99739506 0.0027143076 0)
(0.99773445 0.0028930136 0)
(0.99801255 0.0030081281 0)
(0.99824897 0.0031032795 0)
(0.99847508 0.003175954 0)
(0.99869653 0.003223946 0)
(0.99890871 0.0032530434 0)
(0.99911334 0.003265532 0)
(0.9993137 0.0032613517 0)
(0.99950879 0.0032362363 0)
(0.99969489 0.0031879287 0)
(0.99986516 0.003117287 0)
(1.0000121 0.0030285826 0)
(1.0001309 0.00293035 0)
(1.000222 0.0028331341 0)
(1.0002879 0.0027428681 0)
(1.0003355 0.0026694305 0)
(1.0003771 0.0026138922 0)
(1.0004156 0.0025669753 0)
(1.0004517 0.0025325772 0)
(1.0004895 0.002506816 0)
(1.0005289 0.0024850779 0)
(1.0005695 0.0024661279 0)
(1.0006115 0.0024480863 0)
(1.0006543 0.0024299017 0)
(1.000697 0.0024107926 0)
(1.0007389 0.0023914597 0)
(1.0007796 0.0023721954 0)
(1.0008188 0.002353296 0)
(1.0008568 0.0023356394 0)
(1.0008944 0.0023192096 0)
(1.000932 0.0023032979 0)
(1.0009694 0.002287516 0)
(1.0010063 0.0022712644 0)
(1.0010408 0.0022544275 0)
(1.0010699 0.002237657 0)
(1.0010869 0.0022213004 0)
(1.0010797 0.0022050464 0)
(1.001025 0.0021884108 0)
(1.0008824 0.0021704191 0)
(1.0005912 0.0021500015 0)
(1.000045 0.0021270029 0)
(0.99910013 0.0021004907 0)
(0.99762439 0.0020685867 0)
(0.99551838 0.0020318767 0)
(0.99272721 0.0019852118 0)
(0.98930854 0.0019259475 0)
(0.98536544 0.0018587952 0)
(0.98102504 0.0017834399 0)
(0.97641114 0.0017023448 0)
(0.97162188 0.0016213303 0)
(0.96672197 0.0015436161 0)
(0.96174957 0.0014705675 0)
(0.95672982 0.0014022019 0)
(0.95168623 0.001338012 0)
(0.94664163 0.0012764613 0)
(0.94161352 0.0012167212 0)
(0.93661345 0.001159303 0)
(0.93165028 0.001104351 0)
(0.9267321 0.0010520755 0)
(0.92186618 0.0010023722 0)
(0.91705814 0.0009551285 0)
(0.91231297 0.00091034317 0)
(0.90763412 0.00086782522 0)
(0.90302319 0.00082737639 0)
(0.89848184 0.00078893847 0)
(0.89401127 0.00075243827 0)
(0.88961228 0.00071774886 0)
(0.88528535 0.00068479783 0)
(0.88103048 0.00065349973 0)
(0.87684747 0.00062373951 0)
(0.87273594 0.00059546348 0)
(0.86869526 0.0005685871 0)
(0.86472473 0.00054302229 0)
(0.86082355 0.00051872989 0)
(0.85699073 0.00049562555 0)
(0.85322537 0.00047364298 0)
(0.84952635 0.00045276724 0)
(0.84589252 0.00043285845 0)
(0.84232305 0.00041387824 0)
(0.83881668 0.00039592625 0)
(0.83537257 0.00037870247 0)
(0.83198582 0.00035714994 0)
(0.82861997 0.00029704061 0)
(0.82521049 0.00024190039 0)
(0.82185596 0.00023335968 0)
(0.81858927 0.00023583362 0)
(0.8154312 0.00024074986 0)
(0.81236631 0.00024262228 0)
(0.80937076 0.00024124386 0)
(0.80642565 0.00023722442 0)
(0.80351889 0.00023130864 0)
(0.80065009 0.00022476655 0)
(0.79780198 0.00021692508 0)
(0.79501758 0.00021307803 0)
(0.79213407 0.00020189256 0)
(0.78964631 0.00023269254 3.4331795e-20)
(0.78528603 0.00017763903 0)
(0.99703742 0.001868403 0)
(0.99718726 0.0023054919 0)
(0.99747281 0.0026268426 0)
(0.99777919 0.002816311 0)
(0.99804294 0.0029391774 0)
(0.99827194 0.0030370786 0)
(0.99849108 0.0031124591 0)
(0.99870658 0.0031642357 0)
(0.99891451 0.003197349 0)
(0.99911537 0.0032164229 0)
(0.9993115 0.0032179039 0)
(0.99950209 0.0032000364 0)
(0.99968373 0.0031606249 0)
(0.99985024 0.0031000309 0)
(0.99999488 0.0030220649 0)
(1.0001132 0.0029344706 0)
(1.0002055 0.0028465872 0)
(1.0002738 0.0027642862 0)
(1.0003247 0.002696066 0)
(1.0003685 0.0026424821 0)
(1.0004086 0.0025958183 0)
(1.0004461 0.002558546 0)
(1.0004845 0.0025276432 0)
(1.0005242 0.0024997696 0)
(1.0005649 0.0024744659 0)
(1.0006068 0.0024505122 0)
(1.0006494 0.0024272032 0)
(1.0006919 0.0024039945 0)
(1.0007335 0.0023813838 0)
(1.000774 0.0023596561 0)
(1.0008135 0.0023390917 0)
(1.0008522 0.0023203308 0)
(1.0008908 0.0023033127 0)
(1.0009301 0.0022875441 0)
(1.0009704 0.0022726742 0)
(1.0010114 0.0022578638 0)
(1.0010525 0.0022426219 0)
(1.0010928 0.0022268831 0)
(1.0011321 0.002210328 0)
(1.0011695 0.0021930887 0)
(1.0012044 0.0021758309 0)
(1.0012359 0.0021591944 0)
(1.0012621 0.0021438945 0)
(1.0012769 0.0021300803 0)
(1.0012674 0.0021172035 0)
(1.0012078 0.0021044771 0)
(1.0010504 0.0020905878 0)
(1.0007272 0.0020757733 0)
(1.0000992 0.0020600876 0)
(0.99902676 0.0020402086 0)
(0.99738983 0.002012812 0)
(0.9951068 0.0019721202 0)
(0.99219536 0.0019156004 0)
(0.98874026 0.0018484723 0)
(0.98485865 0.0017749332 0)
(0.98066938 0.0016995616 0)
(0.97626801 0.0016267148 0)
(0.9717177 0.0015563925 0)
(0.96705693 0.0014883258 0)
(0.96231433 0.0014229022 0)
(0.9575172 0.0013597963 0)
(0.95269042 0.0012989349 0)
(0.9478537 0.0012403194 0)
(0.94302202 0.0011839715 0)
(0.93820811 0.0011300387 0)
(0.93342296 0.0010784717 0)
(0.92867502 0.0010291439 0)
(0.92397097 0.00098203952 0)
(0.91931626 0.00093711622 0)
(0.91471546 0.00089426225 0)
(0.91017227 0.00085342422 0)
(0.90568947 0.00081452644 0)
(0.90126921 0.00077745332 0)
(0.89691314 0.00074215492 0)
(0.89262235 0.00070854281 0)
(0.88839764 0.00067652205 0)
(0.88423946 0.00064605139 0)
(0.88014794 0.00061703685 0)
(0.87612311 0.00058940394 0)
(0.87216465 0.00056313516 0)
(0.86827211 0.00053807093 0)
(0.86444526 0.00051416756 0)
(0.86068338 0.00049153746 0)
(0.8569864 0.00046992404 0)
(0.85335152 0.00044427515 0)
(0.84975513 0.00038184411 0)
(0.84616933 0.00032421375 0)
(0.84263636 0.00031136593 0)
(0.83917617 0.00030929595 0)
(0.83580412 0.00030982284 0)
(0.83251604 0.00030787189 0)
(0.82929847 0.00030325273 0)
(0.82613773 0.00029644177 0)
(0.82302247 0.00028799098 0)
(0.81995114 0.00027916767 0)
(0.81690548 0.0002689802 0)
(0.81392788 0.00026378136 0)
(0.81085259 0.00024903998 -2.0649109e-20)
(0.80819649 0.00028873195 0)
(0.80355482 0.00021596957 1.0817775e-20)
(0.99717524 0.0018416032 0)
(0.99730485 0.0022381494 0)
(0.997552 0.0025452741 0)
(0.99782744 0.0027403697 0)
(0.99807592 0.0028700373 0)
(0.99829705 0.0029723759 0)
(0.9985093 0.0030529527 0)
(0.99871865 0.003110278 0)
(0.99892184 0.0031479299 0)
(0.99911831 0.0031698483 0)
(0.99930974 0.0031734895 0)
(0.99949553 0.0031578006 0)
(0.99967246 0.0031210882 0)
(0.999835 0.0030638685 0)
(0.99997712 0.0029898689 0)
(1.0000948 0.0029062398 0)
(1.000188 0.0028214056 0)
(1.0002586 0.0027412719 0)
(1.0003124 0.0026734723 0)
(1.0003586 0.0026188036 0)
(1.0004005 0.0025715612 0)
(1.0004396 0.0025336352 0)
(1.0004792 0.0025026876 0)
(1.0005198 0.0024758699 0)
(1.0005611 0.002452448 0)
(1.0006035 0.0024309711 0)
(1.0006463 0.002410465 0)
(1.0006889 0.0023902032 0)
(1.0007307 0.0023703805 0)
(1.0007713 0.0023512137 0)
(1.0008109 0.0023329135 0)
(1.0008498 0.0023159825 0)
(1.0008884 0.0023004237 0)
(1.0009275 0.002285811 0)
(1.0009673 0.0022717156 0)
(1.0010079 0.0022573305 0)
(1.0010488 0.0022421818 0)
(1.0010895 0.0022262265 0)
(1.0011296 0.0022093806 0)
(1.0011689 0.0021920384 0)
(1.001207 0.002174856 0)
(1.001244 0.0021582058 0)
(1.0012797 0.0021422987 0)
(1.0013143 0.0021269195 0)
(1.0013476 0.0021121048 0)
(1.0013788 0.0020982518 0)
(1.001407 0.0020860865 0)
(1.0014296 0.0020765277 0)
(1.0014387 0.0020696387 0)
(1.0014158 0.0020634871 0)
(1.0013209 0.0020540639 0)
(1.0010888 0.0020389589 0)
(1.0005909 0.0020186398 0)
(0.99968061 0.0019932335 0)
(0.99823138 0.0019632092 0)
(0.99615775 0.0019240723 0)
(0.99348212 0.0018730048 0)
(0.99028504 0.0018128287 0)
(0.98667748 0.0017457764 0)
(0.98276726 0.0016765761 0)
(0.97863624 0.0016084439 0)
(0.97433712 0.0015422466 0)
(0.969906 0.0014782315 0)
(0.9653748 0.0014161214 0)
(0.96077371 0.0013557813 0)
(0.95612818 0.0012972528 0)
(0.95145794 0.0012405843 0)
(0.94677904 0.0011859286 0)
(0.94210518 0.0011333678 0)
(0.93744791 0.0010828749 0)
(0.93281665 0.001034471 0)
(0.92821915 0.00098813198 0)
(0.9236619 0.00094377526 0)
(0.91915022 0.00090138246 0)
(0.91468833 0.00086088225 0)
(0.91027974 0.00082219007 0)
(0.90592726 0.00078527684 0)
(0.90163301 0.00075005004 0)
(0.89739874 0.00071643659 0)
(0.89322566 0.0006844246 0)
(0.88911461 0.00065384067 0)
(0.88506646 0.00062464117 0)
(0.88108151 0.00059695186 0)
(0.87716068 0.00057054182 0)
(0.87330281 0.00054028174 0)
(0.86949063 0.00047441544 0)
(0.86571251 0.00041350667 0)
(0.86199102 0.00039636205 0)
(0.85833687 0.00038990688 0)
(0.85475925 0.00038610445 0)
(0.85125834 0.00038016593 0)
(0.84782751 0.00037198407 0)
(0.84445789 0.00036200512 0)
(0.84113971 0.00035065987 0)
(0.83787102 0.00033923598 0)
(0.83463284 0.00032640605 0)
(0.83146696 0.00031963498 0)
(0.82820461 0.00030089714 0)
(0.82538416 0.00035043818 3.4096148e-20)
(0.82046756 0.00025787368 0)
(0.99730381 0.0018182041 0)
(0.99741719 0.0021785405 0)
(0.9976318 0.0024698728 0)
(0.99787885 0.0026673973 0)
(0.99811167 0.0028030685 0)
(0.99832431 0.002909503 0)
(0.99852933 0.0029939648 0)
(0.99873208 0.0030551612 0)
(0.99892993 0.0030958039 0)
(0.9991217 0.0031196378 0)
(0.9993084 0.0031257227 0)
(0.99948946 0.0031130909 0)
(0.99966186 0.0030805526 0)
(0.99982062 0.0030287769 0)
(0.99996033 0.0029612387 0)
(1.0000773 0.0028843729 0)
(1.0001713 0.0028057067 0)
(1.000244 0.0027309988 0)
(1.0003006 0.002667043 0)
(1.0003491 0.0026147895 0)
(1.0003928 0.0025699493 0)
(1.0004336 0.0025336732 0)
(1.0004743 0.0025038407 0)
(1.0005156 0.0024778312 0)
(1.0005574 0.002454732 0)
(1.0006 0.0024331621 0)
(1.000643 0.0024122452 0)
(1.0006857 0.0023914064 0)
(1.0007276 0.002370847 0)
(1.0007684 0.0023508731 0)
(1.0008082 0.0023317459 0)
(1.0008473 0.0023139362 0)
(1.0008861 0.0022975106 0)
(1.0009254 0.0022820902 0)
(1.0009652 0.0022672476 0)
(1.0010057 0.002252285 0)
(1.0010465 0.002236771 0)
(1.001087 0.0022206721 0)
(1.001127 0.0022039538 0)
(1.0011659 0.0021869167 0)
(1.0012037 0.002170049 0)
(1.0012405 0.0021536327 0)
(1.0012766 0.0021378401 0)
(1.0013122 0.0021225893 0)
(1.0013473 0.0021080671 0)
(1.001382 0.002094625 0)
(1.0014162 0.0020826448 0)
(1.0014501 0.0020724022 0)
(1.001485 0.0020639803 0)
(1.0015212 0.0020565284 0)
(1.001558 0.0020479005 0)
(1.0015911 0.002036997 0)
(1.0016107 0.0020245785 0)
(1.0015974 0.0020114964 0)
(1.0015118 0.0019973456 0)
(1.0012895 0.0019817082 0)
(1.0007952 0.0019640707 0)
(0.99988305 0.0019419307 0)
(0.99842717 0.0019130093 0)
(0.99636418 0.0018733814 0)
(0.99373474 0.0018222799 0)
(0.99062816 0.0017631743 0)
(0.9871514 0.0016998367 0)
(0.98339643 0.0016359913 0)
(0.97942652 0.0015729044 0)
(0.97528436 0.0015111498 0)
(0.97100582 0.0014506822 0)
(0.96662469 0.0013914775 0)
(0.96216986 0.0013336535 0)
(0.95766437 0.0012773491 0)
(0.95312732 0.0012227665 0)
(0.94857514 0.0011700211 0)
(0.94402167 0.0011191348 0)
(0.9394784 0.001070179 0)
(0.93495489 0.0010231425 0)
(0.93045925 0.00097798624 0)
(0.92599822 0.00093472273 0)
(0.9215773 0.0008932823 0)
(0.9172012 0.00085361181 0)
(0.91287363 0.00081572074 0)
(0.90859763 0.00077943349 0)
(0.90437595 0.00074471725 0)
(0.90021056 0.00071171762 0)
(0.8961039 0.0006802229 0)
(0.8920565 0.00064500531 0)
(0.88805478 0.00057508876 0)
(0.88409475 0.00051030421 0)
(0.88019345 0.00048863069 0)
(0.87635691 0.00047773995 0)
(0.87258947 0.00046957265 0)
(0.86889221 0.00045949709 0)
(0.86526265 0.00044748697 0)
(0.861696 0.00043401445 0)
(0.85818469 0.00041944346 0)
(0.85472713 0.00040511112 0)
(0.85130411 0.00038934917 0)
(0.84795708 0.00038079107 0)
(0.84451427 0.00035760896 0)
(0.84153505 0.00041781051 0)
(0.83635194 0.00030350169 0)
(0.9974242 0.0017973479 0)
(0.99752443 0.0021254669 0)
(0.99771152 0.0024003684 0)
(0.99793286 0.0025975621 0)
(0.99814993 0.0027376698 0)
(0.99835347 0.0028473064 0)
(0.99855099 0.0029347048 0)
(0.99874686 0.0029992931 0)
(0.99893905 0.003043121 0)
(0.99912594 0.0030696146 0)
(0.99930787 0.0030787468 0)
(0.99948419 0.0030695595 0)
(0.99965209 0.0030412373 0)
(0.99980708 0.0029945586 0)
(0.99994431 0.0029327364 0)
(1.0000605 0.002861575 0)
(1.000155 0.002787865 0)
(1.0002296 0.0027171917 0)
(1.0002887 0.0026556481 0)
(1.0003393 0.0026043708 0)
(1.0003847 0.0025602414 0)
(1.0004271 0.0025239453 0)
(1.0004689 0.0024936831 0)
(1.0005109 0.0024672238 0)
(1.0005532 0.0024436849 0)
(1.0005962 0.0024218461 0)
(1.0006393 0.002400908 0)
(1.0006822 0.0023803456 0)
(1.0007243 0.0023602594 0)
(1.0007654 0.0023408998 0)
(1.0008054 0.0023224722 0)
(1.0008448 0.0023053393 0)
(1.0008839 0.0022895451 0)
(1.0009233 0.00227472 0)
(1.0009632 0.00226043 0)
(1.0010038 0.0022460378 0)
(1.0010445 0.0022311095 0)
(1.001085 0.0022155743 0)
(1.0011249 0.0021993949 0)