/*--------------------------------*- C++ -*----------------------------------*\
  =========                 |
  \\      /  F ield         | OpenFOAM: The Open Source CFD Toolbox
   \\    /   O peration     | Website:  https://openfoam.org
    \\  /    A nd           | Version:  12
     \\/     M anipulation  |
\*---------------------------------------------------------------------------*/
FoamFile
{
    format      ascii;
    class       volVectorField;
    location    "1300";
    object      U;
}
// * * * * * * * * * * * * * * * * * * * * * * * * * * * * * * * * * * * * * //

dimensions      [0 1 -1 0 0 0 0];

internalField   nonuniform List<vector> 
13056
(
(1 2.2815954e-10 8.7599308e-25)
(0.99998284 7.8383567e-10 0)
(0.99994602 1.3400524e-09 0)
(0.99990021 1.7967569e-09 0)
(0.99984809 2.2956535e-09 0)
(0.99978981 2.8899912e-09 0)
(0.99972544 3.5984417e-09 0)
(0.99965498 4.4470272e-09 0)
(0.99957822 5.4757351e-09 0)
(0.99949469 6.7353273e-09 0)
(0.99940369 8.2889113e-09 0)
(0.99930426 1.0219764e-08 0)
(0.99919512 1.2640814e-08 0)
(0.99907453 1.5718579e-08 0)
(0.99893993 1.967701e-08 0)
(0.99878802 2.4944237e-08 0)
(0.99861266 3.1915992e-08 0)
(0.99840825 4.2414693e-08 0)
(0.99815214 5.5781799e-08 0)
(0.99784916 8.5370974e-08 0)
(0.99735895 1.1267375e-07 0)
(0.99685541 3.249891e-07 0)
(0.99465404 2.6406688e-07 -2.6014007e-21)
(0.99467401 0.00011937935 2.7975639e-16)
(0.028586287 0.00012497419 0)
(0.014428674 4.6864229e-07 -9.8623059e-20)
(0.01290902 1.8990586e-07 1.624937e-17)
(0.012411353 1.9956769e-08 1.8398345e-21)
(0.012095601 1.4159877e-08 0)
(0.01183124 1.2038231e-08 0)
(0.011598746 1.0557452e-08 0)
(0.011391726 9.3525744e-09 0)
(0.011205573 8.3710071e-09 0)
(0.011036334 7.5668061e-09 0)
(0.010881093 6.8918495e-09 0)
(0.010737744 6.3129542e-09 0)
(0.010604674 5.8095723e-09 0)
(0.010480577 5.368281e-09 0)
(0.010364369 4.9785273e-09 0)
(0.010255149 4.6317929e-09 0)
(0.010152162 4.3214097e-09 0)
(0.010054764 4.0422634e-09 0)
(0.0099623937 3.7903632e-09 0)
(0.0098745636 3.5618836e-09 0)
(0.0097908508 3.3541506e-09 0)
(0.0097108775 3.1643207e-09 0)
(0.0096343264 2.9901315e-09 0)
(0.0095609063 2.8303335e-09 0)
(0.0094903513 2.6829105e-09 0)
(0.0094224421 2.5464135e-09 0)
(0.0093569718 2.4202118e-09 0)
(0.0092937456 2.3030582e-09 0)
(0.0092326001 2.1937875e-09 0)
(0.0091733894 2.0919009e-09 0)
(0.0091159683 1.996933e-09 0)
(0.0090602065 1.907887e-09 0)
(0.0090059978 1.8241482e-09 0)
(0.0089532389 1.7456199e-09 0)
(0.0089018244 1.6718884e-09 0)
(0.0088516637 1.602244e-09 0)
(0.0088026824 1.5363241e-09 0)
(0.0087548066 1.4741258e-09 0)
(0.0087079577 1.4154211e-09 0)
(0.0086620674 1.3596597e-09 0)
(0.0086170826 1.3065632e-09 0)
(0.0085729486 1.2561891e-09 0)
(0.0085296062 1.2083887e-09 0)
(0.0084870023 1.1628504e-09 0)
(0.0084450932 1.1193032e-09 0)
(0.008403839 1.0777024e-09 0)
(0.0083631971 1.0380319e-09 0)
(0.0083231231 1.0001847e-09 0)
(0.0082835778 9.6387187e-10 0)
(0.0082445324 9.2896573e-10 0)
(0.0082059548 8.955304e-10 0)
(0.0081678092 8.6350848e-10 0)
(0.0081300618 8.3276693e-10 0)
(0.0080926842 8.0313233e-10 0)
(0.0080556528 7.7456426e-10 0)
(0.008018941 7.4709536e-10 0)
(0.0079825184 7.2070034e-10 0)
(0.0079463566 6.9523491e-10 0)
(0.0079104343 6.705891e-10 0)
(0.0078747306 6.467852e-10 0)
(0.0078392206 6.2382923e-10 0)
(0.0078038777 6.0169868e-10 0)
(0.0077686762 5.8026292e-10 0)
(0.007733599 5.5945663e-10 0)
(0.0076986256 5.3932894e-10 0)
(0.0076637311 5.1987603e-10 0)
(0.00762889 5.0104977e-10 0)
(0.0075940799 4.8276307e-10 0)
(0.0075592824 4.649889e-10 0)
(0.0075244766 4.4776413e-10 0)
(0.0074896351 4.3109762e-10 0)
(0.007454731 4.1490281e-10 0)
(0.0074197449 3.9912483e-10 0)
(0.0073846552 3.8380178e-10 0)
(0.0073494335 3.689464e-10 0)
(0.0073140498 3.5451822e-10 0)
(0.0072784776 3.4045982e-10 0)
(0.0072426928 3.2676809e-10 0)
(0.0072066653 3.1346982e-10 0)
(0.0071703598 3.0054458e-10 0)
(0.0071337435 2.8793877e-10 0)
(0.007096787 2.7564763e-10 0)
(0.0070594531 2.6370021e-10 0)
(0.0070216976 2.5207093e-10 0)
(0.0069834808 2.4071783e-10 0)
(0.0069447625 2.2964935e-10 0)
(0.0069054922 2.1888781e-10 0)
(0.0068656111 2.0837217e-10 0)
(0.006825079 1.9816718e-10 0)
(0.0067847224 1.8852523e-10 0)
(0.0067458172 1.7956934e-10 0)
(0.0067087339 1.7128768e-10 0)
(0.0066733332 1.6365044e-10 0)
(0.0066394818 1.5661405e-10 0)
(0.006607059 1.5010465e-10 0)
(0.0065759622 1.4405716e-10 0)
(0.0065460983 1.3844394e-10 0)
(0.006517377 1.3323945e-10 0)
(0.0064897159 1.2838974e-10 0)
(0.0064630468 1.2384945e-10 0)
(0.0064373068 1.1960417e-10 0)
(0.0064124345 1.1564279e-10 0)
(0.0063883711 1.1195818e-10 0)
(0.0063650584 1.0851543e-10 0)
(0.0063424523 1.0534216e-10 0)
(0.0063204824 1.0235731e-10 0)
(0.0062991417 9.997073e-11 0)
(0.0062781798 9.7373626e-11 0)
(0.006257954 9.7538116e-11 0)
(0.0062368821 3.5123371e-10 0)
(0.0062186158 1.1302934e-10 1.5772334e-22)
(0.0061881477 2.7563669e-10 0)
(1 6.8795586e-10 0)
(0.99998284 2.3637726e-09 0)
(0.999946 4.0416646e-09 0)
(0.99990016 5.4195947e-09 0)
(0.99984798 6.924685e-09 0)
(0.99978966 8.7175315e-09 0)
(0.99972523 1.085449e-08 0)
(0.9996547 1.341405e-08 0)
(0.99957788 1.6516789e-08 0)
(0.99949429 2.0315768e-08 0)
(0.99940321 2.5001274e-08 0)
(0.99930371 3.0824403e-08 0)
(0.9991945 3.812565e-08 0)
(0.99907382 4.7407085e-08 0)
(0.99893915 5.9343927e-08 0)
(0.99878715 7.5227013e-08 0)
(0.9986117 9.624943e-08 0)
(0.99840721 1.2790585e-07 0)
(0.998151 1.6821032e-07 0)
(0.99784792 2.5742447e-07 0)
(0.99735759 3.3973862e-07 0)
(0.99685396 9.7985583e-07 0)
(0.9946524 7.9621817e-07 9.5305369e-21)
(0.99467207 0.0003598099 -2.8623093e-21)
(0.083730962 0.00036779698 0)
(0.043501448 8.1896202e-06 0)
(0.038919324 1.0697922e-06 2.2114222e-20)
(0.037419953 4.2044689e-07 0)
(0.036466806 2.9740726e-07 -2.0912328e-21)
(0.035669492 2.524211e-07 0)
(0.034968525 2.2120319e-07 0)
(0.034344408 1.9598098e-07 0)
(0.033783188 1.7541229e-07 0)
(0.033272962 1.585435e-07 0)
(0.032804947 1.4438686e-07 0)
(0.032372788 1.3225034e-07 0)
(0.031971619 1.2170285e-07 0)
(0.031597502 1.1245744e-07 0)
(0.031247164 1.0429218e-07 0)
(0.030917896 9.7028377e-08 0)
(0.030607417 9.0526407e-08 0)
(0.030313789 8.467969e-08 0)
(0.030035316 7.9402289e-08 0)
(0.029770531 7.4617266e-08 0)
(0.029518158 7.0265055e-08 0)
(0.029277058 6.6288543e-08 0)
(0.029046274 6.264086e-08 0)
(0.02882493 5.9292129e-08 0)
(0.028612223 5.620409e-08 0)
(0.028407492 5.3345744e-08 0)
(0.028210113 5.0701158e-08 0)
(0.0280195 4.8246761e-08 0)
(0.02783516 4.5958318e-08 0)
(0.027656651 4.3824088e-08 0)
(0.027483539 4.1833784e-08 0)
(0.027315429 3.9968613e-08 0)
(0.027152 3.8215073e-08 0)
(0.026992942 3.656966e-08 0)
(0.026837938 3.5024513e-08 0)
(0.026686713 3.3565803e-08 0)
(0.026539044 3.218535e-08 0)
(0.026394707 3.0882137e-08 0)
(0.026253466 2.9651804e-08 0)
(0.026115116 2.8483833e-08 0)
(0.025979495 2.7372014e-08 0)
(0.025846438 2.6316503e-08 0)
(0.025715769 2.5314867e-08 0)
(0.025587326 2.4360796e-08 0)
(0.025460977 2.3448837e-08 0)
(0.025336603 2.2577384e-08 0)
(0.025214074 2.1746219e-08 0)
(0.025093258 2.0953066e-08 0)
(0.024974036 2.0192475e-08 0)
(0.02485632 1.9461502e-08 0)
(0.024740015 1.8760925e-08 0)
(0.024625012 1.8089986e-08 0)
(0.02451121 1.7445864e-08 0)
(0.024398523 1.6825208e-08 0)
(0.024286879 1.6226827e-08 0)
(0.024176198 1.5651318e-08 0)
(0.02406639 1.5098213e-08 0)
(0.023957368 1.4564729e-08 0)
(0.023849068 1.404859e-08 0)
(0.023741426 1.3549893e-08 0)
(0.023634369 1.3068956e-08 0)
(0.023527816 1.2605201e-08 0)
(0.023421689 1.2156184e-08 0)
(0.023315936 1.1720432e-08 0)
(0.023210497 1.1298707e-08 0)
(0.023105295 1.0891134e-08 0)
(0.023000254 1.0496668e-08 0)
(0.022895307 1.0113628e-08 0)
(0.022790397 9.7413081e-09 0)
(0.022685462 9.3804273e-09 0)
(0.02258042 9.0311784e-09 0)
(0.02247519 8.6919136e-09 0)
(0.022369711 8.3614421e-09 0)
(0.022263921 8.0403975e-09 0)
(0.022157732 7.72914e-09 0)
(0.022051056 7.4268501e-09 0)
(0.02194381 7.1323653e-09 0)
(0.021835924 6.8455379e-09 0)
(0.021727306 6.5669067e-09 0)
(0.02161785 6.2961032e-09 0)
(0.021507457 6.032037e-09 0)
(0.021396038 5.7745556e-09 0)
(0.021283481 5.5242282e-09 0)
(0.021169653 5.2805925e-09 0)
(0.021054435 5.0427726e-09 0)
(0.020937704 4.8108915e-09 0)
(0.020819309 4.5854217e-09 0)
(0.020699073 4.3651212e-09 0)
(0.020576874 4.151382e-09 0)
(0.020455204 3.9493938e-09 0)
(0.020337909 3.7617512e-09 0)
(0.020226108 3.5882638e-09 0)
(0.020119379 3.4282697e-09 0)
(0.020017322 3.2808537e-09 0)
(0.019919571 3.1444922e-09 0)
(0.019825818 3.0178137e-09 0)
(0.019735782 2.9002181e-09 0)
(0.019649191 2.7911743e-09 0)
(0.019565796 2.6895769e-09 0)
(0.019485393 2.5944709e-09 0)
(0.01940779 2.5055267e-09 0)
(0.019332803 2.4225297e-09 0)
(0.019260255 2.3453198e-09 0)
(0.019189971 2.2731781e-09 0)
(0.019121817 2.2066963e-09 0)
(0.019055581 2.1440633e-09 0)
(0.018991243 2.0941105e-09 0)
(0.018928049 2.0390637e-09 0)
(0.018867071 2.0440966e-09 0)
(0.018803558 1.9774669e-09 0)
(0.018748488 2.4048607e-09 -2.4225437e-22)
(0.01865663 1.5422457e-09 3.7104967e-23)
(1 1.1580937e-09 0)
(0.99998284 3.979615e-09 0)
(0.99994597 6.8053048e-09 0)
(0.99990009 9.1261899e-09 0)
(0.99984787 1.1661049e-08 0)
(0.99978949 1.4680278e-08 0)
(0.999725 1.8278831e-08 0)
(0.99965441 2.2588875e-08 0)
(0.99957751 2.7813397e-08 0)
(0.99949384 3.4210065e-08 0)
(0.99940269 4.2099203e-08 0)
(0.99930311 5.19035e-08 0)
(0.99919381 6.419612e-08 0)
(0.99907305 7.9822211e-08 0)
(0.99893828 9.9918355e-08 0)
(0.99878619 1.2665742e-07 0)
(0.99861065 1.6204761e-07 0)
(0.99840605 2.1533806e-07 0)
(0.99814974 2.8318524e-07 0)
(0.99784655 4.3336063e-07 0)
(0.99735609 5.719211e-07 0)
(0.99685235 1.6493568e-06 0)
(0.99465065 1.34058e-06 -4.9859445e-21)
(0.99466999 0.0005880944 9.76193e-55)
(0.13767657 0.0006079064 -8.2333344e-54)
(0.073222904 2.2848291e-05 0)
(0.065508201 3.0564383e-06 -1.1688199e-20)
(0.062984916 1.2211994e-06 0)
(0.061379038 8.6405529e-07 0)
(0.060036715 7.3293641e-07 0)
(0.058856928 6.4218649e-07 0)
(0.057806546 5.6895956e-07 0)
(0.056861997 5.0924982e-07 0)
(0.056003273 4.6027264e-07 0)
(0.0552156 4.1916931e-07 0)
(0.054488278 3.8393347e-07 0)
(0.053813114 3.5331329e-07 0)
(0.053183475 3.2647356e-07 0)
(0.052593856 3.0276937e-07 0)
(0.052039695 2.8168206e-07 0)
(0.051517155 2.6280649e-07 0)
(0.051022975 2.4583335e-07 0)
(0.050554299 2.3051266e-07 0)
(0.050108659 2.1662176e-07 0)
(0.049683907 2.0398689e-07 0)
(0.049278128 1.924429e-07 0)
(0.04888971 1.8185381e-07 0)
(0.048517177 1.7213188e-07 0)
(0.048159183 1.6316716e-07 0)
(0.04781461 1.5486954e-07 0)
(0.047482411 1.4719188e-07 0)
(0.047161599 1.4006649e-07 0)
(0.046851343 1.3342321e-07 0)
(0.046550902 1.2722741e-07 0)
(0.046259542 1.214491e-07 0)
(0.045976602 1.1603443e-07 0)
(0.04570154 1.10944e-07 0)
(0.045433833 1.061671e-07 0)
(0.045172949 1.0168117e-07 0)
(0.044918427 9.7446494e-08 0)
(0.044669888 9.3439097e-08 0)
(0.044426956 8.9655646e-08 0)
(0.044189236 8.6083649e-08 0)
(0.043956381 8.2692966e-08 0)
(0.043728118 7.946542e-08 0)
(0.043504172 7.6401087e-08 0)
(0.043284243 7.3493089e-08 0)
(0.043068062 7.0723276e-08 0)
(0.042855405 6.8075864e-08 0)
(0.04264607 6.5545961e-08 0)
(0.042439843 6.3132922e-08 0)
(0.042236497 6.0830184e-08 0)
(0.042035834 5.8622137e-08 0)
(0.041837707 5.6500131e-08 0)
(0.041641952 5.4466222e-08 0)
(0.04144839 5.2518328e-08 0)
(0.041256849 5.0648309e-08 0)
(0.041067185 4.8846515e-08 0)
(0.040879276 4.7109374e-08 0)
(0.040692988 4.5438557e-08 0)
(0.040508168 4.3832748e-08 0)
(0.040324672 4.2283963e-08 0)
(0.04014239 4.0785594e-08 0)
(0.039961217 3.9337804e-08 0)
(0.039781027 3.7941547e-08 0)
(0.039601685 3.6595143e-08 0)
(0.039423061 3.5291595e-08 0)
(0.039245066 3.4026589e-08 0)
(0.039067598 3.2802242e-08 0)
(0.03889053 3.1618965e-08 0)
(0.038713734 3.0473747e-08 0)
(0.038537095 2.9361744e-08 0)
(0.038360519 2.8280862e-08 0)
(0.0381839 2.7233154e-08 0)
(0.038007101 2.6219195e-08 0)
(0.037829984 2.523426e-08 0)
(0.037652451 2.4274876e-08 0)
(0.037474391 2.3342823e-08 0)
(0.037295662 2.2439173e-08 0)
(0.03711611 2.1561568e-08 0)
(0.036935602 2.0706643e-08 0)
(0.036754015 1.987394e-08 0)
(0.036571196 1.9065013e-08 0)
(0.036386966 1.8278816e-08 0)
(0.036201159 1.7512195e-08 0)
(0.036013625 1.6764687e-08 0)
(0.035824176 1.603793e-08 0)
(0.035632588 1.5330609e-08 0)
(0.035438659 1.4640183e-08 0)
(0.035242184 1.3966988e-08 0)
(0.035042908 1.3312399e-08 0)
(0.034840533 1.2672825e-08 0)
(0.034634854 1.2052313e-08 0)
(0.034430066 1.1465901e-08 0)
(0.034232642 1.0921128e-08 0)
(0.034044464 1.0417461e-08 0)
(0.033864823 9.9529659e-09 0)
(0.033693045 9.5249851e-09 0)
(0.033528516 9.129102e-09 0)
(0.033370715 8.7613329e-09 0)
(0.033219171 8.4199271e-09 0)
(0.033073425 8.1033449e-09 0)
(0.032933059 7.8083861e-09 0)
(0.032797727 7.5322764e-09 0)
(0.03266711 7.2740495e-09 0)
(0.032540896 7.0330857e-09 0)
(0.032418787 6.8089192e-09 0)
(0.032300488 6.5994675e-09 0)
(0.032185775 6.4064445e-09 0)
(0.032074291 6.2245777e-09 0)
(0.031966001 6.0795079e-09 0)
(0.03185964 5.9195578e-09 0)
(0.031757007 5.9340301e-09 0)
(0.031650126 5.6474536e-09 0)
(0.031557433 6.9892303e-09 0)
(0.031402821 4.3951389e-09 0)
(1 1.6456015e-09 1.8768623e-24)
(0.99998283 5.655634e-09 0)
(0.99994595 9.672657e-09 0)
(0.99990002 1.2972606e-08 0)
(0.99984775 1.6576471e-08 0)
(0.99978931 2.0868554e-08 0)
(0.99972474 2.5983915e-08 0)
(0.99965407 3.2110419e-08 0)
(0.9995771 3.9536521e-08 0)
(0.99949334 4.8628362e-08 0)
(0.9994021 5.9841116e-08 0)
(0.99930243 7.3775399e-08 0)
(0.99919304 9.1245632e-08 0)
(0.99907218 1.1345269e-07 0)
(0.99893732 1.420115e-07 0)
(0.99878513 1.8000948e-07 0)
(0.99860948 2.3029988e-07 0)
(0.99840477 3.0602464e-07 0)
(0.99814834 4.0243197e-07 0)
(0.99784502 6.1581726e-07 0)
(0.99735442 8.1269502e-07 0)
(0.99685056 2.3435e-06 0)
(0.99464875 1.9050839e-06 0)
(0.99466774 0.00080946255 -5.0883978e-55)
(0.19110642 0.00085050977 4.2758972e-54)
(0.10401938 4.5581769e-05 0)
(0.093065612 6.3014466e-06 0)
(0.089479456 2.5163947e-06 0)
(0.087196115 1.7806058e-06 0)
(0.085289038 1.509748e-06 0)
(0.083613347 1.3226436e-06 0)
(0.082121533 1.1718187e-06 0)
(0.080779984 1.0488513e-06 0)
(0.079560326 9.4797317e-07 0)
(0.078441588 8.6331104e-07 0)
(0.077408568 7.9073768e-07 0)
(0.076449622 7.2767437e-07 0)
(0.07555533 6.7239783e-07 0)
(0.074717873 6.2357865e-07 0)
(0.073930772 5.8014878e-07 0)
(0.07318858 5.4127413e-07 0)
(0.072486664 5.0631774e-07 0)
(0.071820968 4.7476422e-07 0)
(0.071187988 4.4615577e-07 0)
(0.070584674 4.2013355e-07 0)
(0.070008306 3.9635829e-07 0)
(0.069456594 3.7455001e-07 0)
(0.068927443 3.545267e-07 0)
(0.068418941 3.3606343e-07 0)
(0.0679295 3.1897444e-07 0)
(0.067457633 3.0316143e-07 0)
(0.067001939 2.8848603e-07 0)
(0.066561238 2.7480405e-07 0)
(0.066134475 2.6204337e-07 0)
(0.065720612 2.5014205e-07 0)
(0.065318706 2.3899017e-07 0)
(0.06492799 2.2850634e-07 0)
(0.06454772 2.1866769e-07 0)
(0.06417714 2.0942815e-07 0)
(0.063815597 2.0070654e-07 0)
(0.063462551 1.9245318e-07 0)
(0.063117469 1.8466062e-07 0)
(0.06277979 1.7730339e-07 0)
(0.06244902 1.7031999e-07 0)
(0.062124773 1.6367275e-07 0)
(0.061806656 1.573613e-07 0)
(0.061494246 1.5137172e-07 0)
(0.061187158 1.456669e-07 0)
(0.060885077 1.4021439e-07 0)
(0.060587713 1.3500378e-07 0)
(0.060294762 1.300337e-07 0)
(0.060005905 1.2529074e-07 0)
(0.059720858 1.2074303e-07 0)
(0.059439412 1.1637262e-07 0)
(0.059161336 1.1218344e-07 0)
(0.058886375 1.0817136e-07 0)
(0.058614284 1.0431973e-07 0)
(0.058344858 1.0060875e-07 0)
(0.058077925 9.7030913e-08 0)
(0.057813294 9.3589563e-08 0)
(0.057550749 9.0282049e-08 0)
(0.057290083 8.7092081e-08 0)
(0.057031143 8.4006042e-08 0)
(0.056773776 8.1024094e-08 0)
(0.056517805 7.8148232e-08 0)
(0.056263039 7.5375016e-08 0)
(0.056009293 7.2690171e-08 0)
(0.05575644 7.008475e-08 0)
(0.055504334 6.7562979e-08 0)
(0.055252797 6.5125771e-08 0)
(0.055001645 6.2766968e-08 0)
(0.054750715 6.0476637e-08 0)
(0.054499876 5.8250402e-08 0)
(0.054248975 5.6092442e-08 0)
(0.053997817 5.400396e-08 0)
(0.053746208 5.1975318e-08 0)
(0.053494006 4.9999332e-08 0)
(0.053241057 4.807959e-08 0)
(0.052987155 4.6218324e-08 0)
(0.052732086 4.4410721e-08 0)
(0.052475657 4.2649864e-08 0)
(0.052217694 4.0934763e-08 0)
(0.051957982 3.9268603e-08 0)
(0.051696265 3.7649264e-08 0)
(0.051432307 3.6070272e-08 0)
(0.051165895 3.4530639e-08 0)
(0.050896762 3.3033723e-08 0)
(0.050624589 3.1576848e-08 0)
(0.050349091 3.0154787e-08 0)
(0.050069976 2.8768204e-08 0)
(0.049786882 2.7419929e-08 0)
(0.049499384 2.6102595e-08 0)
(0.049207192 2.4824541e-08 0)
(0.048916264 2.3616699e-08 0)
(0.048635799 2.249461e-08 0)
(0.048368467 2.1457199e-08 0)
(0.048113265 2.0500483e-08 0)
(0.047869231 1.9618945e-08 0)
(0.047635496 1.8803539e-08 0)
(0.047411319 1.8046043e-08 0)
(0.04719603 1.7342839e-08 0)
(0.046988977 1.6690758e-08 0)
(0.046789568 1.6083223e-08 0)
(0.04659731 1.5514516e-08 0)
(0.04641175 1.4982634e-08 0)
(0.046232445 1.4486304e-08 0)
(0.046058972 1.4024565e-08 0)
(0.045890912 1.3593137e-08 0)
(0.045727946 1.3195538e-08 0)
(0.045569569 1.28209e-08 0)
(0.045415728 1.252199e-08 0)
(0.045264633 1.2192394e-08 0)
(0.045118829 1.2221841e-08 0)
(0.04496702 1.164144e-08 0)
(0.044835335 1.4403697e-08 0)
(0.044615685 9.0502454e-09 0)
(1 2.157761e-09 0)
(0.99998283 7.4169401e-09 0)
(0.99994592 1.2686816e-08 0)
(0.99989995 1.7016782e-08 0)
(0.99984761 2.1745067e-08 0)
(0.9997891 2.7375689e-08 0)
(0.99972445 3.4085938e-08 0)
(0.9996537 4.2122234e-08 0)
(0.99957664 5.1862837e-08 0)
(0.99949279 6.3787852e-08 0)
(0.99940145 7.8494123e-08 0)
(0.99930168 9.6769193e-08 0)
(0.99919218 1.1968092e-07 0)
(0.99907121 1.4880386e-07 0)
(0.99893624 1.8625544e-07 0)
(0.99878393 2.3608372e-07 0)
(0.99860817 3.0202957e-07 0)
(0.99840333 4.0132414e-07 0)
(0.99814677 5.2773554e-07 0)
(0.99784332 8.0752276e-07 0)
(0.99735255 1.0656539e-06 0)
(0.99684857 3.0726246e-06 0)
(0.99464668 2.4981519e-06 0)
(0.99466533 0.0010270376 0)
(0.24454063 0.0010952332 0)
(0.13631981 7.638544e-05 0)
(0.12198377 1.093076e-05 0)
(0.11727835 4.366113e-06 3.6226042e-21)
(0.11428377 3.0890437e-06 0)
(0.11178491 2.6180491e-06 0)
(0.10958986 2.2933062e-06 0)
(0.10763576 2.031787e-06 0)
(0.10587839 1.818604e-06 0)
(0.10428066 1.6436927e-06 0)
(0.10281512 1.4968937e-06 0)
(0.10146186 1.3710606e-06 0)
(0.10020561 1.2617216e-06 0)
(0.099034037 1.1658842e-06 0)
(0.097936902 1.0812417e-06 0)
(0.096905721 1.0059423e-06 0)
(0.095933361 9.3854078e-07 0)
(0.095013752 8.7793275e-07 0)
(0.094141586 8.2322402e-07 0)
(0.093312271 7.736218e-07 0)
(0.092521812 7.2850277e-07 0)
(0.091766652 6.8727985e-07 0)
(0.091043786 6.4946772e-07 0)
(0.090350472 6.1474899e-07 0)
(0.089684207 5.827358e-07 0)
(0.08904291 5.5310595e-07 0)
(0.088424633 5.2568721e-07 0)
(0.087827543 5.002411e-07 0)
(0.087250093 4.765182e-07 0)
(0.0866909 4.5439218e-07 0)
(0.086148606 4.3375547e-07 0)
(0.085621978 4.1441893e-07 0)
(0.085110006 3.9624113e-07 0)
(0.084611718 3.7918112e-07 0)
(0.084126126 3.6315964e-07 0)
(0.083652371 3.4803692e-07 0)
(0.083189747 3.3372631e-07 0)
(0.082737556 3.2021401e-07 0)
(0.082295064 3.0745623e-07 0)
(0.081861624 2.9534728e-07 0)
(0.081436728 2.8382148e-07 0)
(0.081019861 2.7287735e-07 0)
(0.080610471 2.6249109e-07 0)
(0.080208055 2.5259886e-07 0)
(0.079812196 2.4314442e-07 0)
(0.079422517 2.3410929e-07 0)
(0.079038619 2.2549092e-07 0)
(0.078660085 2.1726628e-07 0)
(0.078286543 2.0938056e-07 0)
(0.077917716 2.0180239e-07 0)
(0.077553304 1.9453816e-07 0)
(0.077192972 1.8758089e-07 0)
(0.076836401 1.8090193e-07 0)
(0.07648332 1.7446707e-07 0)
(0.076133505 1.6826305e-07 0)
(0.075786705 1.6229551e-07 0)
(0.075442637 1.5655995e-07 0)
(0.075101031 1.5102837e-07 0)
(0.074761685 1.4567714e-07 0)
(0.074424398 1.4050628e-07 0)
(0.074088941 1.3551927e-07 0)
(0.073755061 1.3071021e-07 0)
(0.073422516 1.2605454e-07 0)
(0.073091141 1.2153666e-07 0)
(0.072760743 1.1716369e-07 0)
(0.072431089 1.129373e-07 0)
(0.07210194 1.0884689e-07 0)
(0.071773081 1.0487531e-07 0)
(0.071444337 1.0101488e-07 0)
(0.071115512 9.7272745e-08 0)
(0.07078635 9.3651044e-08 0)
(0.070456595 9.0133194e-08 0)
(0.070126062 8.6706702e-08 0)
(0.069794548 8.3377661e-08 0)
(0.069461785 8.0149981e-08 0)
(0.069127491 7.7015386e-08 0)
(0.068791413 7.3961897e-08 0)
(0.068453323 7.0987731e-08 0)
(0.068112939 6.8098383e-08 0)
(0.067769926 6.5290236e-08 0)
(0.067423976 6.2552091e-08 0)
(0.067074808 5.9882187e-08 0)
(0.066722072 5.7286317e-08 0)
(0.066365351 5.4759896e-08 0)
(0.066004271 5.2293868e-08 0)
(0.065638448 4.9889342e-08 0)
(0.065267408 4.7551221e-08 0)
(0.064890596 4.5266778e-08 0)
(0.06450763 4.3050477e-08 0)
(0.064126318 4.0955897e-08 0)
(0.063758719 3.9010001e-08 0)
(0.063408333 3.7210969e-08 0)
(0.063073843 3.5551869e-08 0)
(0.062753991 3.4023134e-08 0)
(0.062447636 3.260909e-08 0)
(0.062153807 3.1295477e-08 0)
(0.061871628 3.0075997e-08 0)
(0.061600244 2.8945163e-08 0)
(0.061338877 2.7891591e-08 0)
(0.061086883 2.6905359e-08 0)
(0.060843668 2.5982974e-08 0)
(0.06060865 2.5122231e-08 0)
(0.060381277 2.4321467e-08 0)
(0.060160998 2.357327e-08 0)
(0.059947396 2.2883718e-08 0)
(0.05973981 2.2233969e-08 0)
(0.059538169 2.1715395e-08 0)
(0.059340134 2.1143673e-08 0)
(0.059149026 2.1193878e-08 0)
(0.058950086 2.0195915e-08 0)
(0.058777483 2.4986836e-08 -3.1185602e-22)
(0.058489576 1.5691462e-08 4.7766689e-23)
(1 2.7022313e-09 0)
(0.99998282 9.2899954e-09 0)
(0.99994588 1.5893279e-08 0)
(0.99989986 2.1319961e-08 0)
(0.99984746 2.7245216e-08 0)
(0.99978886 3.4300398e-08 0)
(0.99972413 4.2707792e-08 0)
(0.99965328 5.2776125e-08 0)
(0.99957612 6.4979139e-08 0)
(0.99949216 7.9918102e-08 0)
(0.99940072 9.8340472e-08 0)
(0.99930083 1.212325e-07 0)
(0.99919121 1.4993147e-07 0)
(0.99907013 1.8640914e-07 0)
(0.99893503 2.3331706e-07 0)
(0.9987826 2.9572446e-07 0)
(0.99860669 3.7831552e-07 0)
(0.99840172 5.026681e-07 0)
(0.99814502 6.6097614e-07 0)
(0.99784141 1.011349e-06 0)
(0.99735045 1.3345787e-06 0)
(0.99684633 3.8475921e-06 0)
(0.99464443 3.1286616e-06 0)
(0.99466274 0.0012424524 0)
(0.29832662 0.0013456518 0)
(0.17054 0.00011606946 0)
(0.15265002 1.7198553e-05 0)
(0.14675136 6.8777162e-06 0)
(0.14300375 4.8637862e-06 0)
(0.13987975 4.1203114e-06 0)
(0.13713639 3.6087836e-06 0)
(0.13469417 3.1972677e-06 0)
(0.13249766 2.8618709e-06 0)
(0.13050057 2.5866455e-06 0)
(0.12866864 2.3556453e-06 0)
(0.126977 2.1576418e-06 0)
(0.12540658 1.9855985e-06 0)
(0.12394196 1.8348002e-06 0)
(0.12257034 1.7016142e-06 0)
(0.12128113 1.5831278e-06 0)
(0.12006542 1.4770679e-06 0)
(0.11891563 1.3816972e-06 0)
(0.11782513 1.2956079e-06 0)
(0.11678817 1.2175541e-06 -6.2126242e-33)
(0.11579978 1.1465531e-06 0)
(0.1148555 1.0816832e-06 0)
(0.11395158 1.0221806e-06 0)
(0.1130846 9.6754369e-07 0)
(0.11225143 9.1716499e-07 0)
(0.11144946 8.7053742e-07 0)
(0.11067626 8.2738737e-07 0)
(0.10992955 7.8734163e-07 0)
(0.10920738 7.5000873e-07 0)
(0.10850804 7.1518787e-07 0)
(0.10782981 6.8270957e-07 0)
(0.10717118 6.5227838e-07 0)
(0.10653086 6.2367124e-07 0)
(0.10590764 5.9682183e-07 0)
(0.1053003 5.7160627e-07 0)
(0.10470776 5.4780618e-07 0)
(0.10412913 5.2528444e-07 0)
(0.10356353 5.0401795e-07 0)
(0.10301007 4.8393842e-07 0)
(0.10246792 4.648809e-07 0)
(0.10193645 4.4674152e-07 0)
(0.10141502 4.2951668e-07 0)
(0.10090293 4.1316942e-07 0)
(0.10039957 3.9760008e-07 0)
(0.099904397 3.8272018e-07 0)
(0.099416951 3.6849992e-07 0)
(0.098936731 3.549351e-07 0)
(0.098463217 3.4198982e-07 0)
(0.097995944 3.2957848e-07 0)
(0.097534563 3.1765132e-07 0)
(0.097078701 3.0621778e-07 0)
(0.096627939 2.9526713e-07 0)
(0.096181878 2.8475464e-07 0)
(0.095740179 2.7462665e-07 0)
(0.09530256 2.6486193e-07 0)
(0.09486871 2.5546908e-07 0)
(0.094438276 2.464412e-07 0)
(0.094010917 2.3773459e-07 0)
(0.093586381 2.2931203e-07 0)
(0.093164418 2.2117317e-07 0)
(0.09274474 2.1332349e-07 0)
(0.092327033 2.0575384e-07 0)
(0.091910993 1.9842583e-07 0)
(0.091496412 1.9131478e-07 0)
(0.091083051 1.844316e-07 0)
(0.090670617 1.7777903e-07 0)
(0.090258811 1.7134053e-07 0)
(0.089847366 1.650892e-07 0)
(0.089436062 1.590128e-07 0)
(0.089024652 1.5312245e-07 0)
(0.088612818 1.4742158e-07 0)
(0.088200239 1.418843e-07 0)
(0.087786683 1.3649089e-07 0)
(0.087371896 1.3125073e-07 0)
(0.086955543 1.2617005e-07 0)
(0.086537272 1.2123593e-07 0)
(0.086116766 1.1642953e-07 0)
(0.085693739 1.1174795e-07 0)
(0.085267838 1.071998e-07 0)
(0.084838646 1.0277947e-07 0)
(0.084405774 9.8469373e-08 0)
(0.083968872 9.4266668e-08 0)
(0.083527502 9.0180432e-08 0)
(0.083081144 8.620353e-08 0)
(0.082629326 8.2321718e-08 0)
(0.082171571 7.8536676e-08 0)
(0.081707284 7.4856121e-08 0)
(0.081235771 7.126009e-08 0)
(0.080756553 6.7771354e-08 0)
(0.080279401 6.4474164e-08 0)
(0.079819404 6.1410984e-08 0)
(0.079380945 5.857901e-08 0)
(0.078962374 5.5967293e-08 0)
(0.078562118 5.35608e-08 0)
(0.07817875 5.133485e-08 0)
(0.077811055 4.9266998e-08 0)
(0.077457935 4.7347303e-08 0)
(0.077118323 4.5567134e-08 0)
(0.076791246 4.3908604e-08 0)
(0.076475896 4.2356089e-08 0)
(0.076171529 4.0904057e-08 0)
(0.075877422 3.9549044e-08 0)
(0.075592879 3.8288435e-08 0)
(0.075317214 3.711058e-08 0)
(0.075049904 3.6025009e-08 0)
(0.074790123 3.500208e-08 0)
(0.074537781 3.4185372e-08 0)
(0.074289959 3.3285214e-08 0)
(0.074050798 3.3362629e-08 0)
(0.073801885 3.1791306e-08 0)
(0.073585876 3.9343999e-08 0)
(0.073225564 2.4692518e-08 -2.7235788e-23)
(1 3.2871625e-09 0)
(0.99998282 1.1303006e-08 0)
(0.99994585 1.9340618e-08 0)
(0.99989977 2.5947598e-08 0)
(0.99984728 3.3160739e-08 0)
(0.9997886 4.1748254e-08 0)
(0.99972376 5.1980906e-08 0)
(0.99965281 6.423442e-08 0)
(0.99957553 7.9085133e-08 0)
(0.99949146 9.726449e-08 0)
(0.99939989 1.1968176e-07 0)
(0.99929987 1.4753667e-07 0)
(0.99919013 1.8245591e-07 0)
(0.9990689 2.2683796e-07 0)
(0.99893367 2.8390805e-07 0)
(0.99878109 3.5983234e-07 0)
(0.99860504 4.6030812e-07 0)
(0.99839991 6.1158237e-07 0)
(0.99814304 8.0415708e-07 0)
(0.99783926 1.2303545e-06 0)
(0.9973481 1.6235069e-06 0)
(0.99684382 4.6799333e-06 0)
(0.99464195 3.8060431e-06 0)
(0.99465997 0.001456554 0)
(0.35261593 0.0016036344 0)
(0.20706211 0.00016601804 0)
(0.1854263 2.546428e-05 0)
(0.17824688 1.0201435e-05 -9.5114689e-21)
(0.17369864 7.2079446e-06 7.046721e-21)
(0.1699119 6.1030754e-06 0)
(0.16658751 5.3447552e-06 0)
(0.16362794 4.7353804e-06 0)
(0.16096577 4.2388166e-06 0)
(0.15854506 3.8312695e-06 0)
(0.15632438 3.4891877e-06 0)
(0.1542736 3.195973e-06 0)
(0.15236964 2.941207e-06 0)
(0.1505938 2.7178986e-06 0)
(0.14893062 2.5206645e-06 0)
(0.14736727 2.3451934e-06 0)
(0.14589296 2.1881219e-06 0)
(0.14449852 2.0468778e-06 0)
(0.1431759 1.9193762e-06 0)
(0.14191817 1.8037734e-06 6.6692223e-33)
(0.14071928 1.6986131e-06 0)
(0.13957385 1.6025324e-06 0)
(0.13847733 1.5144007e-06 0)
(0.13742557 1.4334717e-06 0)
(0.13641479 1.3588501e-06 0)
(0.13544182 1.289785e-06 0)
(0.13450373 1.2258673e-06 0)
(0.13359774 1.1665474e-06 0)
(0.13272151 1.1112471e-06 0)
(0.13187293 1.0596661e-06 0)
(0.13104996 1.0115529e-06 0)
(0.13025074 9.6647338e-07 0)
(0.12947372 9.2409639e-07 0)
(0.12871743 8.8432089e-07 0)
(0.12798039 8.4696473e-07 0)
(0.12726128 8.1170678e-07 0)
(0.12655904 7.7834283e-07 0)
(0.12587261 7.4683657e-07 0)
(0.12520089 7.1708781e-07 0)
(0.12454288 6.8885435e-07 0)
(0.12389782 6.6198147e-07 0)
(0.12326492 6.3646204e-07 0)
(0.12264336 6.1224195e-07 0)
(0.12203237 5.891749e-07 0)
(0.12143132 5.671298e-07 0)
(0.12083962 5.4606151e-07 0)
(0.12025669 5.259634e-07 0)
(0.11968189 5.0678293e-07 0)
(0.11911466 4.8839422e-07 0)
(0.11855456 4.7072304e-07 0)
(0.11800116 4.537824e-07 0)
(0.11745393 4.3755679e-07 0)
(0.11691241 4.2198053e-07 0)
(0.11637617 4.0697436e-07 0)
(0.11584487 3.925063e-07 0)
(0.11531815 3.7858866e-07 0)
(0.11479555 3.6521152e-07 0)
(0.11427669 3.5231071e-07 0)
(0.11376125 3.3983099e-07 0)
(0.11324892 3.2777133e-07 0)
(0.11273935 3.161398e-07 0)
(0.11223217 3.0492308e-07 0)
(0.11172701 2.9406469e-07 0)
(0.11122361 2.8352788e-07 0)
(0.11072169 2.7332835e-07 0)
(0.11022088 2.6347032e-07 0)
(0.10972083 2.5392955e-07 0)
(0.10922121 2.4466628e-07 0)
(0.10872175 2.3566218e-07 0)
(0.10822215 2.269335e-07 0)
(0.10772204 2.1848546e-07 0)
(0.10722101 2.1028e-07 0)
(0.10671879 2.0228779e-07 0)
(0.10621506 1.9452248e-07 0)
(0.10570943 1.8699334e-07 0)
(0.10520146 1.7968142e-07 0)
(0.10469077 1.7255885e-07 0)
(0.10417701 1.6562116e-07 0)
(0.10365975 1.5888105e-07 0)
(0.10313848 1.5233035e-07 0)
(0.10261274 1.4594307e-07 0)
(0.1020821 1.3971487e-07 0)
(0.10154602 1.3365915e-07 0)
(0.10100388 1.2776546e-07 0)
(0.10045509 1.2201272e-07 0)
(0.099899087 1.164033e-07 0)
(0.099335141 1.1094865e-07 0)
(0.098762408 1.0561929e-07 0)
(0.098180307 1.0044898e-07 0)
(0.097600706 9.5562435e-08 0)
(0.097041936 9.1022624e-08 0)
(0.09650932 8.6825487e-08 0)
(0.096000857 8.2954767e-08 0)
(0.095514636 7.9388154e-08 0)
(0.095048924 7.6089133e-08 0)
(0.094602246 7.3024424e-08 0)
(0.09417327 7.0179247e-08 0)
(0.093760699 6.7540826e-08 0)
(0.093363351 6.5082707e-08 0)
(0.092980247 6.2781716e-08 0)
(0.092610482 6.0629616e-08 0)
(0.092253178 5.8621278e-08 0)
(0.091907491 5.675283e-08 0)
(0.091572588 5.5007038e-08 0)
(0.091247833 5.3397961e-08 0)
(0.090932224 5.1881715e-08 0)
(0.090625651 5.0670658e-08 0)
(0.090324579 4.9336345e-08 0)
(0.090034016 4.9448401e-08 0)
(0.089731669 4.7117169e-08 -4.2052197e-23)
(0.089469227 5.8326166e-08 0)
(0.089031453 3.6589751e-08 0)
(1 3.9213185e-09 0)
(0.99998281 1.3486354e-08 0)
(0.9999458 2.3081243e-08 0)
(0.99989966 3.0970406e-08 0)
(0.99984709 3.9582227e-08 0)
(0.9997883 4.983338e-08 0)
(0.99972336 6.2047345e-08 0)
(0.99965228 7.6672556e-08 0)
(0.99957488 9.4396611e-08 0)
(0.99949067 1.1609209e-07 0)
(0.99939896 1.428437e-07 0)
(0.9992988 1.7608262e-07 0)
(0.9991889 2.1774925e-07 0)
(0.99906753 2.7070466e-07 0)
(0.99893213 3.3879594e-07 0)
(0.99877939 4.2937831e-07 0)
(0.99860317 5.492471e-07 0)
(0.99839787 7.2971052e-07 0)
(0.99814081 9.5943536e-07 0)
(0.99783684 1.4678303e-06 0)
(0.99734545 1.9367725e-06 0)
(0.99684099 5.5820373e-06 0)
(0.99463923 4.5404269e-06 0)
(0.994657 0.0016696805 -1.3426061e-54)
(0.40733819 0.0018706528 1.0641341e-53)
(0.24619418 0.00022730846 -5.9485148e-19)
(0.22061302 3.6186402e-05 0)
(0.21205922 1.4530817e-05 -1.1105166e-20)
(0.20666125 1.025343e-05 0)
(0.20217369 8.6767893e-06 0)