/*--------------------------------*- C++ -*----------------------------------*\
  =========                 |
  \\      /  F ield         | OpenFOAM: The Open Source CFD Toolbox
   \\    /   O peration     | Website:  https://openfoam.org
    \\  /    A nd           | Version:  12
     \\/     M anipulation  |
\*---------------------------------------------------------------------------*/
FoamFile
{
    format      ascii;
    class       volVectorField;
    location    "1300";
    object      wallShearStress;
}
// * * * * * * * * * * * * * * * * * * * * * * * * * * * * * * * * * * * * * //

dimensions      [0 2 -2 0 0 0 0];

internalField   uniform (0 0 0);

boundaryField
{
    bottom
    {
        type            calculated;
        value           nonuniform List<vector> 
112
(
(-0.0057040192 -3.5149419e-05 0)
(-0.0028790419 -3.8394214e-07 -1.8563893e-17)
(-0.0025758151 -8.3571215e-08 -5.151902e-19)
(-0.0024765123 -1.8505842e-08 -9.8834528e-19)
(-0.0024135082 -1.3090745e-08 0)
(-0.0023607585 -1.1115366e-08 0)
(-0.0023143675 -9.7431873e-09 0)
(-0.0022730594 -8.6322819e-09 0)
(-0.0022359151 -7.7262681e-09 0)
(-0.0022021458 -6.9834506e-09 -7.444146e-19)
(-0.0021711695 -6.360072e-09 0)
(-0.0021425662 -5.8255741e-09 -6.2094218e-19)
(-0.0021160139 -5.3609996e-09 5.7141788e-19)
(-0.002091252 -4.9537396e-09 -5.2800818e-19)
(-0.0020680643 -4.5940594e-09 0)
(-0.0020462709 -4.2740933e-09 4.5556531e-19)
(-0.0020257212 -3.9876835e-09 0)
(-0.0020062868 -3.730126e-09 -1.987934e-19)
(-0.0019878556 -3.4976468e-09 0)
(-0.0019703303 -3.2868569e-09 -3.5034252e-19)
(-0.0019536265 -3.0951436e-09 3.2990769e-19)
(-0.001937669 -2.9199741e-09 0)
(-0.0019223942 -2.759281e-09 0)
(-0.0019077443 -2.6117785e-09 0)
(-0.001893666 -2.4757489e-09 -2.6388929e-19)
(-0.0018801156 -2.349829e-09 0)
(-0.0018670519 -2.2333412e-09 0)
(-0.001854436 -2.1252283e-09 0)
(-0.0018422352 -2.024416e-09 0)
(-0.0018304206 -1.9304025e-09 -2.0576352e-19)
(-0.001818963 -1.8427385e-09 1.96418e-19)
(-0.0018078365 -1.7605755e-09 0)
(-0.0017970199 -1.6833262e-09 0)
(-0.0017864926 -1.6108493e-09 0)
(-0.0017762335 -1.5427921e-09 1.6444717e-19)
(-0.0017662246 -1.4785351e-09 0)
(-0.0017564511 -1.4177217e-09 0)
(-0.0017468981 -1.3603174e-09 -1.4499832e-19)
(-0.0017375501 -1.3061271e-09 0)
(-0.0017283933 -1.2546772e-09 0)
(-0.0017194172 -1.2056977e-09 0)
(-0.0017106109 -1.1592056e-09 1.235617e-19)
(-0.0017019625 -1.1150876e-09 -5.9429303e-20)
(-0.0016934615 -1.0730615e-09 1.1437898e-19)
(-0.0016850991 -1.0328874e-09 0)
(-0.0016768674 -9.9449972e-10 0)
(-0.0016687579 -9.578894e-10 -1.5315482e-19)
(-0.0016607616 -9.2295472e-10 0)
(-0.0016528709 -8.8944962e-10 9.4807943e-20)
(-0.0016450799 -8.5724798e-10 0)
(-0.0016373823 -8.2638948e-10 0)
(-0.0016297709 -7.9683698e-10 -4.2468178e-20)
(-0.0016222389 -7.6846546e-10 -4.0955991e-20)
(-0.0016147807 -7.4112464e-10 0)
(-0.0016073916 -7.1476474e-10 -7.6188558e-20)
(-0.0016000663 -6.8941523e-10 0)
(-0.0015927987 -6.6505316e-10 0)
(-0.0015855831 -6.4155363e-10 0)
(-0.0015784153 -6.1881663e-10 0)
(-0.0015712911 -5.9684946e-10 0)
(-0.0015642056 -5.7566546e-10 0)
(-0.0015571534 -5.5523905e-10 0)
(-0.0015501294 -5.3546027e-10 0)
(-0.0015431303 -5.1626443e-10 0)
(-0.0015361518 -4.976882e-10 -5.3049913e-20)
(-0.0015291891 -4.7973573e-10 0)
(-0.001522237 -4.6236091e-10 -2.4642039e-20)
(-0.0015152912 -4.4548829e-10 0)
(-0.0015083478 -4.2908758e-10 -2.2868788e-20)
(-0.0015014028 -4.1319154e-10 4.4043138e-20)
(-0.0014944507 -3.9780877e-10 4.2403264e-20)
(-0.001487486 -3.8286464e-10 -2.0405174e-20)
(-0.001480505 -3.6830749e-10 0)
(-0.0014735034 -3.5416606e-10 0)
(-0.0014664754 -3.4045612e-10 3.6289909e-20)
(-0.001459415 -3.2714116e-10 -3.4870571e-20)
(-0.0014523171 -3.1416917e-10 0)
(-0.0014451767 -3.0153484e-10 0)
(-0.001437988 -2.8926192e-10 -3.0832949e-20)
(-0.0014307437 -2.7733379e-10 0)
(-0.0014234374 -2.6570207e-10 0)
(-0.0014160633 -2.5436009e-10 0)
(-0.0014086138 -2.4333387e-10 0)
(-0.0014010802 -2.3260253e-10 0)
(-0.0013934546 -2.2212674e-10 0)
(-0.0013857289 -2.1191257e-10 0)
(-0.0013778931 -2.0198128e-10 0)
(-0.0013699353 -1.9227749e-10 2.0495054e-20)
(-0.0013618477 -1.8286221e-10 -1.9491542e-20)
(-0.0013537951 -1.7396486e-10 0)
(-0.0013460321 -1.6569963e-10 0)
(-0.0013386327 -1.5805773e-10 0)
(-0.001331569 -1.5101031e-10 0)
(-0.0013248144 -1.4451693e-10 0)
(-0.0013183449 -1.3851029e-10 0)
(-0.00131214 -1.3293024e-10 0)
(-0.001306181 -1.2775034e-10 0)
(-0.0013004501 -1.229472e-10 -1.3105068e-20)
(-0.0012949307 -1.1847216e-10 0)
(-0.0012896093 -1.142829e-10 0)
(-0.0012844732 -1.1036502e-10 0)
(-0.0012795103 -1.0670921e-10 0)
(-0.0012747088 -1.033086e-10 0)
(-0.001270057 -1.001311e-10 0)
(-0.0012655463 -9.7202983e-11 0)
(-0.0012611625 -9.4445111e-11 0)
(-0.0012569043 -9.2245864e-11 0)
(-0.0012527216 -8.9824711e-11 0)
(-0.0012486859 -9.003918e-11 0)
(-0.0012444813 -1.5449339e-10 0)
(-0.0012408365 -1.0570151e-10 -1.1351979e-20)
(-0.001234757 -1.2061558e-10 0)
)
;
    }
    back
    {
        type            empty;
    }
    front
    {
        type            empty;
    }
    inlet
    {
        type            calculated;
        value           uniform (0 0 0);
    }
    outlet
    {
        type            calculated;
        value           uniform (0 0 0);
    }
    top
    {
        type            calculated;
        value           uniform (0 0 0);
    }
    slipsurface
    {
        type            calculated;
        value           uniform (0 0 0);
    }
}


// ************************************************************************* //
