/*--------------------------------*- C++ -*----------------------------------*\
  =========                 |
  \\      /  F ield         | OpenFOAM: The Open Source CFD Toolbox
   \\    /   O peration     | Website:  https://openfoam.org
    \\  /    A nd           | Version:  12
     \\/     M anipulation  |
\*---------------------------------------------------------------------------*/
FoamFile
{
    format      ascii;
    class       volScalarField;
    location    "1300";
    object      yPlus;
}
// * * * * * * * * * * * * * * * * * * * * * * * * * * * * * * * * * * * * * //

dimensions      [];

internalField   uniform 0;

boundaryField
{
    inlet
    {
        type            calculated;
        value           uniform 0;
    }
    top
    {
        type            calculated;
        value           uniform 0;
    }
    outlet
    {
        type            calculated;
        value           uniform 0;
    }
    slipsurface
    {
        type            calculated;
        value           uniform 0;
    }
    bottom
    {
        type            calculated;
        value           nonuniform List<scalar> 
100
(
116.32487
115.1501
113.84574
112.43928
110.9541
109.41072
107.81675
106.17449
104.48808
102.77031
101.041
99.329225
97.674788
96.125961
94.728846
93.508346
92.467777
91.59195
90.853158
90.215879
89.663634
89.175185
88.725349
88.299369
87.889983
87.492493
87.105303
86.728233
86.361793
86.006986
85.664242
85.332638
85.010332
84.690633
84.369066
84.04509
83.720628
83.399478
83.085534
82.781536
82.488675
82.207012
81.935974
81.674363
81.42099
81.170626
80.914898
80.63966
80.322115
79.941046
79.518618
79.10619
78.733129
78.405476
78.113088
77.844366
77.590165
77.342613
77.10301
76.869854
76.642187
76.418798
76.198581
75.98078
75.76479
75.550132
75.336607
75.124111
74.912469
74.701464
74.490895
74.280574
74.070339
73.860043
73.649528
73.43865
73.227262
73.015211
72.802371
72.588604
72.373799
72.157922
71.941083
71.724941
71.526013
71.469086
72.634272
73.226973
73.583293
73.71732
73.736277
73.691135
73.609989
73.506805
73.39012
73.263142
73.133217
72.98822
72.863987
72.616408
)
;
    }
    frontandback
    {
        type            empty;
    }
}


// ************************************************************************* //
