#      distance             U_x             U_y             U_z wallShearStr... wallShearStr... wallShearStr...               p           omega               k             nut
  3.0219182e-06     0.018437889   2.6284533e-09  -3.4461368e-23               0               0               0   0.00023276698       5570601.8   3.9968245e-07   3.7390972e-13
  5.0865428e-06     0.031038032   6.6678324e-09  -1.4611537e-23               0               0               0   0.00023276719       1240850.2   1.8252604e-06   3.4559009e-12
  7.2269684e-06     0.044100079   1.3130507e-08  -3.7643235e-23               0               0               0    0.0002327674       495682.18   5.7569111e-06   1.9325628e-11
  9.4750924e-06     0.057816665    2.237893e-08  -5.6458814e-23               0               0               0   0.00023276762       256764.62   1.4417803e-05   7.8819588e-11
  1.1864417e-05     0.072385792   3.4924567e-08  -2.3400985e-23               0               0               0   0.00023276786       152802.43   3.1086342e-05    2.599034e-10
  1.4430548e-05     0.088006876   5.1501786e-08    7.888264e-23               0               0               0   0.00023276811        99058.22   6.0518594e-05   7.3658731e-10
  1.7211727e-05       0.1048687   7.3068652e-08   1.2748065e-22               0               0               0   0.00023276839       68139.934    0.0001094036   1.8611126e-09
  2.0249401e-05      0.12312315   1.0082003e-07   2.8786669e-23               0               0               0   0.00023276872       49052.781   0.00018656236   4.2814121e-09
  2.3588836e-05      0.14283959   1.3617971e-07  -3.0451862e-23               0               0               0    0.0002327691       36671.307   0.00030228809   9.0656002e-09
  2.7279799e-05      0.16394566    1.807371e-07  -1.5225931e-23               0               0               0   0.00023276959       28321.835    0.0004660377   1.7755292e-08
  3.1377293e-05      0.18618218   2.3612604e-07               0               0               0               0   0.00023277021       22484.257   0.00068235536   3.2248229e-08
  3.5942381e-05      0.20911572   3.0390836e-07   7.1949569e-23               0               0               0   0.00023277104       18244.023    0.0009468287   5.4497281e-08
  4.1043091e-05      0.23222702   3.8555551e-07   1.0791281e-22               0               0               0   0.00023277212       15039.648    0.0012453318   8.6183014e-08
  4.6755437e-05       0.2550355   4.8251394e-07   1.2149725e-22               0               0               0   0.00023277354       12530.034    0.0015580305   1.2857468e-07
  5.3164546e-05      0.27720465    5.964605e-07   1.2828728e-22               0               0               0   0.00023277534       10510.288    0.0018656953    1.820524e-07
  6.0365928e-05      0.29857465     7.29621e-07  -1.9330802e-22               0               0               0   0.00023277758        8853.579    0.0021545081   2.4683785e-07
    6.84669e-05      0.31908961    8.847138e-07  -4.1173395e-22               0               0               0   0.00023278038       7476.9372    0.0024168739   3.2495169e-07
  7.7588184e-05      0.33871258   1.0647521e-06  -2.1503828e-22               0               0               0   0.00023278385       6324.5489    0.0026493283   4.1961673e-07
   8.786571e-05        0.357419   1.2731058e-06   6.1355645e-23               0               0               0   0.00023278814        5357.539     0.002851104   5.3377081e-07
  9.9452634e-05      0.37521862   1.5136484e-06    2.723619e-22               0               0               0   0.00023279339       4546.6251    0.0030236991   6.6994517e-07
  0.00011252163      0.39216374   1.7909141e-06   5.6552815e-23               0               0               0   0.00023279971       3867.6644    0.0031701507   8.2954904e-07
  0.00012726745      0.40834854   2.1104008e-06  -1.5312005e-22               0               0               0   0.00023280719       3299.2827     0.003294199   1.0127849e-06
  0.00014390985      0.42388504   2.4786897e-06  -3.8032228e-23               0               0               0     0.000232816       2822.4268    0.0033995543   1.2215792e-06
  0.00016269684      0.43886724   2.9032023e-06   6.8210119e-23               0               0               0   0.00023282633       2421.0096    0.0034893246   1.4605674e-06
  0.00018390838      0.45336296   3.3922368e-06   5.4409909e-22               0               0               0   0.00023283847        2082.004    0.0035658991   1.7344575e-06
  0.00020786057      0.46742738   3.9553782e-06   6.7966299e-22               0               0               0   0.00023285269       1794.8362    0.0036312169   2.0475799e-06
  0.00023491035      0.48110987    4.603706e-06   2.0377402e-22               0               0               0    0.0002328693       1550.8451    0.0036869323   2.4048035e-06
  0.00026546084      0.49445437   5.3499193e-06               0               0               0               0   0.00023288864       1342.9264    0.0037344403   2.8115954e-06
   0.0002999673      0.50749999   6.2085879e-06               0               0               0               0   0.00023291113        1165.241    0.0037749081   3.2740853e-06
  0.00033894396      0.52028148   7.1964411e-06  -1.8512464e-22               0               0               0   0.00023293722       1012.9787    0.0038093065   3.7991348e-06
  0.00038297165      0.53282985   8.3326929e-06  -3.7024928e-22               0               0               0   0.00023296742       882.16472    0.0038384387   4.3944107e-06
  0.00043270649      0.54517278   9.6394165e-06   8.0095916e-22               0               0               0   0.00023300234       769.50508    0.0038629651   5.0684606e-06
  0.00048888965       0.5573351    1.114198e-05   1.5554392e-21               0               0               0   0.00023304263       672.26036    0.0038834246   5.8307906e-06
  0.00055235838      0.56933922    1.286955e-05   5.6935539e-22               0               0               0   0.00023308907       588.14478    0.0039002516   6.6919402e-06
   0.0006240585      0.58120546   1.4855687e-05               0               0               0               0   0.00023314252       515.24438    0.0039137905   7.6635534e-06
  0.00070505852      0.59295243   1.7139031e-05   2.3905842e-22               0               0               0   0.00023320395       451.95103    0.0039243065   8.7584376e-06
  0.00079656552       0.6045973   1.9764113e-05   4.7811685e-22               0               0               0   0.00023327446       396.90902    0.0039319945   9.9906055e-06
  0.00089994316       0.6161561   2.2782316e-05   2.3905843e-22               0               0               0   0.00023335529       348.97169     0.003936985   1.1375289e-05
    0.001016732      0.62764398   2.6253004e-05               0               0               0               0   0.00023344781       307.16617    0.0039393492   1.2928908e-05
   0.0011486725      0.63907552   3.0244875e-05   1.0417274e-21               0               0               0   0.00023355359       270.66455    0.0039391015   1.4668981e-05
   0.0012977308      0.65046493   3.4837582e-05  -7.8789591e-22               0               0               0   0.00023367434       238.76031    0.0039362003   1.6613949e-05
   0.0014661282      0.66182636   4.0123689e-05  -3.4905343e-21               0               0               0   0.00023381195       210.84896    0.0039305478   1.8782869e-05
   0.0016563743      0.67317417   4.6211049e-05  -2.6967078e-21               0               0               0   0.00023396853       186.41203    0.0039219882   2.1194957e-05
   0.0018713042      0.68452326   5.3225724e-05  -1.5854655e-21               0               0               0   0.00023414633       165.00388    0.0039103035   2.3868888e-05
   0.0021141207       0.6958894   6.1315587e-05  -5.4966871e-22               0               0               0   0.00023434782       146.24068    0.0038952081   2.6821806e-05
   0.0023884425      0.70728966   7.0654829e-05  -4.0098685e-22               0               0               0   0.00023457556       129.79136    0.0038763413    3.006793e-05
   0.0026983575      0.71874286   8.1449632e-05   1.2443684e-21               0               0               0   0.00023483226       115.36991    0.0038532563   3.3616633e-05
   0.0030484842       0.7302702   9.3945403e-05  -2.2368201e-21               0               0               0    0.0002351206       102.72911    0.0038254067   3.7469845e-05
   0.0034440402      0.74189594   0.00010843609  -5.6989952e-21               0               0               0   0.00023544315       91.655144    0.0037921286   4.1618598e-05
   0.0038909203      0.75364834    0.0001252763  -1.8168199e-21               0               0               0   0.00023580212       81.963258    0.0037526171    4.603849e-05
    0.004395784      0.76556076   0.00014489741   3.1397402e-21               0               0               0   0.00023619911       73.494058    0.0037058953   5.0683852e-05
   0.0049661549      0.77767316   0.00016782949  -4.6845713e-21               0               0               0   0.00023663466       66.110581     0.003650774   5.5480387e-05
   0.0056105328      0.79003405   0.00019473161  -1.3757682e-20               0               0               0   0.00023710757       59.695993    0.0035857992   6.0316135e-05
   0.0063385204      0.80270301   0.00022643009   5.3445701e-21               0               0               0   0.00023761288       54.151981    0.0035091838   6.5030746e-05
   0.0071609664      0.81575413   0.00026394776   1.8558425e-20               0               0               0   0.00023813777       49.397995    0.0034187226   6.9403391e-05
   0.0080901272      0.82929284    0.0003086529   2.9365154e-20               0               0               0   0.00023866643       45.366285    0.0033113889   7.3002839e-05
   0.0091398493      0.84349117   0.00036255473   3.4051209e-20               0               0               0   0.00023918413       41.988108    0.0031823967    7.515008e-05
    0.010325776      0.85859791   0.00042856747   1.6023079e-20               0               0               0   0.00023965465       39.180365    0.0030240955   7.5298404e-05
     0.01166558      0.87491332   0.00051062638   4.0565423e-21               0               0               0   0.00024000762         36.8333    0.0028246292   7.3109864e-05
    0.013179228      0.89277149   0.00061403863   1.7909587e-20               0               0               0   0.00024015094       34.787084     0.002566598   6.8305391e-05
    0.014889277      0.91247591   0.00074574781   1.6571056e-20               0               0               0    0.0002399365       32.818677    0.0022283427   6.0909656e-05
    0.016821209       0.9340324   0.00091052922   5.0714755e-20               0               0               0   0.00023904301       30.697578    0.0017936185   5.1466126e-05
    0.019003816      0.95679139    0.0011121056   7.7419692e-20               0               0               0   0.00023727387       28.146649     0.001263499   4.0159286e-05
    0.021469624      0.97883342    0.0013395429   4.3864652e-20               0               0               0   0.00023446774       23.077343   0.00068844549   2.6268127e-05
    0.024255377      0.99526717    0.0015166045   2.4054417e-20               0               0               0   0.00022960056        14.33236   0.00023565783   1.2129063e-05
    0.027402591       1.0024697    0.0015843228   5.5561262e-21               0               0               0   0.00022278754        7.312557   3.6688864e-05   3.1149704e-06
    0.030958166        1.003776    0.0015883049               0               0               0               0   0.00021582924       5.3269947   1.7760466e-06   3.2426189e-07
    0.034975088       1.0038179    0.0015795054               0               0               0               0   0.00020933811       5.2603575   6.5595349e-07   1.2469782e-07
    0.039513219       1.0038155     0.001569376   1.9703165e-20               0               0               0   0.00020287729       5.2618482   6.5391265e-07   1.2427305e-07
    0.044640187       1.0038176    0.0015601515   2.9551658e-20               0               0               0    0.0001962187       5.2622593   6.5412435e-07   1.2430341e-07
    0.050432395       1.0038245    0.0015498646   9.8484574e-21               0               0               0   0.00018935981       5.2622372   6.5413622e-07   1.2430619e-07
    0.056976161       1.0038303    0.0015380533               0               0               0               0   0.00018239831       5.2622295   6.5413299e-07   1.2430576e-07
    0.064369002       1.0038309    0.0015254742               0               0               0               0   0.00017550898       5.2622238   6.5413179e-07   1.2430567e-07
    0.072721087       1.0038279    0.0015117654               0               0               0               0   0.00016884477       5.2622136   6.5413018e-07    1.243056e-07
    0.082156882       1.0038227    0.0014970804               0               0               0               0   0.00016249313       5.2621961   6.5412763e-07   1.2430553e-07
    0.092817002        1.003815    0.0014811885               0               0               0               0   0.00015653502       5.2621689   6.5412383e-07   1.2430545e-07
