#      distance             U_x             U_y             U_z wallShearStr... wallShearStr... wallShearStr...               p           omega               k             nut
              0      0.99938702               0               0               0               0               0    0.0046624795       47.550214   6.8405245e-06   1.4384071e-07
   0.0021021021      0.99936892               0               0               0               0               0    0.0046806695       47.401472    6.804151e-06   1.4352379e-07
   0.0042042042      0.99935083               0               0               0               0               0    0.0046988596       47.252731   6.7677775e-06   1.4320687e-07
   0.0063063063      0.99933274               0               0               0               0               0    0.0047170497       47.103989    6.731404e-06   1.4288994e-07
   0.0084084084      0.99931464               0               0               0               0               0    0.0047352397       46.955248   6.6950305e-06   1.4257302e-07
    0.010510511      0.99929413               0               0               0               0               0    0.0047558566       46.818501   6.6609015e-06   1.4226068e-07
    0.012612613      0.99927211               0               0               0               0               0    0.0047779806       46.689204   6.6281665e-06   1.4195119e-07
    0.014714715       0.9992501               0               0               0               0               0    0.0048001046       46.559907   6.5954315e-06    1.416417e-07
    0.016816817      0.99922808               0               0               0               0               0    0.0048222286        46.43061   6.5626965e-06    1.413322e-07
    0.018918919      0.99920607               0               0               0               0               0    0.0048443526       46.301313   6.5299615e-06   1.4102271e-07
    0.021021021      0.99918344               0               0               0               0               0    0.0048670936       46.173921   6.4975899e-06   1.4071418e-07
    0.023123123      0.99915666               0               0               0               0               0    0.0048939821        46.05934   6.4676615e-06   1.4041207e-07
    0.025225225      0.99912988               0               0               0               0               0    0.0049208706       45.944758   6.4377331e-06   1.4010996e-07
    0.027327327      0.99910311               0               0               0               0               0    0.0049477591       45.830177   6.4078046e-06   1.3980786e-07
    0.029429429      0.99907633               0               0               0               0               0    0.0049746476       45.715595   6.3778762e-06   1.3950575e-07
    0.031531532      0.99904806               0               0               0               0               0    0.0050030236       45.603941   6.3485162e-06   1.3920547e-07
    0.033633634      0.99901544               0               0               0               0               0    0.0050357445       45.500838   6.3208166e-06   1.3891049e-07
    0.035735736      0.99898282               0               0               0               0               0    0.0050684654       45.397735   6.2931171e-06   1.3861552e-07
    0.037837838       0.9989502               0               0               0               0               0    0.0051011862       45.294632   6.2654175e-06   1.3832054e-07
     0.03993994      0.99891758               0               0               0               0               0    0.0051339071       45.191529   6.2377179e-06   1.3802557e-07
    0.042042042      0.99887829               0               0               0               0               0    0.0051732436       45.096815   6.2116741e-06   1.3773676e-07
    0.044144144      0.99883839               0               0               0               0               0    0.0052132002       45.002887   6.1857854e-06   1.3744854e-07
    0.046246246      0.99879848               0               0               0               0               0    0.0052531568       44.908958   6.1598968e-06   1.3716031e-07
    0.048348348      0.99875824               0               0               0               0               0    0.0052934486       44.815305   6.1340631e-06   1.3687232e-07
     0.05045045      0.99870912               0               0               0               0               0    0.0053425391       44.728873   6.1096744e-06   1.3659038e-07
    0.052552553         0.99866               0               0               0               0               0    0.0053916296       44.642441   6.0852856e-06   1.3630845e-07
    0.054654655      0.99861089               0               0               0               0               0    0.0054407201       44.556009   6.0608968e-06   1.3602651e-07
    0.056756757      0.99855505               0               0               0               0               0    0.0054963962       44.473058   6.0372131e-06   1.3574783e-07
    0.058858859      0.99849392               0               0               0               0               0    0.0055572641       44.392852   6.0140854e-06   1.3547173e-07
    0.060960961      0.99843279               0               0               0               0               0    0.0056181321       44.312645   5.9909577e-06   1.3519562e-07
    0.063063063      0.99836494               0               0               0               0               0    0.0056856666       44.234714    5.968291e-06   1.3492175e-07
    0.065165165      0.99828801               0               0               0               0               0    0.0057622142       44.159862   5.9462477e-06   1.3465091e-07
    0.067267267      0.99821108               0               0               0               0               0    0.0058387617       44.085009   5.9242044e-06   1.3438008e-07
    0.069369369      0.99812068               0               0               0               0               0    0.0059278997       44.012659   5.9026922e-06   1.3411224e-07
    0.071471471      0.99802067               0               0               0               0               0    0.0060260146       43.942095   5.8815585e-06   1.3384655e-07
    0.073573574      0.99792066               0               0               0               0               0    0.0061241294        43.87153   5.8604249e-06   1.3358086e-07
    0.075675676      0.99779069               0               0               0               0               0    0.0062539226       43.806125   5.8402229e-06   1.3331867e-07
    0.077777778      0.99766038               0               0               0               0               0    0.0063840754       43.740779   5.8200315e-06   1.3305651e-07
     0.07987988      0.99749216               0               0               0               0               0    0.0065433154        43.67455   5.7999598e-06   1.3279867e-07
    0.081981982      0.99729845               0               0               0               0               0    0.0067221111       43.607727   5.7799685e-06   1.3254372e-07
    0.084084084      0.99708101               0               0               0               0               0    0.0069365039       43.548196   5.7611338e-06    1.322927e-07
    0.086186186      0.99682362               0               0               0               0               0    0.0072108594       43.500946   5.7442474e-06   1.3204829e-07
    0.088288288      0.99642811               0  -3.2235908e-22               0               0               0    0.0075251061       43.434763   5.7246113e-06   1.3179728e-07
     0.09039039      0.99567065               0  -1.4894775e-21               0               0               0    0.0079438894       43.318964   5.6977694e-06   1.3152899e-07
    0.092492492       0.9949427               0    8.034314e-18               0               0               0    0.0085560529       47.670521   5.7738804e-06   1.2672799e-07
    0.094594595      0.99429253               0   3.7262479e-17               0               0               0    0.0096781324        63.80187    6.121464e-06   1.0997485e-07
    0.096696697      0.90626742               0   5.6662812e-17  -0.00046036519  -3.0792532e-06               0     0.010450979       1403653.5   5.8553505e-06   8.7305942e-08
    0.098798799      0.64577329               0   5.6664033e-17   -0.0018294433  -1.2236631e-05               0     0.010534477       5577750.9    4.377863e-06   5.2959924e-08
      0.1009009      0.38533232               0    4.394022e-17   -0.0028987911  -1.7533097e-05   8.0155354e-20    0.0096878221       9751068.6   2.7420357e-06     2.58483e-08
       0.103003      0.12496223               0   1.4249695e-17   -0.0035684986   -1.768168e-05   2.6718451e-19    0.0076009639        13923347   8.9508834e-07   8.3825339e-09
     0.10510511               0               0               0   -0.0035207946  -1.3031781e-05   4.5647208e-19    0.0059401877        15925793   1.2719857e-08               0
     0.10720721               0               0               0   -0.0028110215   -3.953564e-06   6.4784385e-19     0.004672625        15925793   2.0520753e-08               0
     0.10930931               0               0               0   -0.0025151553  -2.0070626e-07   5.7269992e-19    0.0042350747        15925793   2.6485283e-08               0
     0.11141141               0               0               0   -0.0024997175  -5.5864384e-08   3.1698736e-19    0.0043598711        15925793   3.1205644e-08               0
     0.11351351               0               0               0   -0.0024867277  -7.0503438e-09   1.0558973e-19    0.0044860929        15925793   3.3319553e-08               0
     0.11561562               0               0               0   -0.0024750208  -8.5597869e-09  -8.2584621e-20    0.0046130616        15925793   3.4067547e-08               0
     0.11771772               0               0               0   -0.0024513214  -1.0564224e-08  -8.9824362e-20    0.0046241501        15925793    3.378104e-08               0
     0.11981982               0               0               0   -0.0024224706  -1.2781291e-08  -1.9341527e-20    0.0045854609        15925793   3.3050151e-08               0
     0.12192192               0               0               0   -0.0023919525  -1.3309378e-08               0    0.0045065541        15925793   3.2168547e-08               0
     0.12402402               0               0               0   -0.0023608039  -1.3198696e-08               0    0.0044124371        15925793   3.1229944e-08               0
     0.12612613               0               0               0   -0.0023321248  -1.2569233e-08               0    0.0043377916        15925793   3.0380803e-08               0
     0.12822823               0               0               0   -0.0023043421  -1.1751472e-08               0    0.0042702135        15925793   2.9564134e-08               0
     0.13033033               0               0               0   -0.0022794506  -1.0948518e-08               0    0.0042220903        15925793   2.8838696e-08               0
     0.13243243               0               0               0    -0.002255666  -1.0151232e-08               0    0.0041814145        15925793   2.8148183e-08               0
     0.13453453               0               0               0   -0.0022341198  -9.4716221e-09  -1.4519544e-19    0.0041443053        15925793    2.752435e-08               0
     0.13663664               0               0               0   -0.0022135638  -8.8440704e-09  -3.5462265e-19     0.004108774        15925793   2.6930015e-08               0
     0.13873874               0               0               0   -0.0021946323  -8.3039538e-09  -4.2931185e-19    0.0040733769        15925793   2.6386038e-08               0
     0.14084084               0               0               0   -0.0021766013  -7.8123052e-09  -4.2931189e-19    0.0040380544        15925793   2.5869974e-08               0
     0.14294294               0               0               0   -0.0021597345  -7.3827813e-09  -4.0592391e-19    0.0040041441        15925793   2.5390828e-08               0
     0.14504505               0               0               0   -0.0021437366  -6.9996246e-09  -3.6508013e-19     0.003971288        15925793   2.4939236e-08               0
     0.14714715               0               0               0   -0.0021284854   -6.660167e-09  -2.7229836e-19    0.0039397934        15925793   2.4510441e-08               0
     0.14924925               0               0               0   -0.0021140421  -6.3679935e-09  -1.2331734e-19    0.0039097719        15925793   2.4106314e-08               0
     0.15135135               0               0               0   -0.0021000411  -6.0953939e-09  -1.9506208e-20    0.0038805433        15925793   2.3715601e-08               0
     0.15345345               0               0               0   -0.0020868076  -5.8567598e-09   5.9235755e-21    0.0038526904        15925793   2.3348166e-08               0
     0.15555556               0               0               0   -0.0020738187  -5.6244419e-09   -7.618029e-21    0.0038252604        15925793   2.2988577e-08               0
     0.15765766               0               0               0   -0.0020616589  -5.4135475e-09  -1.5334315e-19    0.0037992648        15925793   2.2655601e-08               0
     0.15975976               0               0               0   -0.0020495627  -5.2040966e-09  -2.7340498e-19      0.00377339        15925793   2.2324672e-08               0
     0.16186186               0               0               0   -0.0020383704  -5.0151589e-09  -2.8791932e-20    0.0037492315        15925793   2.2022836e-08               0
     0.16396396               0               0               0    -0.002027178  -4.8262212e-09   2.1582112e-19    0.0037250729        15925793      2.1721e-08               0
     0.16606607               0               0               0   -0.0020167611  -4.6553678e-09   2.4545238e-19     0.003702516        15925793   2.1443747e-08               0
     0.16816817               0               0               0   -0.0020064511   -4.487007e-09   2.4545241e-19    0.0036801798        15925793   2.1169884e-08               0
     0.17027027               0               0               0    -0.001996664  -4.3329293e-09   1.4115287e-19    0.0036588422        15925793   2.0912247e-08               0
     0.17237237               0               0               0   -0.0019871391    -4.18601e-09  -1.5420103e-20    0.0036380051        15925793   2.0662742e-08               0
     0.17447447               0               0               0   -0.0019779075  -4.0471083e-09  -1.0519479e-19    0.0036177294        15925793   2.0422203e-08               0
     0.17657658               0               0               0   -0.0019690701  -3.9189817e-09   -1.051948e-19    0.0035982082        15925793   2.0193713e-08               0
     0.17867868               0               0               0   -0.0019603304  -3.7933412e-09  -1.1058441e-19      0.00357886        15925793   1.9968182e-08               0
     0.18078078               0               0               0   -0.0019521057  -3.6808157e-09  -1.4440753e-19    0.0035604239        15925793   1.9758258e-08               0
     0.18288288               0               0               0    -0.001943881  -3.5682902e-09  -1.7823066e-19    0.0035419878        15925793   1.9548334e-08               0
     0.18498498               0               0               0   -0.0019361258  -3.4676563e-09  -1.1926528e-19    0.0035244358        15925793   1.9352477e-08               0
     0.18708709               0               0               0   -0.0019284449  -3.3689056e-09  -4.5604929e-20    0.0035070238        15925793   1.9158849e-08               0
     0.18918919               0               0               0   -0.0019210242  -3.2761921e-09   3.0164389e-20    0.0034900771        15925793   1.8972939e-08               0
     0.19129129               0               0               0   -0.0019138275   -3.188676e-09   1.0774929e-19    0.0034735309        15925793   1.8793674e-08               0
     0.19339339               0               0               0   -0.0019067101  -3.1027677e-09   1.5837907e-19    0.0034571341        15925793   1.8616746e-08               0
      0.1954955               0               0               0   -0.0018999526   -3.024157e-09   8.6661426e-20    0.0034414159        15925793   1.8450422e-08               0
      0.1975976               0               0               0    -0.001893195  -2.9455463e-09   1.4943779e-20    0.0034256977        15925793   1.8284098e-08               0
      0.1996997               0               0               0   -0.0018867554  -2.8728892e-09               0     0.003410704        15925793   1.8127001e-08               0
      0.2018018               0               0               0   -0.0018803995  -2.8017992e-09               0     0.003395901        15925793   1.7972333e-08               0
      0.2039039               0               0               0   -0.0018741799  -2.7333569e-09  -2.0238638e-20    0.0033812755        15925793   1.7821577e-08               0
     0.20600601               0               0               0    -0.001868193  -2.6694332e-09  -7.5016857e-20    0.0033669529        15925793   1.7677496e-08               0
     0.20810811               0               0               0    -0.001862206  -2.6055096e-09  -1.2979508e-19    0.0033526302        15925793   1.7533415e-08               0
     0.21021021               0               0               0    -0.001856524   -2.547269e-09  -1.3457102e-19    0.0033389133        15925793   1.7398046e-08               0
     0.21231231               0               0               0   -0.0018508712  -2.4895713e-09  -1.3457105e-19    0.0033252542        15925793   1.7263508e-08               0
     0.21441441               0               0               0   -0.0018453486  -2.4339601e-09  -1.1220601e-19    0.0033119456        15925793   1.7132627e-08               0
     0.21651652               0               0               0   -0.0018400055  -2.3812256e-09  -5.9005809e-20    0.0032991202        15925793   1.7006788e-08               0
     0.21861862               0               0               0   -0.0018346624  -2.3284911e-09   -5.805606e-21    0.0032862949        15925793   1.6880949e-08               0
     0.22072072               0               0               0   -0.0018295751  -2.2805463e-09               0    0.0032737124        15925793   1.6762201e-08               0
     0.22282282               0               0               0   -0.0018245191  -2.2331882e-09               0    0.0032611597        15925793   1.6644322e-08               0
     0.22492492               0               0               0   -0.0018195462  -2.1873475e-09               0     0.003248769        15925793   1.6528746e-08               0
     0.22702703               0               0               0   -0.0018147477  -2.1446894e-09               0     0.003236718        15925793   1.6417998e-08               0
     0.22912913               0               0               0   -0.0018099491  -2.1020313e-09               0     0.003224667        15925793    1.630725e-08               0
     0.23123123               0               0               0   -0.0018053227  -2.0616647e-09  -2.7819929e-20      0.00321313        15925793   1.6201201e-08               0
     0.23333333               0               0               0   -0.0018007649  -2.0222119e-09  -6.6734326e-20    0.0032017979        15925793   1.6097027e-08               0
     0.23543544               0               0               0   -0.0017962219  -1.9829935e-09   -1.007117e-19     0.003190479        15925793   1.5993252e-08               0
     0.23753754               0               0               0    -0.001791891  -1.9471193e-09  -6.4236991e-20    0.0031793475        15925793   1.5895186e-08               0
     0.23963964               0               0               0   -0.0017875602  -1.9112451e-09  -2.7762279e-20    0.0031682159        15925793    1.579712e-08               0
     0.24174174               0               0               0   -0.0017833059  -1.8766455e-09   9.1573051e-21    0.0031572002        15925793    1.570112e-08               0
     0.24384384               0               0               0   -0.0017791805  -1.8441879e-09   4.6824584e-20    0.0031463789        15925793   1.5608591e-08               0
     0.24594595               0               0               0   -0.0017750551  -1.8117303e-09   8.4491862e-20    0.0031355576        15925793   1.5516063e-08               0
     0.24804805               0               0               0   -0.0017710521   -1.780712e-09   7.5771107e-20    0.0031251233        15925793   1.5426799e-08               0
     0.25015015               0               0               0   -0.0017671191  -1.7505178e-09   4.0490063e-20    0.0031149104        15925793   1.5339403e-08               0
     0.25225225               0               0               0   -0.0017631861  -1.7203235e-09   5.2090191e-21    0.0031046975        15925793   1.5252007e-08               0
     0.25435435               0               0               0   -0.0017594097  -1.6922245e-09               0    0.0030947405        15925793   1.5168704e-08               0
     0.25645646               0               0               0   -0.0017556605  -1.6644883e-09               0    0.0030848279        15925793   1.5086111e-08               0
     0.25855856               0               0               0   -0.0017519147  -1.6368087e-09   5.8295494e-22    0.0030749172        15925793   1.5003608e-08               0
     0.26066066               0               0               0   -0.0017483332  -1.6118231e-09   2.8888762e-20    0.0030651019        15925793   1.4925393e-08               0
     0.26276276               0               0               0   -0.0017447516  -1.5868374e-09   5.7194569e-20    0.0030552866        15925793   1.4847177e-08               0
     0.26486486               0               0               0   -0.0017411916  -1.5621016e-09   8.1573525e-20     0.003045533        15925793   1.4769525e-08               0
     0.26696697               0               0               0   -0.0017377648  -1.5389172e-09   8.1573545e-20    0.0030361631        15925793   1.4695365e-08               0
     0.26906907               0               0               0   -0.0017343381  -1.5157328e-09   8.1573564e-20    0.0030267933        15925793   1.4621206e-08               0
     0.27117117               0               0               0    -0.001730942  -1.4928346e-09   7.5983118e-20     0.003017528        15925793   1.4547832e-08               0
     0.27327327               0               0               0   -0.0017276651  -1.4710477e-09   4.8683648e-20    0.0030086689        15925793    1.447751e-08               0
     0.27537538               0               0               0   -0.0017243882  -1.4492608e-09   2.1384177e-20    0.0029998099        15925793   1.4407187e-08               0
     0.27747748               0               0               0   -0.0017211419  -1.4278981e-09   -5.094134e-21    0.0029909642        15925793   1.4337636e-08               0
     0.27957958               0               0               0   -0.0017180064   -1.408069e-09    -2.86039e-20     0.002982167        15925793    1.427087e-08               0
     0.28168168               0               0               0   -0.0017148709  -1.3882399e-09  -5.2113666e-20    0.0029733699        15925793   1.4204103e-08               0
     0.28378378               0               0               0   -0.0017117575  -1.3687205e-09   -7.157382e-20    0.0029645836        15925793   1.4137902e-08               0
     0.28588589               0               0               0   -0.0017087508  -1.3506894e-09  -7.1573839e-20    0.0029558498        15925793   1.4074415e-08               0
     0.28798799               0               0               0   -0.0017057441  -1.3326582e-09  -7.1573858e-20     0.002947116        15925793   1.4010928e-08               0
     0.29009009               0               0               0   -0.0017027459  -1.3147183e-09   -7.000818e-20     0.002938414        15925793   1.3947656e-08               0
     0.29219219               0               0               0    -0.001699861  -1.2980046e-09   -4.738716e-20      0.00293014        15925793   1.3887274e-08               0
     0.29429429               0               0               0   -0.0016969762  -1.2812909e-09  -2.4766141e-20     0.002921866        15925793   1.3826891e-08               0
      0.2963964               0               0               0   -0.0016940914  -1.2645772e-09  -2.1451218e-21     0.002913592        15925793   1.3766509e-08               0
      0.2984985               0               0               0   -0.0016913105  -1.2491894e-09               0    0.0029056851        15925793   1.3708638e-08               0
      0.3006006               0               0               0   -0.0016885405  -1.2339406e-09               0    0.0028978168        15925793    1.365103e-08               0
      0.3027027               0               0               0   -0.0016857705  -1.2186918e-09               0    0.0028899484        15925793   1.3593422e-08               0
      0.3048048               0               0               0   -0.0016830718   -1.204316e-09   1.2556816e-20    0.0028820803        15925793   1.3537479e-08               0
     0.30690691               0               0               0   -0.0016804071  -1.1903556e-09   3.1087951e-20    0.0028742124        15925793   1.3482328e-08               0
     0.30900901               0               0               0   -0.0016777424  -1.1763952e-09   4.9619086e-20    0.0028663445        15925793   1.3427177e-08               0
     0.31111111               0               0               0   -0.0016751163  -1.1627082e-09   5.7687331e-20    0.0028584972        15925793   1.3372967e-08               0
     0.31321321               0               0               0   -0.0016725522    -1.14946e-09   4.8962283e-20    0.0028506831        15925793   1.3320265e-08               0
     0.31531532               0               0               0   -0.0016699881  -1.1362118e-09   4.0237234e-20     0.002842869        15925793   1.3267564e-08               0
     0.31741742               0               0               0   -0.0016674261  -1.1229744e-09   3.1668248e-20    0.0028350634        15925793   1.3214915e-08               0
     0.31951952               0               0               0    -0.001664961  -1.1102363e-09   3.0310685e-20    0.0028276499        15925793   1.3164661e-08               0
     0.32162162               0               0               0   -0.0016624959  -1.0974981e-09   2.8953122e-20    0.0028202364        15925793   1.3114408e-08               0
     0.32372372               0               0               0   -0.0016600308  -1.0847599e-09   2.7595559e-20    0.0028128229        15925793   1.3064154e-08               0
     0.32582583               0               0               0   -0.0016576225   -1.072446e-09   3.1938323e-20    0.0028056193        15925793   1.3015266e-08               0
     0.32792793               0               0               0   -0.0016552543   -1.060431e-09   4.0298283e-20    0.0027985636        15925793    1.296734e-08               0
     0.33003003               0               0               0   -0.0016528861  -1.0484161e-09   4.8658242e-20    0.0027915079        15925793   1.2919414e-08               0
     0.33213213               0               0               0    -0.001650525  -1.0364768e-09   5.5163614e-20    0.0027844539        15925793   1.2871655e-08               0
     0.33423423               0               0               0   -0.0016482485  -1.0254437e-09    3.945091e-20    0.0027774199        15925793   1.2825906e-08               0
     0.33633634               0               0               0   -0.0016459721  -1.0144106e-09   2.3738206e-20    0.0027703858        15925793   1.2780156e-08               0
     0.33843844               0               0               0   -0.0016436956  -1.0033775e-09   8.0255015e-21    0.0027633518        15925793   1.2734406e-08               0
     0.34054054               0               0               0   -0.0016414609  -9.9276992e-10  -1.0041633e-20    0.0027563263        15925793   1.2689661e-08               0
     0.34264264               0               0               0   -0.0016392699  -9.8260665e-10  -3.0566812e-20    0.0027493097        15925793   1.2645966e-08               0
     0.34474474               0               0               0   -0.0016370788  -9.7244339e-10  -5.1091991e-20    0.0027422932        15925793    1.260227e-08               0
     0.34684685               0               0               0   -0.0016348878  -9.6228012e-10   -7.161717e-20    0.0027352766        15925793   1.2558575e-08               0
     0.34894895               0               0               0   -0.0016327637  -9.5260868e-10  -7.5317056e-20    0.0027284868        15925793   1.2516489e-08               0
     0.35105105               0               0               0   -0.0016306543   -9.430454e-10  -7.5317085e-20    0.0027217468        15925793   1.2474757e-08               0
     0.35315315               0               0               0   -0.0016285449  -9.3348212e-10  -7.5317114e-20    0.0027150068        15925793   1.2433024e-08               0