#      distance             U_x             U_y             U_z wallShearStr... wallShearStr... wallShearStr...               p         epsilon               k             nut
    0.001215373      0.64045536   3.8095221e-05  -2.4271285e-20               0               0               0    0.0002470866      0.13705677    0.0042648986   1.5757965e-05
   0.0020572852      0.69663292   6.0727061e-05  -5.4288006e-22               0               0               0   0.00024790032     0.067934636    0.0041769108   2.5506954e-05
   0.0029273097      0.73280519   9.1385061e-05   2.9245677e-21               0               0               0   0.00024871769     0.043797182    0.0040267793    3.497277e-05
   0.0038263852      0.76030149   0.00012579625   1.2650564e-20               0               0               0   0.00024956123     0.031987701    0.0038981202    4.396678e-05
   0.0047554818      0.78290652   0.00016359767   2.5641987e-20               0               0               0   0.00025045437     0.024987677    0.0037755696   5.2275062e-05
   0.0057156019      0.80240777   0.00020499786   1.9076402e-20               0               0               0   0.00025138585     0.020332951    0.0036519542   5.9772205e-05
   0.0067077814      0.81978693   0.00025020511   9.6563238e-21               0               0               0   0.00025234055     0.016989044    0.0035235653   6.6372941e-05
   0.0077330908      0.83563951   0.00029942133   1.0404302e-20               0               0               0   0.00025330781     0.014447311    0.0033881743   7.2012128e-05
   0.0087926364      0.85035271   0.00035287892   -8.186314e-21               0               0               0   0.00025427959     0.012428736    0.0032442394   7.6635907e-05
   0.0098875613      0.86419108   0.00041084848  -4.7395823e-20               0               0               0   0.00025524647     0.010767467    0.0030905671   8.0197555e-05
    0.011019047      0.87734154    0.0004734824  -5.7557771e-20               0               0               0    0.0002561935    0.0093587095    0.0029261627   8.2655598e-05
    0.012188314      0.88993862   0.00054100691  -1.4988675e-20               0               0               0   0.00025710513    0.0081330577    0.0027501739   8.3973199e-05
    0.013396624      0.90207898   0.00061380521   2.1560713e-20               0               0               0   0.00025797011    0.0070429255    0.0025618875   8.4118521e-05
    0.014645281      0.91382972    0.0006919971   1.3978176e-20               0               0               0   0.00025877856    0.0060549961    0.0023607708   8.3066101e-05
    0.015935632       0.9252325    0.0007755889  -6.7539063e-22               0               0               0   0.00025951735    0.0051459255    0.0021465609   8.0799662e-05
    0.017269069      0.93630439   0.00086458041  -2.6861435e-21               0               0               0   0.00026016833    0.0042999621    0.0019194232   7.7317296e-05
    0.018647031      0.94703511   0.00095872024               0               0               0               0   0.00026071196    0.0035078426    0.0016802191    7.264105e-05
    0.020071004      0.95737977    0.0010573767  -3.6100551e-21               0               0               0   0.00026112993    0.0027666948    0.0014309634   6.6835342e-05
    0.021542526      0.96724436    0.0011592948  -3.6100553e-21               0               0               0   0.00026140531    0.0020808752    0.0011756152   6.0044309e-05
    0.023063183      0.97645902    0.0012621583   3.5966358e-21               0               0               0   0.00026152501    0.0014636142   0.00092143645   5.2571797e-05
    0.024634616      0.98473581    0.0013617886   2.7342793e-20               0               0               0   0.00026147773   0.00093831269    0.0006810338   4.5055182e-05
    0.026258521      0.99164072    0.0014511022   4.7903119e-20               0               0               0    0.0002612399   0.00053440819   0.00047360433   3.8790593e-05
     0.02793665      0.99671953    0.0015205324   3.1129866e-20               0               0               0    0.0002607514    0.0002693926   0.00031947411   3.5998058e-05
    0.029670814      0.99986656    0.0015650531   6.9729051e-21               0               0               0   0.00025994764   0.00012679851   0.00022547121   3.9206525e-05
    0.031462883       1.0015194    0.0015889158   5.7109232e-21               0               0               0   0.00025885071   6.2490098e-05   0.00017816893   4.9621635e-05
    0.033314791       1.0023207    0.0016005299    -5.76166e-22               0               0               0   0.00025756074   3.5394636e-05     0.000156801   6.6294121e-05
    0.035228536       1.0027227    0.0016062688  -6.2870906e-21               0               0               0   0.00025616066   2.3188696e-05   0.00014706022   8.7117369e-05
    0.037206184       1.0029441     0.001609163  -2.1772745e-21               0               0               0   0.00025469467   1.6936239e-05   0.00014229733   0.00011014058
    0.039249867       1.0030777    0.0016105958  -1.9903801e-20               0               0               0   0.00025318471   1.3326184e-05   0.00013980961   0.00013400706
     0.04136179       1.0031643    0.0016112046  -3.5343521e-20               0               0               0   0.00025163171   1.1040417e-05   0.00013846456   0.00015785783
    0.043544233       1.0032234    0.0016113165  -1.7616995e-20               0               0               0   0.00025002761   9.4902384e-06   0.00013774411   0.00018116803
     0.04579955       1.0032653    0.0016111058               0               0               0               0   0.00024836669   8.3829616e-06   0.00013738878   0.00020362991
    0.048130175       1.0032956    0.0016106656  -1.4264574e-20               0               0               0   0.00024664713   7.5595891e-06   0.00013725802   0.00022507822
    0.050538621       1.0033178    0.0016100523  -2.6746206e-20               0               0               0   0.00024486797   6.9273377e-06   0.00013727057   0.00024544301
    0.053027488       1.0033341    0.0016093039  -1.2481632e-20               0               0               0   0.00024302801   6.4288225e-06   0.00013737685   0.00026471865
    0.055599461       1.0033458    0.0016084476  -1.1553929e-20               0               0               0    0.0002411262    6.026813e-06   0.00013754528   0.00028294345
    0.058257315       1.0033541    0.0016075039  -3.4477897e-20               0               0               0   0.00023916239   5.6961734e-06   0.00013775502    0.0003001853
    0.061003917       1.0033598    0.0016064889  -2.6870772e-20               0               0               0   0.00023713824   5.4193554e-06   0.00013799184   0.00031653134
    0.063842231       1.0033635    0.0016054083   7.2799248e-21               0               0               0   0.00023505622   5.1837572e-06   0.00013824586   0.00033208072
     0.06677532       1.0033655     0.001604265    2.628442e-20               0               0               0   0.00023291703   4.9801114e-06   0.00013851005   0.00034693915
    0.069806347       1.0033664    0.0016030604   2.6078731e-20               0               0               0   0.00023071814   4.8014663e-06    0.0001387794   0.00036121487
    0.072938584       1.0033663    0.0016017893    1.534058e-20               0               0               0   0.00022845363   4.6425228e-06   0.00013905031   0.00037501557
    0.076175409       1.0033654    0.0016004408   4.3195417e-21               0               0               0   0.00022611629     4.49919e-06    0.0001393202   0.00038844618
    0.079520315       1.0033639    0.0015990149               0               0               0               0   0.00022370486   4.3682794e-06   0.00013958727   0.00040160719
    0.082976911       1.0033617    0.0015975164   5.3410411e-21               0               0               0   0.00022123204   4.2472908e-06   0.00013985026   0.00041459349
    0.086548926       1.0033593    0.0015959461  -2.4485065e-21               0               0               0    0.0002187219   4.1342569e-06   0.00014010837   0.00042749356
    0.090240215        1.003357    0.0015942682  -2.4308684e-21               0               0               0    0.0002161906   4.0276287e-06   0.00014036111   0.00044038907
     0.09405476       1.0033555     0.001592436   2.2222534e-20               0               0               0   0.00021363141   3.9261892e-06   0.00014060822   0.00045335469
