#      distance             U_x             U_y             U_z wallShearStr... wallShearStr... wallShearStr...               p         epsilon               k             nut
  5.5511169e-17      0.99958132   2.5033383e-22               0               0               0               0    0.0041352991   7.4558624e-06   0.00014826121   0.00026533845
   0.0021021021      0.99956964   2.5033383e-22               0               0               0               0    0.0041468981   7.4557001e-06   0.00014824476   0.00026528534
   0.0042042042      0.99955795   2.5033383e-22               0               0               0               0    0.0041584972   7.4555378e-06    0.0001482283   0.00026523224
   0.0063063063      0.99954626   2.5033383e-22               0               0               0               0    0.0041700962   7.4553755e-06   0.00014821185   0.00026517913
   0.0084084084      0.99953457   2.5033383e-22               0               0               0               0    0.0041816953   7.4552132e-06    0.0001481954   0.00026512603
    0.010510511      0.99952289   2.5033383e-22               0               0               0               0    0.0041932943   7.4550509e-06   0.00014817895   0.00026507292
    0.012612613       0.9995112   2.5033383e-22               0               0               0               0    0.0042048934   7.4548886e-06    0.0001481625   0.00026501982
    0.014714715      0.99949951   2.5033383e-22               0               0               0               0    0.0042164924   7.4547263e-06   0.00014814605   0.00026496671
    0.016816817      0.99948782   2.5033383e-22               0               0               0               0    0.0042280915    7.454564e-06    0.0001481296   0.00026491361
    0.018918919      0.99947614   2.5033383e-22               0               0               0               0    0.0042396905   7.4544017e-06   0.00014811315    0.0002648605
    0.021021021      0.99946445   2.5033383e-22               0               0               0               0    0.0042512896   7.4542393e-06    0.0001480967   0.00026480739
    0.023123123      0.99944675   3.8099661e-22               0               0               0               0    0.0042690936    7.454146e-06   0.00014808027   0.00026475199
    0.025225225      0.99942885   3.8099661e-22               0               0               0               0    0.0042871005   7.4540549e-06   0.00014806384   0.00026469651
    0.027327327      0.99941096   3.8099661e-22               0               0               0               0    0.0043051073   7.4539638e-06   0.00014804742   0.00026464103
    0.029429429      0.99939306   3.8099661e-22               0               0               0               0    0.0043231142   7.4538727e-06   0.00014803099   0.00026458555
    0.031531532      0.99937517   3.8099661e-22               0               0               0               0    0.0043411211   7.4537816e-06   0.00014801456   0.00026453007
    0.033633634      0.99935727   3.8099661e-22               0               0               0               0     0.004359128   7.4536905e-06   0.00014799813   0.00026447459
    0.035735736      0.99933938   3.8099661e-22               0               0               0               0    0.0043771348   7.4535994e-06   0.00014798171   0.00026441911
    0.037837838      0.99932148   3.8099661e-22               0               0               0               0    0.0043951417   7.4535083e-06   0.00014796528   0.00026436363
     0.03993994      0.99930359   3.8099661e-22               0               0               0               0    0.0044131486   7.4534172e-06   0.00014794885   0.00026430815
    0.042042042      0.99928569   3.8099661e-22               0               0               0               0    0.0044311555   7.4533261e-06   0.00014793243   0.00026425267
    0.044144144      0.99926779   3.8099661e-22               0               0               0               0    0.0044491623    7.453235e-06     0.000147916   0.00026419719
    0.046246246       0.9992499   3.8099661e-22               0               0               0               0    0.0044671692   7.4531439e-06   0.00014789957   0.00026414171
    0.048348348      0.99922588   5.7698475e-22               0               0               0               0     0.004490943    7.453157e-06    0.0001478832   0.00026408276
     0.05045045      0.99919886   5.7698475e-22               0               0               0               0    0.0045175481   7.4532212e-06   0.00014786684   0.00026402211
    0.052552553      0.99917184   5.7698475e-22               0               0               0               0    0.0045441533   7.4532854e-06   0.00014785049   0.00026396147
    0.054654655      0.99914482   5.7698475e-22               0               0               0               0    0.0045707585   7.4533497e-06   0.00014783414   0.00026390082
    0.056756757       0.9991178   5.7698475e-22               0               0               0               0    0.0045973636   7.4534139e-06   0.00014781779   0.00026384017
    0.058858859      0.99909078   5.7698475e-22               0               0               0               0    0.0046239688   7.4534782e-06   0.00014780144   0.00026377953
    0.060960961      0.99906376   5.7698475e-22               0               0               0               0     0.004650574   7.4535424e-06   0.00014778509   0.00026371888
    0.063063063      0.99903674   5.7698475e-22               0               0               0               0    0.0046771791   7.4536066e-06   0.00014776874   0.00026365823
    0.065165165      0.99900972   5.7698475e-22               0               0               0               0    0.0047037843   7.4536709e-06   0.00014775239   0.00026359759
    0.067267267       0.9989724   8.2780456e-22               0               0               0               0    0.0047417541   7.4537807e-06   0.00014773658   0.00026353733
    0.069369369      0.99893335   8.2780456e-22               0               0               0               0    0.0047816531   7.4538982e-06   0.00014772087   0.00026347714
    0.071471471      0.99889429   8.2780456e-22               0               0               0               0    0.0048215521   7.4540158e-06   0.00014770516   0.00026341694
    0.073573574      0.99885523   8.2780456e-22               0               0               0               0    0.0048614511   7.4541333e-06   0.00014768945   0.00026335675
    0.075675676      0.99881617   8.2780456e-22               0               0               0               0    0.0049013501   7.4542509e-06   0.00014767374   0.00026329656
    0.077777778      0.99877711   8.2780456e-22               0               0               0               0    0.0049412491   7.4543684e-06   0.00014765803   0.00026323637
     0.07987988      0.99872429   1.4010233e-21               0               0               0               0    0.0049911468   7.4589902e-06   0.00014764213   0.00026301836
    0.081981982       0.9986595   1.4010233e-21               0               0               0               0    0.0050497324   7.4675257e-06   0.00014762606   0.00026266323
    0.084084084      0.99859472   1.4010233e-21               0               0               0               0    0.0051083181   7.4760612e-06   0.00014760999    0.0002623081
    0.086186186      0.99852993   1.4010233e-21               0               0               0               0    0.0051669037   7.4845967e-06   0.00014759392   0.00026195296
    0.088288288      0.99846503   1.9163539e-21               0               0               0               0    0.0052257349    7.499651e-06   0.00014757801   0.00026149657
     0.09039039      0.99837515   1.9163539e-21               0               0               0               0    0.0053378885   8.9300811e-06   0.00014759625   0.00023905397
    0.092492492      0.99828526   1.9163539e-21               0               0               0               0    0.0054500422   1.0360511e-05   0.00014761449   0.00021661137
    0.094594595      0.99819537   1.9163539e-21               0               0               0               0    0.0055621958   1.1790941e-05   0.00014763273   0.00019416877
    0.096696697      0.83592204   1.1876814e-20               0  -0.00010163405  -5.8716645e-08   3.1508431e-22    0.0057021981   0.00045867738   0.00015559198   0.00014644106
    0.098798799      0.62153295   1.1876814e-20               0  -0.00023592701  -1.3630119e-07   7.3141728e-22    0.0058511492    0.0010487059   0.00016610299   9.0588287e-05
      0.1009009      0.35551228   3.4826294e-20               0  -0.00041681419  -2.5185407e-07   9.7154284e-22    0.0059739852    0.0020749053   0.00019182526   4.1819669e-05
       0.103003     0.020649488   3.4826294e-20               0    -0.000659827  -4.1803139e-07   9.7672522e-22    0.0060620011     0.003682666    0.0002378292   2.4965925e-06
     0.10510511   1.1035051e-16   3.7948575e-20  -2.3543021e-36  -0.00074156255  -5.6572108e-07   3.8490104e-22    0.0060665586    0.0055540379   0.00030841361   9.9123368e-08
     0.10720721   1.1001322e-16   5.6761973e-20               0  -0.00081639005   -7.455617e-07   1.2528475e-21    0.0060602365    0.0079700851   0.00039243239   1.2994889e-07
     0.10930931   1.1001322e-16   5.6761973e-20               0  -0.00089670064  -9.7497145e-07   4.3477476e-21    0.0060458998     0.011169577    0.0004940097   1.6317423e-07
     0.11141141   1.0959978e-16   7.6027286e-20               0  -0.00098217779  -1.2524974e-06   1.7081222e-20    0.0060458492      0.01596802   0.00062406054   1.9882759e-07
     0.11351351   1.0910116e-16   9.6388171e-20               0   -0.0010696529  -1.5471703e-06   2.5746202e-20    0.0060503414     0.021644977   0.00076804432   2.3546317e-07
     0.11561562   1.0910116e-16   9.6388171e-20               0   -0.0011608475  -1.8701453e-06   7.5131039e-21    0.0060608574     0.029602327   0.00094520877    2.740346e-07
     0.11771772   1.0850959e-16   1.1080615e-19  -1.7996419e-33   -0.0012532845  -2.1925592e-06  -8.5107782e-21    0.0060686636     0.039471917    0.0011452089   3.1343964e-07
     0.11981982   1.0850959e-16   1.1080615e-19  -1.7996419e-33   -0.0013469378  -2.5144238e-06  -2.2371501e-20    0.0060738164     0.051213883    0.0013675686   3.5366092e-07
     0.12192192   1.0781396e-16   1.1987585e-19  -3.3136172e-35   -0.0014404225  -2.9164788e-06   1.6586032e-20    0.0060686466     0.066588927    0.0016253541   3.9440599e-07
     0.12402402   1.0781396e-16   1.1987585e-19  -3.3136172e-35   -0.0015338572  -3.3422699e-06   7.1177598e-20    0.0060604212     0.083039351    0.0018936256   4.3530609e-07
     0.12612613   1.0701153e-16   1.4543582e-19               0    -0.001624036  -3.9075372e-06   7.1894469e-20    0.0060325274      0.10471073    0.0022026415   4.7573059e-07
     0.12822823   1.0609631e-16   1.7245075e-19               0   -0.0017132301  -4.4822196e-06   8.1308738e-20    0.0060022729      0.12721232    0.0025166747   5.1589839e-07
     0.13033033   1.0609631e-16   1.7245075e-19               0   -0.0017968204  -5.1003736e-06   1.4793182e-19    0.0059596905      0.15420762    0.0028570086   5.5457046e-07
     0.13243243   1.0506625e-16   1.9850491e-19               0   -0.0018780768  -5.7214636e-06   1.9826835e-19    0.0059146051      0.18224874    0.0032008069   5.9251198e-07
     0.13453453   1.0506625e-16   1.9850491e-19               0     -0.00195212  -6.3516281e-06   1.9826841e-19    0.0058617836      0.21352215    0.0035553125   6.2819561e-07
     0.13663664   1.0392527e-16    2.228364e-19               0   -0.0020227437  -6.9747828e-06   1.2583815e-19    0.0058056354      0.24549283    0.0039081639   6.6271844e-07
     0.13873874   1.0392527e-16    2.228364e-19               0   -0.0020849027  -7.5805848e-06  -1.2589304e-19    0.0057412522      0.27918957    0.0042569204   6.9436776e-07
     0.14084084   1.0268159e-16   2.4443848e-19               0   -0.0021434787  -8.1695427e-06  -3.0943435e-19    0.0056742881      0.31288509    0.0045987622   7.2473261e-07
     0.14294294   1.0268159e-16   2.4443848e-19               0   -0.0021924106  -8.7131629e-06  -3.0943443e-19    0.0056003772       0.3465773    0.0049219921   7.5164016e-07
     0.14504505     1.01347e-16   2.6233108e-19               0   -0.0022387475  -9.2377235e-06  -2.2815076e-19    0.0055252673      0.37978787    0.0052371767   7.7757477e-07
     0.14714715     1.01347e-16   2.6233108e-19               0   -0.0022741695  -9.6821148e-06   1.9503317e-19    0.0054451142      0.41097256    0.0055185209   7.9941695e-07
     0.14924925   9.9936518e-17   2.7511521e-19               0   -0.0023089569    -1.01212e-05   5.9730779e-19    0.0053647873      0.44193102    0.0057972679   8.2101098e-07
     0.15135135   9.9936518e-17   2.7511521e-19               0   -0.0023315334  -1.0458193e-05   5.9725579e-19     0.005281116      0.46853636    0.0060260396   8.3783021e-07
     0.15345345   9.9936518e-17   2.7511521e-19               0   -0.0023541099  -1.0795186e-05   5.9720378e-19    0.0051974447      0.49514171    0.0062548113   8.5464945e-07
     0.15555556   9.8466673e-17   2.8483219e-19               0   -0.0023671024  -1.1009468e-05   6.3117946e-19    0.0051138994      0.51684602      0.00643613   8.6755465e-07
     0.15765766   9.8466673e-17   2.8483219e-19               0   -0.0023782816  -1.1200533e-05   6.7159314e-19     0.005030378      0.53762306    0.0066084705   8.7971933e-07
     0.15975976   9.6954759e-17   2.8480075e-19               0   -0.0023839663  -1.1312532e-05   6.8921911e-19    0.0049480384      0.55478799    0.0067491801   8.8952167e-07
     0.16186186   9.6954759e-17   2.8480075e-19               0    -0.002385413  -1.1363545e-05   6.8926844e-19    0.0048666106      0.56916681    0.0068654921   8.9750189e-07
     0.16396396   9.5419713e-17   2.8202555e-19               0   -0.0023854064  -1.1393727e-05    6.270954e-19    0.0047857548      0.58243637    0.0069725481   9.0482557e-07
     0.16606607   9.5419713e-17   2.8202555e-19               0   -0.0023801948  -1.1349299e-05   3.4206584e-19    0.0047069484      0.59173293    0.0070464527   9.0979776e-07
     0.16816817   9.5419713e-17   2.8202555e-19               0   -0.0023749832   -1.130487e-05   5.7036288e-20    0.0046281419      0.60102949    0.0071203572   9.1476996e-07
     0.17027027   9.3874244e-17   2.7392858e-19               0   -0.0023647041  -1.1175407e-05   6.2980572e-20    0.0045526312      0.60573866    0.0071576284   9.1726507e-07
     0.17237237   9.3874244e-17   2.7392858e-19               0   -0.0023531574   -1.102467e-05   1.4171678e-19     0.004477945      0.60930022    0.0071857351   9.1914049e-07
     0.17447447   9.2338284e-17   2.6091594e-19               0   -0.0023401796  -1.0848906e-05   2.1777706e-19     0.004404965      0.61140722    0.0072023731   9.2025143e-07
     0.17657658   9.2338284e-17   2.6091594e-19               0    -0.002323975  -1.0616706e-05    2.878033e-19    0.0043358325      0.61023427    0.0071931497    9.196385e-07
     0.17867868   9.2338284e-17   2.6091594e-19               0   -0.0023077704  -1.0384506e-05   3.5782953e-19       0.0042667      0.60906132    0.0071839263   9.1902556e-07
     0.18078078   9.0824734e-17   2.4432355e-19               0   -0.0022905421  -1.0115041e-05   4.1175705e-19    0.0042017498      0.60640313    0.0071629617   9.1762769e-07
     0.18288288   9.0824734e-17   2.4432355e-19               0   -0.0022729504  -9.8323449e-06   4.5996859e-19    0.0041382845       0.6032176    0.0071378282   9.1595112e-07
     0.18498498   8.9347246e-17   2.2436295e-19               0   -0.0022552646  -9.5459805e-06   4.9793248e-19    0.0040752548      0.59986845    0.0071113827   9.1418544e-07
     0.18708709   8.9347246e-17   2.2436295e-19               0    -0.002236625  -9.2224324e-06   4.3201864e-19    0.0040166392      0.59486069    0.0070716376   9.1151646e-07
     0.18918919   8.9347246e-17   2.2436295e-19               0   -0.0022179854  -8.8988843e-06   3.6610481e-19    0.0039580236      0.58985293    0.0070318925   9.0884749e-07
     0.19129129   8.7920831e-17   2.0148732e-19               0    -0.002199301  -8.5671368e-06     2.56268e-19    0.0039013486      0.58446601    0.0069889898   9.0595518e-07
     0.19339339   8.7920831e-17   2.0148732e-19               0   -0.0021805371  -8.2208287e-06   6.8431151e-20    0.0038481197      0.57840576    0.0069404797   9.0266628e-07
      0.1954955   8.7920831e-17   2.0148732e-19               0   -0.0021617733  -7.8745206e-06   -1.194057e-19    0.0037948907      0.57234552    0.0068919697   8.9937738e-07
      0.1975976   8.6562911e-17   1.7695576e-19               0   -0.0021433462  -7.5270188e-06  -2.0452358e-19    0.0037449441      0.56605582    0.0068413292   8.9592142e-07
      0.1996997   8.6562911e-17   1.7695576e-19               0   -0.0021251982   -7.178528e-06  -2.0452366e-19    0.0036977173      0.55957598    0.0067889234   8.9232704e-07
      0.2018018   8.6562911e-17   1.7695576e-19               0   -0.0021070501  -6.8300371e-06  -2.0452374e-19    0.0036504905      0.55309615    0.0067365175   8.8873266e-07
      0.2039039   8.5287728e-17   1.5195479e-19               0   -0.0020896526  -6.4894044e-06  -1.4938071e-19    0.0036071177       0.5466574    0.0066840617   8.8510507e-07
     0.20600601   8.5287728e-17   1.5195479e-19               0   -0.0020726645  -6.1530588e-06  -6.4154304e-20    0.0035658473      0.54024107    0.0066315787   8.8145936e-07
     0.20810811   8.5287728e-17   1.5195479e-19               0   -0.0020556764  -5.8167132e-06     2.10721e-20     0.003524577      0.53382473    0.0065790956   8.7781365e-07
     0.21021021    8.410654e-17   1.2712574e-19               0   -0.0020397069  -5.4941913e-06   5.0211458e-20    0.0034870838      0.52768348    0.0065284843   8.7426812e-07
     0.21231231    8.410654e-17   1.2712574e-19               0   -0.0020242666  -5.1788514e-06   5.0211478e-20    0.0034515528      0.52168514    0.0064788455   8.7077462e-07
     0.21441441    8.410654e-17   1.2712574e-19               0   -0.0020088263  -4.8635115e-06   5.0211499e-20    0.0034160219       0.5156868    0.0064292067   8.6728112e-07
     0.21651652     8.30282e-17   1.0313316e-19               0   -0.0019944303   -4.563991e-06   4.1082157e-20    0.0033837404      0.51007417     0.006382469   8.6396857e-07
     0.21861862     8.30282e-17   1.0313316e-19               0   -0.0019807988  -4.2760515e-06   2.5269494e-20    0.0033538378      0.50474391    0.0063378552   8.6078848e-07
     0.22072072     8.30282e-17   1.0313316e-19               0   -0.0019671673  -3.9881121e-06   9.4568315e-21    0.0033239351      0.49941364    0.0062932413    8.576084e-07
     0.22282282   8.2058197e-17      8.0503e-20               0   -0.0019543235  -3.7133193e-06               0    0.0032962152      0.49441735     0.006251263   8.5460326e-07
     0.22492492   8.2058197e-17      8.0503e-20               0   -0.0019426516  -3.4580877e-06               0    0.0032717429      0.48991797    0.0062132061   8.5185841e-07
     0.22702703   8.2058197e-17      8.0503e-20               0   -0.0019309796   -3.202856e-06               0    0.0032472706      0.48541859    0.0061751492   8.4911357e-07
     0.22912913   8.1198875e-17   5.9981857e-20               0   -0.0019195668   -2.952561e-06  -1.1491785e-22    0.0032234506      0.48103764     0.006138058   8.4643543e-07
     0.23123123   8.1198875e-17   5.9981857e-20               0   -0.0019099035  -2.7356004e-06  -1.0058151e-21    0.0032040357      0.47745634    0.0061074872   8.4420772e-07
     0.23333333   8.1198875e-17   5.9981857e-20               0   -0.0019002403  -2.5186399e-06  -1.8967124e-21    0.0031846207      0.47387504    0.0060769165   8.4198001e-07
     0.23543544   8.1198875e-17   5.9981857e-20               0    -0.001890577  -2.3016794e-06  -2.7876097e-21    0.0031652057      0.47029374    0.0060463457    8.397523e-07
     0.23753754   8.0448662e-17    4.237684e-20               0   -0.0018823848  -2.1170917e-06  -8.0733117e-21    0.0031491024      0.46741716     0.006021662     8.37943e-07
     0.23963964   8.0448662e-17    4.237684e-20               0   -0.0018746687  -1.9429817e-06  -1.4781417e-20    0.0031340709      0.46476867    0.0059988837   8.3626912e-07
     0.24174174   8.0448662e-17    4.237684e-20               0   -0.0018669526  -1.7688717e-06  -2.1489522e-20    0.0031190393      0.46212017    0.0059761054   8.3459524e-07
     0.24384384   7.9799919e-17   2.8392971e-20               0   -0.0018597259  -1.6075012e-06  -2.6097133e-20     0.003105014      0.45971287    0.0059553773   8.3307001e-07
     0.24594595   7.9799919e-17   2.8392971e-20               0    -0.001853768  -1.4791621e-06  -2.5258563e-20    0.0030935975      0.45793091    0.0059399647   8.3193021e-07
     0.24804805   7.9799919e-17   2.8392971e-20               0   -0.0018478101  -1.3508231e-06  -2.4419994e-20    0.0030821809      0.45614896    0.0059245522    8.307904e-07
     0.25015015   7.9799919e-17   2.8392971e-20               0   -0.0018418522   -1.222484e-06  -2.3581424e-20    0.0030707644      0.45436701    0.0059091397    8.296506e-07
     0.25225225   7.9239253e-17   1.8633485e-20               0   -0.0018368993  -1.1253203e-06   -1.230943e-20    0.0030612372      0.45308192    0.0058979998    8.288247e-07
     0.25435435   7.9239253e-17   1.8633485e-20               0   -0.0018323887  -1.0418795e-06   3.5551546e-21    0.0030525417      0.45201554    0.0058887407   8.2813698e-07
     0.25645646   7.9239253e-17   1.8633485e-20               0   -0.0018278781  -9.5843863e-07   1.9419739e-20    0.0030438461      0.45094916    0.0058794816   8.2744926e-07
     0.25855856   7.8749676e-17   1.3054311e-20               0   -0.0018233678   -8.750083e-07   3.5277828e-20    0.0030351509      0.44988292    0.0058702236   8.2676162e-07
     0.26066066   7.8749676e-17   1.3054311e-20               0   -0.0018199073  -8.3011031e-07   2.7334178e-20     0.003027857      0.44931333    0.0058652661   8.2639241e-07
     0.26276276   7.8749676e-17   1.3054311e-20               0   -0.0018164469  -7.8521231e-07   1.9390529e-20    0.0030205631      0.44874374    0.0058603086    8.260232e-07
     0.26486486   7.8749676e-17   1.3054311e-20               0   -0.0018129864  -7.4031432e-07    1.144688e-20    0.0030132692      0.44817416    0.0058553512   8.2565399e-07
     0.26696697   7.8312532e-17   1.0956025e-20               0   -0.0018096482   -7.008828e-07   3.3016811e-21    0.0030060113      0.44765325    0.0058508166   8.2531621e-07
     0.26906907   7.8312532e-17   1.0956025e-20               0   -0.0018068219  -6.8435308e-07  -5.6879081e-21    0.0029989044      0.44733628    0.0058480539   8.2511012e-07
     0.27117117   7.8312532e-17   1.0956025e-20               0   -0.0018039957  -6.6782336e-07  -1.4677497e-20    0.0029917976      0.44701932    0.0058452911   8.2490403e-07
     0.27327327   7.8312532e-17   1.0956025e-20               0   -0.0018011694  -6.5129363e-07  -2.3667086e-20    0.0029846907      0.44670235    0.0058425284   8.2469795e-07
     0.27537538   7.7910361e-17   1.1251958e-20               0   -0.0017984194   -6.392598e-07  -2.8241219e-20    0.0029774557      0.44639635    0.0058398606   8.2449889e-07
     0.27747748   7.7910361e-17   1.1251958e-20               0   -0.0017958775  -6.3949681e-07  -2.0764027e-20    0.0029698708      0.44612029     0.005837452   8.2431901e-07
     0.27957958   7.7910361e-17   1.1251958e-20               0   -0.0017933356  -6.3973382e-07  -1.3286836e-20    0.0029622858      0.44584423    0.0058350433   8.2413913e-07
     0.28168168   7.7910361e-17   1.1251958e-20               0   -0.0017907937  -6.3997083e-07  -5.8096441e-21    0.0029547009      0.44556817    0.0058326347   8.2395926e-07
     0.28378378   7.7529934e-17   1.2703407e-20               0   -0.0017882652   -6.416168e-07   2.6358344e-22     0.002946967      0.44527126    0.0058300434   8.2376568e-07
     0.28588589   7.7529934e-17   1.2703407e-20               0   -0.0017857833  -6.4817151e-07   1.4454771e-21    0.0029387142      0.44490173    0.0058268159   8.2352435e-07
     0.28798799   7.7529934e-17   1.2703407e-20               0   -0.0017833015  -6.5472622e-07   2.6273709e-21    0.0029304614       0.4445322    0.0058235883   8.2328302e-07
     0.29009009   7.7529934e-17   1.2703407e-20               0   -0.0017808196  -6.6128092e-07   3.8092646e-21    0.0029222086      0.44416268    0.0058203607    8.230417e-07
     0.29219219   7.7163121e-17   1.4269781e-20               0    -0.001778336  -6.6779139e-07   4.9277894e-21    0.0029139341      0.44378563    0.0058170671   8.2279541e-07
     0.29429429   7.7163121e-17   1.4269781e-20               0   -0.0017758214   -6.735209e-07   4.9277923e-21    0.0029052786      0.44327584    0.0058126081   8.2246148e-07
      0.2963964   7.7163121e-17   1.4269781e-20               0   -0.0017733067  -6.7925041e-07   4.9277951e-21     0.002896623      0.44276606    0.0058081491   8.2212755e-07
      0.2984985   7.7163121e-17   1.4269781e-20               0   -0.0017707921  -6.8497993e-07   4.9277979e-21    0.0028879675      0.44225627    0.0058036902   8.2179362e-07
      0.3006006   7.7163121e-17   1.4269781e-20               0   -0.0017682775  -6.9070944e-07   4.9278008e-21    0.0028793119      0.44174648    0.0057992312   8.2145969e-07
      0.3027027   7.6805956e-17   1.5317836e-20               0   -0.0017657396   -6.933022e-07   4.0866245e-21    0.0028707099      0.44114484     0.005793961   8.2106436e-07
      0.3048048   7.6805956e-17   1.5317836e-20               0   -0.0017631943  -6.9488323e-07   2.9741347e-21    0.0028621252      0.44051356    0.0057884292   8.2064923e-07
     0.30690691   7.6805956e-17   1.5317836e-20               0    -0.001760649  -6.9646425e-07   1.8616448e-21    0.0028535404      0.43988229    0.0057828974   8.2023409e-07
     0.30900901   7.6805956e-17   1.5317836e-20               0   -0.0017581037  -6.9804528e-07   7.4915497e-22    0.0028449557      0.43925102    0.0057773656   8.1981895e-07
     0.31111111   7.6456999e-17   1.5630861e-20               0   -0.0017555626  -6.9827913e-07               0    0.0028364666       0.4385956    0.0057716177   8.1938721e-07
     0.31321321   7.6456999e-17   1.5630861e-20               0   -0.0017530304  -6.9573523e-07               0    0.0028281746      0.43789039     0.005765424   8.1892123e-07
     0.31531532   7.6456999e-17   1.5630861e-20               0   -0.0017504982  -6.9319133e-07               0    0.0028198827      0.43718518    0.0057592304   8.1845526e-07
     0.31741742   7.6456999e-17   1.5630861e-20               0   -0.0017479659  -6.9064743e-07               0    0.0028115908      0.43647997    0.0057530368   8.1798928e-07
     0.31951952   7.6456999e-17   1.5630861e-20               0   -0.0017454337  -6.8810353e-07               0    0.0028032988      0.43577476    0.0057468432   8.1752331e-07
     0.32162162   7.6115507e-17   1.5394989e-20               0   -0.0017429426  -6.8394156e-07               0    0.0027951757      0.43504696    0.0057404387   8.1704041e-07
     0.32372372   7.6115507e-17   1.5394989e-20               0   -0.0017404644  -6.7927138e-07               0    0.0027871056      0.43431205    0.0057339679    8.165522e-07
     0.32582583   7.6115507e-17   1.5394989e-20               0   -0.0017379862   -6.746012e-07               0    0.0027790356      0.43357715    0.0057274972   8.1606399e-07
     0.32792793   7.6115507e-17   1.5394989e-20               0   -0.0017355079  -6.6993102e-07               0    0.0027709655      0.43284225    0.0057210264   8.1557578e-07
     0.33003003   7.5780235e-17   1.4950957e-20               0   -0.0017330337  -6.6525835e-07               0     0.002762902      0.43210712    0.0057145528   8.1508727e-07
     0.33213213   7.5780235e-17   1.4950957e-20               0   -0.0017306276  -6.6054298e-07               0    0.0027549525      0.43136823    0.0057080293   8.1459359e-07
     0.33423423   7.5780235e-17   1.4950957e-20               0   -0.0017282215   -6.558276e-07               0    0.0027470029      0.43062934    0.0057015058    8.140999e-07
     0.33633634   7.5780235e-17   1.4950957e-20               0   -0.0017258153  -6.5111223e-07               0    0.0027390533      0.42989044    0.0056949824   8.1360622e-07
     0.33843844   7.5780235e-17   1.4950957e-20               0   -0.0017234092  -6.4639686e-07               0    0.0027311037      0.42915155    0.0056884589   8.1311253e-07
     0.34054054   7.5449403e-17   1.4564957e-20               0   -0.0017210175   -6.418906e-07               0    0.0027231715      0.42841359    0.0056819399   8.1261887e-07
     0.34264264   7.5449403e-17   1.4564957e-20               0    -0.001718682  -6.3819701e-07               0    0.0027153071      0.42767925    0.0056754382   8.1212527e-07
     0.34474474   7.5449403e-17   1.4564957e-20               0   -0.0017163464  -6.3450342e-07               0    0.0027074428       0.4269449    0.0056689366   8.1163168e-07
     0.34684685   7.5449403e-17   1.4564957e-20               0   -0.0017140108  -6.3080984e-07               0    0.0026995784      0.42621056    0.0056624349   8.1113809e-07
     0.34894895   7.5449403e-17   1.4564957e-20               0   -0.0017116753  -6.2711625e-07               0     0.002691714      0.42547621    0.0056559333   8.1064449e-07
     0.35105105   7.5121349e-17   1.4330603e-20               0   -0.0017093527  -6.2362067e-07               0    0.0026838853        0.424743    0.0056494378   8.1015103e-07
     0.35315315   7.5121349e-17   1.4330603e-20               0   -0.0017070807  -6.2089213e-07               0    0.0026761948      0.42401415     0.005642966    8.096581e-07