# y+ ()         
# Time          	patch           	min             	max             	average         
0               	lowerWall	1.66077422e-01	1.66077422e-01	1.66077422e-01
1               	lowerWall	1.23534353e-01	1.23563972e-01	1.23553131e-01
2               	lowerWall	1.18275635e-01	1.18398460e-01	1.18393667e-01
3               	lowerWall	1.16900564e-01	1.17835924e-01	1.17817226e-01
4               	lowerWall	1.17088431e-01	1.17745839e-01	1.17710566e-01
5               	lowerWall	1.16209371e-01	1.17705057e-01	1.17649704e-01
6               	lowerWall	1.15920087e-01	1.17675122e-01	1.17602123e-01
7               	lowerWall	1.15523304e-01	1.17662841e-01	1.17564221e-01
8               	lowerWall	1.14949672e-01	1.17667874e-01	1.17535471e-01
9               	lowerWall	1.14427650e-01	1.17674315e-01	1.17515627e-01
10              	lowerWall	1.13961226e-01	1.17680900e-01	1.17502966e-01
11              	lowerWall	1.13702095e-01	1.17687029e-01	1.17496430e-01
12              	lowerWall	1.13513152e-01	1.17692683e-01	1.17494248e-01
13              	lowerWall	1.13409582e-01	1.17697876e-01	1.17495342e-01
14              	lowerWall	1.13337283e-01	1.17702592e-01	1.17498671e-01
15              	lowerWall	1.13291653e-01	1.17706801e-01	1.17503536e-01
16              	lowerWall	1.13258031e-01	1.17710567e-01	1.17509390e-01
17              	lowerWall	1.13232786e-01	1.17713930e-01	1.17515845e-01
18              	lowerWall	1.13211870e-01	1.17716904e-01	1.17522622e-01
19              	lowerWall	1.13193346e-01	1.17719568e-01	1.17529519e-01
20              	lowerWall	1.13176206e-01	1.17721931e-01	1.17536404e-01
21              	lowerWall	1.13159642e-01	1.17724040e-01	1.17543180e-01
22              	lowerWall	1.13143460e-01	1.17725929e-01	1.17549788e-01
23              	lowerWall	1.13127417e-01	1.17727612e-01	1.17556189e-01
24              	lowerWall	1.13111539e-01	1.17729137e-01	1.17562365e-01
25              	lowerWall	1.13095822e-01	1.17730501e-01	1.17568305e-01
26              	lowerWall	1.13080347e-01	1.17731742e-01	1.17574010e-01
27              	lowerWall	1.13065199e-01	1.17732865e-01	1.17579486e-01
28              	lowerWall	1.13050467e-01	1.17733889e-01	1.17584743e-01
29              	lowerWall	1.13036241e-01	1.17734829e-01	1.17589792e-01
30              	lowerWall	1.13022598e-01	1.17735687e-01	1.17594649e-01
31              	lowerWall	1.13009606e-01	1.17736487e-01	1.17599327e-01
32              	lowerWall	1.12997319e-01	1.17737227e-01	1.17603843e-01
33              	lowerWall	1.12985783e-01	1.17737919e-01	1.17608210e-01
34              	lowerWall	1.12974944e-01	1.17738570e-01	1.17612444e-01
35              	lowerWall	1.12964751e-01	1.17739183e-01	1.17616558e-01
36              	lowerWall	1.12955280e-01	1.17739771e-01	1.17620565e-01
37              	lowerWall	1.12946618e-01	1.17740331e-01	1.17624479e-01
38              	lowerWall	1.12938804e-01	1.17740871e-01	1.17628312e-01
39              	lowerWall	1.12931847e-01	1.17741396e-01	1.17632074e-01
40              	lowerWall	1.12925736e-01	1.17741909e-01	1.17635776e-01
41              	lowerWall	1.12920452e-01	1.17742415e-01	1.17639428e-01
42              	lowerWall	1.12915966e-01	1.17742916e-01	1.17643039e-01
43              	lowerWall	1.12912246e-01	1.17743415e-01	1.17646616e-01
44              	lowerWall	1.12909259e-01	1.17743919e-01	1.17650166e-01
45              	lowerWall	1.12906965e-01	1.17744429e-01	1.17653697e-01
46              	lowerWall	1.12905326e-01	1.17744950e-01	1.17657214e-01
47              	lowerWall	1.12904307e-01	1.17745486e-01	1.17660722e-01
48              	lowerWall	1.12903859e-01	1.17746042e-01	1.17664228e-01
49              	lowerWall	1.12903941e-01	1.17746624e-01	1.17667734e-01
50              	lowerWall	1.12904510e-01	1.17747242e-01	1.17671245e-01
51              	lowerWall	1.12905527e-01	1.17747904e-01	1.17674764e-01
52              	lowerWall	1.12906950e-01	1.17748624e-01	1.17678295e-01
53              	lowerWall	1.12908740e-01	1.17749426e-01	1.17681841e-01
54              	lowerWall	1.12910858e-01	1.17750346e-01	1.17685403e-01
55              	lowerWall	1.12913270e-01	1.17751463e-01	1.17688984e-01
56              	lowerWall	1.12915946e-01	1.17753020e-01	1.17692586e-01
57              	lowerWall	1.12918854e-01	1.17755292e-01	1.17696210e-01
58              	lowerWall	1.12921969e-01	1.17758162e-01	1.17699858e-01
59              	lowerWall	1.12925267e-01	1.17761678e-01	1.17703529e-01
60              	lowerWall	1.12928727e-01	1.17765786e-01	1.17707225e-01
61              	lowerWall	1.12932331e-01	1.17770480e-01	1.17710946e-01
62              	lowerWall	1.12936065e-01	1.17775643e-01	1.17714692e-01
63              	lowerWall	1.12939914e-01	1.17781172e-01	1.17718462e-01
64              	lowerWall	1.12943869e-01	1.17787024e-01	1.17722256e-01
65              	lowerWall	1.12947920e-01	1.17793178e-01	1.17726072e-01
66              	lowerWall	1.12952060e-01	1.17799623e-01	1.17729910e-01
67              	lowerWall	1.12956284e-01	1.17806337e-01	1.17733766e-01
68              	lowerWall	1.12960586e-01	1.17813300e-01	1.17737640e-01
69              	lowerWall	1.12964962e-01	1.17820484e-01	1.17741527e-01
70              	lowerWall	1.12969411e-01	1.17827866e-01	1.17745426e-01
71              	lowerWall	1.12973930e-01	1.17835426e-01	1.17749332e-01
72              	lowerWall	1.12978517e-01	1.17843147e-01	1.17753240e-01
73              	lowerWall	1.12983172e-01	1.17851012e-01	1.17757147e-01
74              	lowerWall	1.12987893e-01	1.17859008e-01	1.17761046e-01
75              	lowerWall	1.12992680e-01	1.17867122e-01	1.17764932e-01
76              	lowerWall	1.12997532e-01	1.17875337e-01	1.17768797e-01
77              	lowerWall	1.13002449e-01	1.17883636e-01	1.17772634e-01
78              	lowerWall	1.13007431e-01	1.17891999e-01	1.17776434e-01
79              	lowerWall	1.13012477e-01	1.17900406e-01	1.17780187e-01
80              	lowerWall	1.13017586e-01	1.17908838e-01	1.17783884e-01
81              	lowerWall	1.13022758e-01	1.17917265e-01	1.17787512e-01
82              	lowerWall	1.13027993e-01	1.17925663e-01	1.17791060e-01
83              	lowerWall	1.13033290e-01	1.17934000e-01	1.17794514e-01
84              	lowerWall	1.13038651e-01	1.17942246e-01	1.17797859e-01
85              	lowerWall	1.13044074e-01	1.17950367e-01	1.17801079e-01
86              	lowerWall	1.13049560e-01	1.17958319e-01	1.17804159e-01
87              	lowerWall	1.13055108e-01	1.17966072e-01	1.17807081e-01
88              	lowerWall	1.13060718e-01	1.17973574e-01	1.17809825e-01
89              	lowerWall	1.13066390e-01	1.17980782e-01	1.17812373e-01
90              	lowerWall	1.13072123e-01	1.17987649e-01	1.17814704e-01
91              	lowerWall	1.13077919e-01	1.17994128e-01	1.17816797e-01
92              	lowerWall	1.13083775e-01	1.18000168e-01	1.17818631e-01
93              	lowerWall	1.13089694e-01	1.18005720e-01	1.17820184e-01
94              	lowerWall	1.13095673e-01	1.18010741e-01	1.17821434e-01
95              	lowerWall	1.13101714e-01	1.18015188e-01	1.17822359e-01
96              	lowerWall	1.13107817e-01	1.18019026e-01	1.17822940e-01
97              	lowerWall	1.13113981e-01	1.18022243e-01	1.17823155e-01
98              	lowerWall	1.13120209e-01	1.18024849e-01	1.17822987e-01
99              	lowerWall	1.13126500e-01	1.18026889e-01	1.17822417e-01
100             	lowerWall	1.13132852e-01	1.18028495e-01	1.17821431e-01
101             	lowerWall	1.13139265e-01	1.18029934e-01	1.17820017e-01
102             	lowerWall	1.13145741e-01	1.18031987e-01	1.17818166e-01
103             	lowerWall	1.13152278e-01	1.18035009e-01	1.17815869e-01
104             	lowerWall	1.13158879e-01	1.18038499e-01	1.17813127e-01
105             	lowerWall	1.13165543e-01	1.18042231e-01	1.17809940e-01
106             	lowerWall	1.13172271e-01	1.18046017e-01	1.17806314e-01
107             	lowerWall	1.13179063e-01	1.18049873e-01	1.17802258e-01
108             	lowerWall	1.13185920e-01	1.18053639e-01	1.17797788e-01
109             	lowerWall	1.13192841e-01	1.18057323e-01	1.17792928e-01
110             	lowerWall	1.13199828e-01	1.18060924e-01	1.17787701e-01
111             	lowerWall	1.13206880e-01	1.18064427e-01	1.17782130e-01
112             	lowerWall	1.13213999e-01	1.18067794e-01	1.17776241e-01
113             	lowerWall	1.13221185e-01	1.18070956e-01	1.17770063e-01
114             	lowerWall	1.13228438e-01	1.18073806e-01	1.17763630e-01
115             	lowerWall	1.13235759e-01	1.18076267e-01	1.17756983e-01
116             	lowerWall	1.13243149e-01	1.18078876e-01	1.17750167e-01
117             	lowerWall	1.13250607e-01	1.18080957e-01	1.17743228e-01
118             	lowerWall	1.13258136e-01	1.18082346e-01	1.17736213e-01
119             	lowerWall	1.13265734e-01	1.18084164e-01	1.17729165e-01
120             	lowerWall	1.13273404e-01	1.18085129e-01	1.17722122e-01
121             	lowerWall	1.13281145e-01	1.18085715e-01	1.17715121e-01
122             	lowerWall	1.13288959e-01	1.18086421e-01	1.17708191e-01
123             	lowerWall	1.13296846e-01	1.18085936e-01	1.17701363e-01
124             	lowerWall	1.13304807e-01	1.18085927e-01	1.17694663e-01
125             	lowerWall	1.13312844e-01	1.18085300e-01	1.17688116e-01
126             	lowerWall	1.13320956e-01	1.18083852e-01	1.17681746e-01
127             	lowerWall	1.13329144e-01	1.18083308e-01	1.17675572e-01
128             	lowerWall	1.13337410e-01	1.18081400e-01	1.17669611e-01
129             	lowerWall	1.13345754e-01	1.18080024e-01	1.17663879e-01
130             	lowerWall	1.13354177e-01	1.18078502e-01	1.17658386e-01
131             	lowerWall	1.13362680e-01	1.18075665e-01	1.17653140e-01
132             	lowerWall	1.13371264e-01	1.18074541e-01	1.17648149e-01
133             	lowerWall	1.13379930e-01	1.18072371e-01	1.17643416e-01
134             	lowerWall	1.13388679e-01	1.18069898e-01	1.17638941e-01
135             	lowerWall	1.13397513e-01	1.18068579e-01	1.17634723e-01
136             	lowerWall	1.13406431e-01	1.18066046e-01	1.17630761e-01
137             	lowerWall	1.13415436e-01	1.18064542e-01	1.17627049e-01
138             	lowerWall	1.13424528e-01	1.18062913e-01	1.17623582e-01
139             	lowerWall	1.13433709e-01	1.18060289e-01	1.17620352e-01
140             	lowerWall	1.13442979e-01	1.18059666e-01	1.17617353e-01
141             	lowerWall	1.13452339e-01	1.18057856e-01	1.17614576e-01
142             	lowerWall	1.13461791e-01	1.18056438e-01	1.17612014e-01
143             	lowerWall	1.13471336e-01	1.18055552e-01	1.17609658e-01
144             	lowerWall	1.13480975e-01	1.18053634e-01	1.17607499e-01
145             	lowerWall	1.13490710e-01	1.18053440e-01	1.17605529e-01
146             	lowerWall	1.13500542e-01	1.18052313e-01	1.17603740e-01
147             	lowerWall	1.13510472e-01	1.18051661e-01	1.17602123e-01
148             	lowerWall	1.13520501e-01	1.18051290e-01	1.17600670e-01
149             	lowerWall	1.13530632e-01	1.18050388e-01	1.17599374e-01
150             	lowerWall	1.13540865e-01	1.18050704e-01	1.17598225e-01
151             	lowerWall	1.13551202e-01	1.18049947e-01	1.17597217e-01
152             	lowerWall	1.13561644e-01	1.18050617e-01	1.17596341e-01
153             	lowerWall	1.13572194e-01	1.18050386e-01	1.17595591e-01
154             	lowerWall	1.13582850e-01	1.18051011e-01	1.17594959e-01
155             	lowerWall	1.13593616e-01	1.18051249e-01	1.17594440e-01
156             	lowerWall	1.13604493e-01	1.18051850e-01	1.17594025e-01
157             	lowerWall	1.13615482e-01	1.18052508e-01	1.17593708e-01
158             	lowerWall	1.13626586e-01	1.18053101e-01	1.17593484e-01
159             	lowerWall	1.13637807e-01	1.18054130e-01	1.17593346e-01
160             	lowerWall	1.13649145e-01	1.18054738e-01	1.17593289e-01
161             	lowerWall	1.13660603e-01	1.18056091e-01	1.17593308e-01
162             	lowerWall	1.13672182e-01	1.18056730e-01	1.17593396e-01
163             	lowerWall	1.13683884e-01	1.18058362e-01	1.17593549e-01
164             	lowerWall	1.13695711e-01	1.18059058e-01	1.17593762e-01
165             	lowerWall	1.13707666e-01	1.18060926e-01	1.17594030e-01
166             	lowerWall	1.13719749e-01	1.18061695e-01	1.17594350e-01
167             	lowerWall	1.13731963e-01	1.18063760e-01	1.17594716e-01
168             	lowerWall	1.13744311e-01	1.18064613e-01	1.17595126e-01
169             	lowerWall	1.13756794e-01	1.18066830e-01	1.17595576e-01
170             	lowerWall	1.13769414e-01	1.18067826e-01	1.17596064e-01
171             	lowerWall	1.13782174e-01	1.18070092e-01	1.17596585e-01
172             	lowerWall	1.13795076e-01	1.18071210e-01	1.17597137e-01
173             	lowerWall	1.13808121e-01	1.18073517e-01	1.17597718e-01
174             	lowerWall	1.13821312e-01	1.18074742e-01	1.17598326e-01
175             	lowerWall	1.13834651e-01	1.18077084e-01	1.17598957e-01
176             	lowerWall	1.13848141e-01	1.18078400e-01	1.17599609e-01
177             	lowerWall	1.13861791e-01	1.18080782e-01	1.17600282e-01
178             	lowerWall	1.13875590e-01	1.18082174e-01	1.17600972e-01
179             	lowerWall	1.13889535e-01	1.18084612e-01	1.17601679e-01
180             	lowerWall	1.13903640e-01	1.18086068e-01	1.17602400e-01
181             	lowerWall	1.13917915e-01	1.18088528e-01	1.17603134e-01
182             	lowerWall	1.13932360e-01	1.18090044e-01	1.17603879e-01
183             	lowerWall	1.13946975e-01	1.18092476e-01	1.17604635e-01
184             	lowerWall	1.13961761e-01	1.18094055e-01	1.17605399e-01
185             	lowerWall	1.13976721e-01	1.18096437e-01	1.17606172e-01
186             	lowerWall	1.13991857e-01	1.18098082e-01	1.17606951e-01
187             	lowerWall	1.14007174e-01	1.18100403e-01	1.17607735e-01
188             	lowerWall	1.14022674e-01	1.18102117e-01	1.17608525e-01
189             	lowerWall	1.14038214e-01	1.18104362e-01	1.17609318e-01
190             	lowerWall	1.14053918e-01	1.18106149e-01	1.17610115e-01
191             	lowerWall	1.14069824e-01	1.18108320e-01	1.17610914e-01
192             	lowerWall	1.14085919e-01	1.18110182e-01	1.17611713e-01
193             	lowerWall	1.14102227e-01	1.18112273e-01	1.17612513e-01
194             	lowerWall	1.14118742e-01	1.18114213e-01	1.17613312e-01
195             	lowerWall	1.14135462e-01	1.18116215e-01	1.17614110e-01
196             	lowerWall	1.14152390e-01	1.18118238e-01	1.17614906e-01
197             	lowerWall	1.14169530e-01	1.18120141e-01	1.17615702e-01
198             	lowerWall	1.14186890e-01	1.18122252e-01	1.17616495e-01
199             	lowerWall	1.14204474e-01	1.18124044e-01	1.17617285e-01
200             	lowerWall	1.14222282e-01	1.18126252e-01	1.17618073e-01
201             	lowerWall	1.14240320e-01	1.18127901e-01	1.17618859e-01
202             	lowerWall	1.14258591e-01	1.18130216e-01	1.17619641e-01
203             	lowerWall	1.14277101e-01	1.18131702e-01	1.17620419e-01
204             	lowerWall	1.14295853e-01	1.18134140e-01	1.17621194e-01
205             	lowerWall	1.14314854e-01	1.18135431e-01	1.17621966e-01
206             	lowerWall	1.14334108e-01	1.18138008e-01	1.17622733e-01
207             	lowerWall	1.14353621e-01	1.18139370e-01	1.17623496e-01
208             	lowerWall	1.14373397e-01	1.18141819e-01	1.17624255e-01
209             	lowerWall	1.14393443e-01	1.18143313e-01	1.17625011e-01
210             	lowerWall	1.14413762e-01	1.18145559e-01	1.17625762e-01
211             	lowerWall	1.14434363e-01	1.18147202e-01	1.17626509e-01
212             	lowerWall	1.14455250e-01	1.18149240e-01	1.17627251e-01
213             	lowerWall	1.14476430e-01	1.18151047e-01	1.17627990e-01
214             	lowerWall	1.14497910e-01	1.18152859e-01	1.17628724e-01
215             	lowerWall	1.14519695e-01	1.18154845e-01	1.17629455e-01
216             	lowerWall	1.14541792e-01	1.18156423e-01	1.17630181e-01
217             	lowerWall	1.14564209e-01	1.18158606e-01	1.17630903e-01
218             	lowerWall	1.14586952e-01	1.18159919e-01	1.17631621e-01
219             	lowerWall	1.14610028e-01	1.18162317e-01	1.17632336e-01
220             	lowerWall	1.14633446e-01	1.18163568e-01	1.17633046e-01
221             	lowerWall	1.14657212e-01	1.18165989e-01	1.17633752e-01
222             	lowerWall	1.14681336e-01	1.18167437e-01	1.17634455e-01
223             	lowerWall	1.14705825e-01	1.18169615e-01	1.17635153e-01
224             	lowerWall	1.14730688e-01	1.18171279e-01	1.17635848e-01
225             	lowerWall	1.14755934e-01	1.18173185e-01	1.17636540e-01
226             	lowerWall	1.14781572e-01	1.18175086e-01	1.17637228e-01
227             	lowerWall	1.14807611e-01	1.18176658e-01	1.17637913e-01
228             	lowerWall	1.14834061e-01	1.18178824e-01	1.17638594e-01
229             	lowerWall	1.14860929e-01	1.18179980e-01	1.17639272e-01
230             	lowerWall	1.14888235e-01	1.18182447e-01	1.17639947e-01
231             	lowerWall	1.14915984e-01	1.18183774e-01	1.17640619e-01
232             	lowerWall	1.14944184e-01	1.18185941e-01	1.17641288e-01
233             	lowerWall	1.14972847e-01	1.18187549e-01	1.17641955e-01
234             	lowerWall	1.15001985e-01	1.18189302e-01	1.17642618e-01
235             	lowerWall	1.15031612e-01	1.18191222e-01	1.17643279e-01
236             	lowerWall	1.15061738e-01	1.18192534e-01	1.17643938e-01
237             	lowerWall	1.15092377e-01	1.18194799e-01	1.17644595e-01
238             	lowerWall	1.15123543e-01	1.18195968e-01	1.17645250e-01
239             	lowerWall	1.15155249e-01	1.18198250e-01	1.17645903e-01
240             	lowerWall	1.15187511e-01	1.18199737e-01	1.17646554e-01
241             	lowerWall	1.15220341e-01	1.18201553e-01	1.17647203e-01
242             	lowerWall	1.15253753e-01	1.18203397e-01	1.17647852e-01
243             	lowerWall	1.15287769e-01	1.18204648e-01	1.17648498e-01
244             	lowerWall	1.15322403e-01	1.18206896e-01	1.17649144e-01
245             	lowerWall	1.15357673e-01	1.18208059e-01	1.17649789e-01
246             	lowerWall	1.15393598e-01	1.18210212e-01	1.17650434e-01
247             	lowerWall	1.15430196e-01	1.18211752e-01	1.17651077e-01
248             	lowerWall	1.15467490e-01	1.18213339e-01	1.17651721e-01
249             	lowerWall	1.15505498e-01	1.18215304e-01	1.17652364e-01
250             	lowerWall	1.15544245e-01	1.18216238e-01	1.17653007e-01
251             	lowerWall	1.15583753e-01	1.18218662e-01	1.17653650e-01
252             	lowerWall	1.15624559e-01	1.18219997e-01	1.17654298e-01
253             	lowerWall	1.15664525e-01	1.18221776e-01	1.17654953e-01
254             	lowerWall	1.15704206e-01	1.18223567e-01	1.17655612e-01
255             	lowerWall	1.15744977e-01	1.18224633e-01	1.17656270e-01
256             	lowerWall	1.15787216e-01	1.18226939e-01	1.17656928e-01
257             	lowerWall	1.15830341e-01	1.18228165e-01	1.17657585e-01
258             	lowerWall	1.15878527e-01	1.18230028e-01	1.17658246e-01
259             	lowerWall	1.15924515e-01	1.18231745e-01	1.17658895e-01
260             	lowerWall	1.15972969e-01	1.18232835e-01	1.17659545e-01
261             	lowerWall	1.16023054e-01	1.18235109e-01	1.17660196e-01
262             	lowerWall	1.16074326e-01	1.18236316e-01	1.17660850e-01
263             	lowerWall	1.16126754e-01	1.18238138e-01	1.17661506e-01
264             	lowerWall	1.16180395e-01	1.18239879e-01	1.17662164e-01
265             	lowerWall	1.16235312e-01	1.18240833e-01	1.17662826e-01
266             	lowerWall	1.16291564e-01	1.18243184e-01	1.17663490e-01
267             	lowerWall	1.16349213e-01	1.18244461e-01	1.17664159e-01
268             	lowerWall	1.16408300e-01	1.18246098e-01	1.17664830e-01
269             	lowerWall	1.16468919e-01	1.18247963e-01	1.17665505e-01
270             	lowerWall	1.16515992e-01	1.18248840e-01	1.17666145e-01
271             	lowerWall	1.16530729e-01	1.18251150e-01	1.17666696e-01
272             	lowerWall	1.16534510e-01	1.18252589e-01	1.17667209e-01
273             	lowerWall	1.16536484e-01	1.18253885e-01	1.17667705e-01
274             	lowerWall	1.16538304e-01	1.18255975e-01	1.17668189e-01
275             	lowerWall	1.16540241e-01	1.18257046e-01	1.17668664e-01
276             	lowerWall	1.16542193e-01	1.18258964e-01	1.17669133e-01
277             	lowerWall	1.16544179e-01	1.18260662e-01	1.17669597e-01
278             	lowerWall	1.16546176e-01	1.18261426e-01	1.17670056e-01
279             	lowerWall	1.16548198e-01	1.18263858e-01	1.17670511e-01
280             	lowerWall	1.16550238e-01	1.18265217e-01	1.17670963e-01
281             	lowerWall	1.16552299e-01	1.18266517e-01	1.17671412e-01
282             	lowerWall	1.16554379e-01	1.18268591e-01	1.17671858e-01
283             	lowerWall	1.16556480e-01	1.18269654e-01	1.17672303e-01
284             	lowerWall	1.16558601e-01	1.18271469e-01	1.17672745e-01
285             	lowerWall	1.16560743e-01	1.18273230e-01	1.17673185e-01
286             	lowerWall	1.16562904e-01	1.18274034e-01	1.17673624e-01
287             	lowerWall	1.16565086e-01	1.18276295e-01	1.17674061e-01
288             	lowerWall	1.16567287e-01	1.18277785e-01	1.17674496e-01
289             	lowerWall	1.16569509e-01	1.18278686e-01	1.17674931e-01
290             	lowerWall	1.16571750e-01	1.18280988e-01	1.17675363e-01
291             	lowerWall	1.16574011e-01	1.18282249e-01	1.17675795e-01
292             	lowerWall	1.16576291e-01	1.18283556e-01	1.17676226e-01
293             	lowerWall	1.16578591e-01	1.18285618e-01	1.17676656e-01
294             	lowerWall	1.16580910e-01	1.18286683e-01	1.17677084e-01
295             	lowerWall	1.16583248e-01	1.18288327e-01	1.17677512e-01
296             	lowerWall	1.16585605e-01	1.18290190e-01	1.17677939e-01
297             	lowerWall	1.16587980e-01	1.18291091e-01	1.17678366e-01
298             	lowerWall	1.16590373e-01	1.18293013e-01	1.17678791e-01
299             	lowerWall	1.16592785e-01	1.18294715e-01	1.17679216e-01
300             	lowerWall	1.16595213e-01	1.18295487e-01	1.17679641e-01
301             	lowerWall	1.16597659e-01	1.18297622e-01	1.17680064e-01
302             	lowerWall	1.16600122e-01	1.18299199e-01	1.17680487e-01
303             	lowerWall	1.16602601e-01	1.18299871e-01	1.17680910e-01
304             	lowerWall	1.16605096e-01	1.18302204e-01	1.17681332e-01
305             	lowerWall	1.16607606e-01	1.18303685e-01	1.17681753e-01
306             	lowerWall	1.16610130e-01	1.18304334e-01	1.17682174e-01
307             	lowerWall	1.16612669e-01	1.18306788e-01	1.17682595e-01
308             	lowerWall	1.16615221e-01	1.18308203e-01	1.17683015e-01
309             	lowerWall	1.16617786e-01	1.18308945e-01	1.17683434e-01
310             	lowerWall	1.16620363e-01	1.18311351e-01	1.17683854e-01
311             	lowerWall	1.16622951e-01	1.18312731e-01	1.17684272e-01
312             	lowerWall	1.16625551e-01	1.18313496e-01	1.17684691e-01
313             	lowerWall	1.16628162e-01	1.18315891e-01	1.17685109e-01
314             	lowerWall	1.16630783e-01	1.18317267e-01	1.17685527e-01
315             	lowerWall	1.16633413e-01	1.18317987e-01	1.17685944e-01
316             	lowerWall	1.16636053e-01	1.18320406e-01	1.17686361e-01
317             	lowerWall	1.16638701e-01	1.18321809e-01	1.17686778e-01
318             	lowerWall	1.16641356e-01	1.18322444e-01	1.17687194e-01
319             	lowerWall	1.16644018e-01	1.18324921e-01	1.17687610e-01
320             	lowerWall	1.16646686e-01	1.18326378e-01	1.17688026e-01
321             	lowerWall	1.16649358e-01	1.18326984e-01	1.17688441e-01
322             	lowerWall	1.16652035e-01	1.18329415e-01	1.17688856e-01
323             	lowerWall	1.16654714e-01	1.18330955e-01	1.17689271e-01
324             	lowerWall	1.16657395e-01	1.18331636e-01	1.17689685e-01
325             	lowerWall	1.16660077e-01	1.18333912e-01	1.17690099e-01
326             	lowerWall	1.16662758e-01	1.18335563e-01	1.17690513e-01
327             	lowerWall	1.16665438e-01	1.18336344e-01	1.17690926e-01
328             	lowerWall	1.16668115e-01	1.18338362e-01	1.17691339e-01
329             	lowerWall	1.16670787e-01	1.18340158e-01	1.17691751e-01
330             	lowerWall	1.16673455e-01	1.18341064e-01	1.17692163e-01
331             	lowerWall	1.16676115e-01	1.18342791e-01	1.17692575e-01
332             	lowerWall	1.16678768e-01	1.18344763e-01	1.17692986e-01
333             	lowerWall	1.16681411e-01	1.18345823e-01	1.17693396e-01
334             	lowerWall	1.16684043e-01	1.18347121e-01	1.17693806e-01
335             	lowerWall	1.16686663e-01	1.18349308e-01	1.17694215e-01
336             	lowerWall	1.16689270e-01	1.18350554e-01	1.17694624e-01
337             	lowerWall	1.16691861e-01	1.18351405e-01	1.17695033e-01
338             	lowerWall	1.16694465e-01	1.18353845e-01	1.17695440e-01
339             	lowerWall	1.16697092e-01	1.18355310e-01	1.17695848e-01
340             	lowerWall	1.16699709e-01	1.18355959e-01	1.17696254e-01
341             	lowerWall	1.16702301e-01	1.18358274e-01	1.17696661e-01
342             	lowerWall	1.16704867e-01	1.18359995e-01	1.17697066e-01
343             	lowerWall	1.16707407e-01	1.18360864e-01	1.17697471e-01
344             	lowerWall	1.16709922e-01	1.18362619e-01	1.17697875e-01
345             	lowerWall	1.16712409e-01	1.18364643e-01	1.17698279e-01
346             	lowerWall	1.16714866e-01	1.18365770e-01	1.17698682e-01
347             	lowerWall	1.16717295e-01	1.18366742e-01	1.17699084e-01
348             	lowerWall	1.16719692e-01	1.18369127e-01	1.17699486e-01
349             	lowerWall	1.16722058e-01	1.18370565e-01	1.17699887e-01
350             	lowerWall	1.16724393e-01	1.18371209e-01	1.17700287e-01
351             	lowerWall	1.16726694e-01	1.18373417e-01	1.17700686e-01
352             	lowerWall	1.16728960e-01	1.18375219e-01	1.17701085e-01
353             	lowerWall	1.16731191e-01	1.18376175e-01	1.17701483e-01
354             	lowerWall	1.16733385e-01	1.18377518e-01	1.17701880e-01
355             	lowerWall	1.16735542e-01	1.18379741e-01	1.17702277e-01
356             	lowerWall	1.16737660e-01	1.18381057e-01	1.17702673e-01
357             	lowerWall	1.16739738e-01	1.18381616e-01	1.17703068e-01
358             	lowerWall	1.16741762e-01	1.18384026e-01	1.17703462e-01
359             	lowerWall	1.16743704e-01	1.18385768e-01	1.17703856e-01
360             	lowerWall	1.16745567e-01	1.18386690e-01	1.17704249e-01
361             	lowerWall	1.16747368e-01	1.18388002e-01	1.17704641e-01
362             	lowerWall	1.16749121e-01	1.18390244e-01	1.17705033e-01
363             	lowerWall	1.16750787e-01	1.18391595e-01	1.17705423e-01
364             	lowerWall	1.16752382e-01	1.18392199e-01	1.17705813e-01
365             	lowerWall	1.16753954e-01	1.18394391e-01	1.17706203e-01
366             	lowerWall	1.16755487e-01	1.18396249e-01	1.17706591e-01
367             	lowerWall	1.16756983e-01	1.18397287e-01	1.17706979e-01
368             	lowerWall	1.16758439e-01	1.18398116e-01	1.17707366e-01
369             	lowerWall	1.16759856e-01	1.18400571e-01	1.17707752e-01
370             	lowerWall	1.16761234e-01	1.18402122e-01	1.17708137e-01
371             	lowerWall	1.16762573e-01	1.18402915e-01	1.17708521e-01
372             	lowerWall	1.16763873e-01	1.18404423e-01	1.17708904e-01
373             	lowerWall	1.16765135e-01	1.18406584e-01	1.17709286e-01
374             	lowerWall	1.16766359e-01	1.18407899e-01	1.17709668e-01
375             	lowerWall	1.16767545e-01	1.18408507e-01	1.17710048e-01
376             	lowerWall	1.16768713e-01	1.18410578e-01	1.17710427e-01
377             	lowerWall	1.16769847e-01	1.18412515e-01	1.17710805e-01
378             	lowerWall	1.16770943e-01	1.18413654e-01	1.17711183e-01
379             	lowerWall	1.16772002e-01	1.18414127e-01	1.17711559e-01
380             	lowerWall	1.16773025e-01	1.18416556e-01	1.17711934e-01
381             	lowerWall	1.16774013e-01	1.18418339e-01	1.17712309e-01
382             	lowerWall	1.16774966e-01	1.18419362e-01	1.17712682e-01
383             	lowerWall	1.16775884e-01	1.18419827e-01	1.17713054e-01
384             	lowerWall	1.16776770e-01	1.18422387e-01	1.17713426e-01
385             	lowerWall	1.16777623e-01	1.18424077e-01	1.17713796e-01
386             	lowerWall	1.16778555e-01	1.18425036e-01	1.17714165e-01
387             	lowerWall	1.16779720e-01	1.18425600e-01	1.17714532e-01
388             	lowerWall	1.16780956e-01	1.18428100e-01	1.17714899e-01
389             	lowerWall	1.16782170e-01	1.18429754e-01	1.17715264e-01
390             	lowerWall	1.16783342e-01	1.18430695e-01	1.17715628e-01
391             	lowerWall	1.16784467e-01	1.18431168e-01	1.17715991e-01
392             	lowerWall	1.16785546e-01	1.18433674e-01	1.17716353e-01
393             	lowerWall	1.16786578e-01	1.18435347e-01	1.17716714e-01
394             	lowerWall	1.16787563e-01	1.18436320e-01	1.17717073e-01
395             	lowerWall	1.16788502e-01	1.18436707e-01	1.17717432e-01
396             	lowerWall	1.16789222e-01	1.18439061e-01	1.17717789e-01
397             	lowerWall	1.16789730e-01	1.18440812e-01	1.17718145e-01
398             	lowerWall	1.16790415e-01	1.18441864e-01	1.17718499e-01
399             	lowerWall	1.16791053e-01	1.18442332e-01	1.17718853e-01
400             	lowerWall	1.16791662e-01	1.18444205e-01	1.17719205e-01
401             	lowerWall	1.16792240e-01	1.18446095e-01	1.17719556e-01
402             	lowerWall	1.16792787e-01	1.18447279e-01	1.17719906e-01
403             	lowerWall	1.16793306e-01	1.18447872e-01	1.17720255e-01
404             	lowerWall	1.16793768e-01	1.18448980e-01	1.17720603e-01
405             	lowerWall	1.16794200e-01	1.18451080e-01	1.17720949e-01
406             	lowerWall	1.16794549e-01	1.18452458e-01	1.17721294e-01
407             	lowerWall	1.16794847e-01	1.18453229e-01	1.17721638e-01
408             	lowerWall	1.16795130e-01	1.18453494e-01	1.17721981e-01
409             	lowerWall	1.16795404e-01	1.18455642e-01	1.17722322e-01
410             	lowerWall	1.16795664e-01	1.18457284e-01	1.17722661e-01
411             	lowerWall	1.16795913e-01	1.18458295e-01	1.17722999e-01
412             	lowerWall	1.16796149e-01	1.18458776e-01	1.17723336e-01
413             	lowerWall	1.16796373e-01	1.18459594e-01	1.17723671e-01
414             	lowerWall	1.16796586e-01	1.18461583e-01	1.17724005e-01