#      distance             U_x             U_y             U_z wallShearStr... wallShearStr... wallShearStr...               p             nut         nuTilda
              0      0.99952888               0               0               0               0               0     0.004699191    1.477779e-06   2.0037376e-06
   0.0021021021      0.99951529               0               0               0               0               0    0.0047172237   1.4779352e-06   2.0038561e-06
   0.0042042042      0.99950171               0               0               0               0               0    0.0047352565   1.4780915e-06   2.0039747e-06
   0.0063063063      0.99948812               0               0               0               0               0    0.0047532893   1.4782477e-06   2.0040932e-06
   0.0084084084      0.99947453               0               0               0               0               0    0.0047713221    1.478404e-06   2.0042117e-06
    0.010510511        0.999459               0               0               0               0               0    0.0047917557   1.4785769e-06   2.0043429e-06
    0.012612613      0.99944225               0               0               0               0               0    0.0048136806   1.4787603e-06    2.004482e-06
    0.014714715       0.9994255               0               0               0               0               0    0.0048356055   1.4789436e-06   2.0046211e-06
    0.016816817      0.99940875               0               0               0               0               0    0.0048575303   1.4791269e-06   2.0047602e-06
    0.018918919        0.999392               0               0               0               0               0    0.0048794552   1.4793102e-06   2.0048992e-06
    0.021021021      0.99937474               0               0               0               0               0    0.0049019904   1.4794974e-06   2.0050412e-06
    0.023123123      0.99935404               0               0               0               0               0    0.0049286287   1.4797106e-06    2.005203e-06
    0.025225225      0.99933335               0               0               0               0               0     0.004955267   1.4799237e-06   2.0053647e-06
    0.027327327      0.99931266               0               0               0               0               0    0.0049819053   1.4801369e-06   2.0055264e-06
    0.029429429      0.99929196               0               0               0               0               0    0.0050085436     1.48035e-06   2.0056881e-06
    0.031531532      0.99927001               0               0               0               0               0    0.0050366538   1.4805716e-06   2.0058562e-06
    0.033633634      0.99924436               0               0               0               0               0     0.005069063   1.4808178e-06    2.006043e-06
    0.035735736      0.99921872               0               0               0               0               0    0.0051014723   1.4810639e-06   2.0062297e-06
    0.037837838      0.99919307               0               0               0               0               0    0.0051338815   1.4813101e-06   2.0064165e-06
     0.03993994      0.99916742               0               0               0               0               0    0.0051662908   1.4815563e-06   2.0066032e-06
    0.042042042        0.999136               0               0               0               0               0    0.0052052475    1.481836e-06   2.0068155e-06
    0.044144144      0.99910404               0               0               0               0               0    0.0052448177   1.4821188e-06   2.0070301e-06
    0.046246246      0.99907208               0               0               0               0               0     0.005284388   1.4824017e-06   2.0072447e-06
    0.048348348      0.99903982               0               0               0               0               0    0.0053242902   1.4826861e-06   2.0074605e-06
     0.05045045      0.99899972               0               0               0               0               0    0.0053729048   1.4830099e-06   2.0077062e-06
    0.052552553      0.99895962               0               0               0               0               0    0.0054215195   1.4833337e-06   2.0079519e-06
    0.054654655      0.99891951               0               0               0               0               0    0.0054701341   1.4836575e-06   2.0081976e-06
    0.056756757      0.99887334               0               0               0               0               0    0.0055252678   1.4840071e-06   2.0084629e-06
    0.058858859      0.99882239               0               0               0               0               0    0.0055855411   1.4843771e-06   2.0087437e-06
    0.060960961      0.99877143               0               0               0               0               0    0.0056458143   1.4847471e-06   2.0090244e-06
    0.063063063      0.99871435               0               0               0               0               0    0.0057126959   1.4851392e-06    2.009322e-06
    0.065165165      0.99864897               0               0               0               0               0    0.0057885116   1.4855614e-06   2.0096424e-06
    0.067267267       0.9985836               0               0               0               0               0    0.0058643273   1.4859835e-06   2.0099627e-06
    0.069369369      0.99850557               0               0               0               0               0    0.0059525633   1.4864411e-06     2.01031e-06
    0.071471471      0.99841853               0               0               0               0               0    0.0060496548    1.486924e-06   2.0106765e-06
    0.073573574      0.99833148               0               0               0               0               0    0.0061467463   1.4874069e-06    2.011043e-06
    0.075675676       0.9982168               0               0               0               0               0     0.006275282   1.4879602e-06    2.011463e-06
    0.077777778      0.99810181               0               0               0               0               0    0.0064041747   1.4885144e-06   2.0118836e-06
     0.07987988      0.99795042               0               0               0               0               0    0.0065609724   1.4891143e-06   2.0123389e-06
    0.081981982      0.99777457               0               0               0               0               0    0.0067365309   1.4897449e-06   2.0128176e-06
    0.084084084      0.99757684               0               0               0               0               0      0.00694749   1.4904339e-06   2.0133406e-06
    0.086186186      0.99734227               0               0               0               0               0    0.0072180811   1.4912211e-06   2.0139381e-06
    0.088288288      0.99698701               0  -1.7966506e-22               0               0               0    0.0075229652   1.4919829e-06   2.0145164e-06
     0.09039039      0.99631548               0  -8.3015208e-22               0               0               0    0.0079177165   1.4926782e-06   2.0150442e-06
    0.092492492      0.99567599               0   1.9841765e-17               0               0               0    0.0085462809   1.4934605e-06   2.0156378e-06
    0.094594595      0.99512102               0   9.2008209e-17               0               0               0    0.0097913778   1.4944719e-06   2.0164052e-06
    0.096696697      0.90708407               0   1.3990824e-16  -0.00050279262  -3.0981253e-06               0     0.010659962   1.3635045e-06   1.8392587e-06
    0.098798799      0.64636683               0   1.3990892e-16   -0.0019980454  -1.2311627e-05               0      0.01078535   9.7202441e-07   1.3109286e-06
      0.1009009      0.38569371               0   1.0849157e-16   -0.0031757851  -1.7619602e-05  -2.0847341e-18     0.009896693   5.8028025e-07   7.8244109e-07
       0.103003      0.12507943               0   3.5183523e-17   -0.0039301738  -1.7720209e-05  -6.9491136e-18    0.0076559753   1.8818394e-07   2.5374353e-07
     0.10510511               0               0               0   -0.0038693628  -1.3028703e-05  -9.3534091e-18    0.0058796189    7.841602e-13               0
     0.10720721               0               0               0   -0.0030562381  -3.9147586e-06  -9.4873963e-18    0.0045318021   5.3962354e-13               0
     0.10930931               0               0               0   -0.0026659587  -1.7765824e-07  -6.8407207e-18    0.0040432957     4.25915e-13               0
     0.11141141               0               0               0   -0.0025621638  -8.3455602e-08  -2.3101018e-18    0.0041369856    4.008446e-13               0
     0.11351351               0               0               0   -0.0024992448  -3.9240166e-08   -6.657846e-19    0.0042669969    3.858814e-13               0
     0.11561562               0               0               0   -0.0024577469  -2.1220574e-08  -5.3403675e-19    0.0044160425    3.762149e-13               0
     0.11771772               0               0               0   -0.0024247564  -1.4495807e-08  -3.1922739e-19    0.0044726057   3.6860545e-13               0
     0.11981982               0               0               0   -0.0023954204  -1.2622863e-08  -6.8737977e-20    0.0044894419   3.6187963e-13               0
     0.12192192               0               0               0   -0.0023693049  -1.1499048e-08               0     0.004470642   3.5594055e-13               0
     0.12402402               0               0               0   -0.0023444074  -1.0658551e-08               0    0.0044383646   3.5029901e-13               0
     0.12612613               0               0               0   -0.0023217656  -9.9814226e-09               0    0.0044037969   3.4520584e-13               0
     0.12822823               0               0               0   -0.0022999426  -9.3635914e-09               0    0.0043683979   3.4031171e-13               0
     0.13033033               0               0               0   -0.0022799194  -8.8327599e-09               0    0.0043342982   3.3585038e-13               0
     0.13243243               0               0               0   -0.0022605852  -8.3352324e-09               0    0.0043006959   3.3155471e-13               0
     0.13453453               0               0               0   -0.0022426593  -7.9034779e-09  -1.2592145e-19    0.0042671157    3.275946e-13               0
     0.13663664               0               0               0   -0.0022253564  -7.5008201e-09  -3.0754822e-19    0.0042335453   3.2378293e-13               0
     0.13873874               0               0               0   -0.0022091245  -7.1448402e-09  -3.7232279e-19    0.0042002588   3.2022458e-13               0
     0.14084084               0               0               0   -0.0021934864  -6.8147353e-09  -3.7232283e-19    0.0041671297   3.1680665e-13               0
     0.14294294               0               0               0   -0.0021786479   -6.515146e-09  -3.5542005e-19    0.0041347635   3.1357648e-13               0
     0.14504505               0               0               0   -0.0021644061  -6.2383323e-09  -3.2590176e-19    0.0041029668   3.1048645e-13               0
     0.14714715               0               0               0   -0.0021507394  -5.9809707e-09  -2.4565157e-19    0.0040720482   3.0753042e-13               0
     0.14924925               0               0               0   -0.0021376947  -5.7446574e-09  -1.1050717e-19    0.0040420795   3.0471939e-13               0
     0.15135135               0               0               0   -0.0021250304  -5.5201678e-09   -1.682195e-20    0.0040127935   3.0199637e-13               0
     0.15345345               0               0               0   -0.0021130261  -5.3161957e-09    4.920985e-21     0.003984692   2.9942609e-13               0
     0.15555556               0               0               0   -0.0021012295  -5.1182674e-09  -8.3862855e-21    0.0039569769   2.9690354e-13               0
     0.15765766               0               0               0   -0.0020901371  -4.9408387e-09  -1.4057717e-19    0.0039305723   2.9454287e-13               0
     0.15975976               0               0               0   -0.0020790976  -4.7648556e-09  -2.4928795e-19    0.0039042701   2.9219429e-13               0
     0.16186186               0               0               0   -0.0020688106  -4.6094124e-09  -2.4346849e-20    0.0038794225   2.9001756e-13               0
     0.16396396               0               0               0   -0.0020585237  -4.4539693e-09   2.0059425e-19    0.0038545749   2.8784082e-13               0
     0.16606607               0               0               0   -0.0020488664  -4.3146758e-09   2.2784254e-19    0.0038310008   2.8580699e-13               0
     0.16816817               0               0               0   -0.0020392959  -4.1776083e-09   2.2784257e-19    0.0038076023   2.8379287e-13               0
     0.17027027               0               0               0   -0.0020301526  -4.0509195e-09   1.3049813e-19    0.0037851062   2.8187513e-13               0
     0.17237237               0               0               0   -0.0020212234  -3.9294323e-09  -1.5633966e-20    0.0037630624   2.8000569e-13               0
     0.17447447               0               0               0   -0.0020125403  -3.8136589e-09  -9.9422132e-20    0.0037415411   2.7819146e-13               0
     0.17657658               0               0               0   -0.0020041879  -3.7055645e-09  -9.9422144e-20     0.003720722    2.764514e-13               0
     0.17867868               0               0               0   -0.0019959184  -3.5993097e-09  -1.0468219e-19    0.0037000836   2.7472985e-13               0
     0.18078078               0               0               0   -0.0019880864  -3.5027596e-09  -1.3769224e-19    0.0036803987   2.7310596e-13               0
     0.18288288               0               0               0   -0.0019802545  -3.4062094e-09   -1.707023e-19    0.0036607138   2.7148206e-13               0
     0.18498498               0               0               0     -0.00197283  -3.3182942e-09  -1.1397588e-19    0.0036419205   2.6994862e-13               0
     0.18708709               0               0               0     -0.00196547  -3.2317465e-09  -4.3037843e-20    0.0036232683    2.684295e-13               0
     0.18918919               0               0               0   -0.0019583407  -3.1498716e-09   2.9730196e-20    0.0036051201   2.6696135e-13               0
     0.19129129               0               0               0     -0.00195141  -3.0720196e-09   1.0407366e-19    0.0035874055   2.6553708e-13               0
     0.19339339               0               0               0   -0.0019445501  -2.9955286e-09   1.5252575e-19    0.0035698539   2.6412838e-13               0
      0.1954955               0               0               0   -0.0019380116  -2.9252158e-09   8.3458619e-20    0.0035530417   2.6279035e-13               0
      0.1975976               0               0               0   -0.0019314731  -2.8549031e-09   1.4391492e-20    0.0035362294   2.6145232e-13               0
      0.1996997               0               0               0   -0.0019252194  -2.7898766e-09               0    0.0035200329   2.6017663e-13               0
      0.2018018               0               0               0   -0.0019190407  -2.7262415e-09               0    0.0035039984   2.5891735e-13               0
      0.2039039               0               0               0    -0.001912984  -2.6647917e-09   -1.984848e-20    0.0034882313   2.5768467e-13               0
     0.20600601               0               0               0   -0.0019071356  -2.6070711e-09  -7.3570688e-20    0.0034729204   2.5649738e-13               0
     0.20810811               0               0               0   -0.0019012873  -2.5493505e-09   -1.272929e-19    0.0034576095   2.5531009e-13               0
     0.21021021               0               0               0   -0.0018957169  -2.4963388e-09  -1.3197677e-19    0.0034429598   2.5418314e-13               0
     0.21231231               0               0               0   -0.0018901731  -2.4437769e-09  -1.3197679e-19    0.0034283731   2.5306195e-13               0
     0.21441441               0               0               0   -0.0018847478  -2.3931633e-09  -1.1004291e-19    0.0034140436   2.5196637e-13               0
     0.21651652               0               0               0   -0.0018794859  -2.3452358e-09  -5.7868299e-20    0.0034000685   2.5090611e-13               0
     0.21861862               0               0               0    -0.001874224  -2.2973084e-09   -5.693686e-21    0.0033860934   2.4984585e-13               0
     0.22072072               0               0               0   -0.0018691945  -2.2531103e-09               0    0.0033726161   2.4883562e-13               0
     0.22282282               0               0               0   -0.0018641934  -2.2093689e-09               0    0.0033591999   2.4783152e-13               0
     0.22492492               0               0               0   -0.0018592705  -2.1668143e-09               0    0.0033459686   2.4684418e-13               0
     0.22702703               0               0               0   -0.0018545116  -2.1267485e-09               0    0.0033331252     2.45892e-13               0
     0.22912913               0               0               0   -0.0018497526  -2.0866828e-09               0    0.0033202818   2.4493983e-13               0
     0.23123123               0               0               0    -0.001845155   -2.048968e-09  -2.7767245e-20     0.003307805   2.4402212e-13               0
     0.23333333               0               0               0   -0.0018406218  -2.0121907e-09  -6.6607949e-20    0.0032954744   2.4311817e-13               0
     0.23543544               0               0               0   -0.0018361024  -1.9756118e-09  -1.0051586e-19    0.0032831724   2.4221715e-13               0
     0.23753754               0               0               0   -0.0018317797  -1.9418645e-09   -6.403207e-20    0.0032712784   2.4135801e-13               0
     0.23963964               0               0               0    -0.001827457  -1.9081172e-09  -2.7548278e-20    0.0032593845   2.4049888e-13               0
     0.24174174               0               0               0   -0.0018232075  -1.8753831e-09   9.3503907e-21    0.0032476559   2.3965528e-13               0
     0.24384384               0               0               0   -0.0018190811  -1.8443519e-09   4.6946337e-20    0.0032362051    2.388378e-13               0
     0.24594595               0               0               0   -0.0018149548  -1.8133208e-09   8.4542284e-20    0.0032247544   2.3802031e-13               0
     0.24804805               0               0               0   -0.0018109454  -1.7838084e-09   7.5789972e-20    0.0032135887   2.3722757e-13               0
     0.25015015               0               0               0   -0.0018070029  -1.7551657e-09   4.0500144e-20    0.0032025862   2.3644899e-13               0
     0.25225225               0               0               0   -0.0018030605  -1.7265229e-09    5.210316e-21    0.0031915837    2.356704e-13               0
     0.25435435               0               0               0   -0.0017992655  -1.6997537e-09               0    0.0031808968   2.3492288e-13               0
     0.25645646               0               0               0   -0.0017954961   -1.673309e-09               0    0.0031702646   2.3418074e-13               0
     0.25855856               0               0               0     -0.00179173  -1.6469066e-09   5.8771871e-22    0.0031596392   2.3343931e-13               0
     0.26066066               0               0               0   -0.0017881229  -1.6225173e-09   2.9124834e-20    0.0031493337   2.3273126e-13               0
     0.26276276               0               0               0   -0.0017845158   -1.598128e-09   5.7661949e-20    0.0031390283   2.3202321e-13               0
     0.26486486               0               0               0   -0.0017809298  -1.5739931e-09   8.2240125e-20    0.0031287723   2.3131959e-13               0
     0.26696697               0               0               0   -0.0017774751  -1.5514377e-09   8.2240144e-20    0.0031188227   2.3064345e-13               0
     0.26906907               0               0               0   -0.0017740204  -1.5288824e-09   8.2240164e-20    0.0031088732   2.2996732e-13               0
     0.27117117               0               0               0   -0.0017705951   -1.506659e-09   7.6604034e-20    0.0030989958   2.2929734e-13               0
     0.27327327               0               0               0   -0.0017672843  -1.4857245e-09   4.9081479e-20    0.0030893981   2.2865123e-13               0
     0.27537538               0               0               0   -0.0017639734  -1.4647901e-09   2.1558924e-20    0.0030798004   2.2800513e-13               0
     0.27747748               0               0               0   -0.0017606921  -1.4441836e-09  -5.1609457e-21     0.003070265   2.2736517e-13               0
     0.27957958               0               0               0   -0.0017575174  -1.4247627e-09  -2.8979052e-20    0.0030609544    2.267474e-13               0
     0.28168168               0               0               0   -0.0017543428  -1.4053419e-09  -5.2797158e-20    0.0030516437   2.2612963e-13               0
     0.28378378               0               0               0   -0.0017511903  -1.3861682e-09  -7.2512539e-20    0.0030423767   2.2551645e-13               0
     0.28588589               0               0               0   -0.0017481441  -1.3681821e-09  -7.2512559e-20    0.0030333188   2.2492535e-13               0
     0.28798799               0               0               0    -0.001745098   -1.350196e-09  -7.2512578e-20    0.0030242609   2.2433425e-13               0
     0.29009009               0               0               0   -0.0017420603   -1.332299e-09  -7.0926365e-20    0.0030152226   2.2374488e-13               0
     0.29219219               0               0               0   -0.0017391356  -1.3156007e-09  -4.8008662e-20    0.0030064475   2.2317888e-13               0
     0.29429429               0               0               0   -0.0017362108  -1.2989024e-09  -2.5090959e-20    0.0029976725   2.2261289e-13               0
      0.2963964               0               0               0   -0.0017332861   -1.282204e-09  -2.1732559e-21    0.0029888974   2.2204689e-13               0
      0.2984985               0               0               0   -0.0017304656   -1.266534e-09               0    0.0029803846   2.2150241e-13               0
      0.3006006               0               0               0    -0.001727656  -1.2509717e-09               0    0.0029718993   2.2096017e-13               0
      0.3027027               0               0               0   -0.0017248465  -1.2354094e-09               0    0.0029634139   2.2041794e-13               0
      0.3048048               0               0               0   -0.0017221112  -1.2205692e-09   1.2712046e-20    0.0029550856   2.1989099e-13               0
     0.30690691               0               0               0   -0.0017194114  -1.2060726e-09   3.1472265e-20     0.002946832   2.1937131e-13               0
     0.30900901               0               0               0   -0.0017167115   -1.191576e-09   5.0232485e-20    0.0029385784   2.1885163e-13               0
     0.31111111               0               0               0   -0.0017140516  -1.1774712e-09   5.8398517e-20    0.0029304021   2.1834015e-13               0
     0.31321321               0               0               0   -0.0017114558  -1.1639951e-09    4.956052e-20    0.0029223497   2.1784182e-13               0
     0.31531532               0               0               0     -0.00170886   -1.150519e-09   4.0722523e-20    0.0029142974   2.1734348e-13               0
     0.31741742               0               0               0   -0.0017062663  -1.1370627e-09   3.2043412e-20    0.0029062497   2.1684558e-13               0
     0.31951952               0               0               0   -0.0017037693  -1.1245193e-09   3.0706244e-20    0.0028984182   2.1636746e-13               0
     0.32162162               0               0               0   -0.0017012723  -1.1119759e-09   2.9369077e-20    0.0028905867   2.1588934e-13               0
     0.32372372               0               0               0   -0.0016987753  -1.0994324e-09   2.8031909e-20    0.0028827553   2.1541121e-13               0
     0.32582583               0               0               0   -0.0016963336  -1.0873759e-09   3.2446588e-20    0.0028750604   2.1494435e-13               0
     0.32792793               0               0               0   -0.0016939307  -1.0756625e-09    4.091477e-20    0.0028674619   2.1448543e-13               0
     0.33003003               0               0               0   -0.0016915278  -1.0639491e-09   4.9382952e-20    0.0028598633    2.140265e-13               0
     0.33213213               0               0               0   -0.0016891319  -1.0522944e-09   5.5970503e-20    0.0028522807   2.1356899e-13               0
     0.33423423               0               0               0   -0.0016868189  -1.0413436e-09   4.0027966e-20    0.0028448888   2.1312836e-13               0
     0.33633634               0               0               0    -0.001684506  -1.0303927e-09   2.4085429e-20    0.0028374969   2.1268773e-13               0
     0.33843844               0               0               0   -0.0016821931  -1.0194419e-09   8.1428921e-21    0.0028301049    2.122471e-13               0
     0.34054054               0               0               0   -0.0016799222   -1.008848e-09  -1.0211232e-20     0.002822797     2.11815e-13               0
     0.34264264               0               0               0   -0.0016776952  -9.9862687e-10  -3.1083071e-20    0.0028155768   2.1139181e-13               0
     0.34474474               0               0               0   -0.0016754682  -9.8840573e-10  -5.1954911e-20    0.0028083566   2.1096862e-13               0
     0.34684685               0               0               0   -0.0016732412  -9.7818459e-10   -7.282675e-20    0.0028011364   2.1054543e-13               0
     0.34894895               0               0               0   -0.0016710815  -9.6853095e-10  -7.6589126e-20    0.0027940524   2.1013583e-13               0
     0.35105105               0               0               0   -0.0016689365   -9.590021e-10  -7.6589155e-20    0.0027869985   2.0972922e-13               0
     0.35315315               0               0               0   -0.0016667915  -9.4947325e-10  -7.6589185e-20    0.0027799445   2.0932262e-13               0
     0.35525526               0               0               0   -0.0016646515  -9.3998498e-10  -7.4495031e-20    0.0027729026   2.0891704e-13               0
     0.35735736               0               0               0   -0.0016625848  -9.3108128e-10  -4.2236844e-20    0.0027660355   2.0852623e-13               0
     0.35945946               0               0               0    -0.001660518  -9.2217758e-10  -9.9786563e-21    0.0027591683   2.0813541e-13               0
     0.36156156               0               0               0   -0.0016584512  -9.1327387e-10   2.2279531e-20    0.0027523012    2.077446e-13               0
     0.36366366               0               0               0    -0.001656401  -9.0449347e-10   4.7411082e-20    0.0027454762   2.0735712e-13               0
     0.36576577               0               0               0   -0.0016544093  -8.9614787e-10   4.7411102e-20    0.0027387998   2.0698141e-13               0
     0.36786787               0               0               0   -0.0016524175  -8.8780227e-10   4.7411122e-20    0.0027321235    2.066057e-13               0
     0.36996997               0               0               0   -0.0016504258  -8.7945666e-10   4.7411142e-20    0.0027254472   2.0622998e-13               0
     0.37207207               0               0               0   -0.0016484545  -8.7126136e-10   4.4077682e-20    0.0027188136   2.0585838e-13               0
     0.37417417               0               0               0   -0.0016465348  -8.6344557e-10   3.2327111e-20    0.0027122881   2.0549714e-13               0
     0.37627628               0               0               0   -0.0016446151  -8.5562977e-10   2.0576539e-20    0.0027057625    2.051359e-13               0
     0.37837838               0               0               0   -0.0016426955  -8.4781397e-10   8.8259674e-21     0.002699237   2.0477466e-13               0
     0.38048048               0               0               0    -0.001640793   -8.401259e-10  -1.2776971e-21    0.0026927446   2.0441686e-13               0
     0.38258258               0               0               0   -0.0016389424  -8.3282329e-10  -6.4112711e-21    0.0026863522   2.0406946e-13               0
     0.38468468               0               0               0   -0.0016370919  -8.2552067e-10  -1.1544845e-20    0.0026799598   2.0372205e-13               0
     0.38678679               0               0               0   -0.0016352413  -8.1821805e-10  -1.6678419e-20    0.0026735674   2.0337465e-13               0
     0.38888889               0               0               0   -0.0016333981  -8.1096886e-10  -2.1777554e-20    0.0026671914   2.0302873e-13               0