#      distance             U_x             U_y             U_z wallShearStr... wallShearStr... wallShearStr...               p             nut         nuTilda
  3.0219182e-06     0.018855774   2.7096737e-09  -3.5563249e-23               0               0               0   0.00024091049   3.1859433e-12   4.3835738e-08
  5.0865428e-06     0.031741093   6.8740699e-09  -1.5136023e-23               0               0               0   0.00024091071   1.5791483e-11   7.3786277e-08
  7.2269684e-06     0.045097698   1.3536317e-08  -3.8981958e-23               0               0               0   0.00024091093   5.3954466e-11   1.0483253e-07
  9.4750924e-06     0.059121632   2.3069669e-08  -5.8466683e-23               0               0               0   0.00024091116   1.4693867e-10   1.3743524e-07
  1.1864417e-05     0.074015322   3.6000951e-08  -2.4741281e-23               0               0               0    0.0002409114   3.4559061e-10    1.720777e-07
  1.4430548e-05     0.089987274   5.3088828e-08   8.0869414e-23               0               0               0   0.00024091166    7.359412e-10   2.0927269e-07
  1.7211727e-05      0.10724906   7.5331812e-08   1.3180257e-22               0               0               0   0.00024091194   1.4613073e-09   2.4956995e-07
  2.0249401e-05      0.12600743    1.040023e-07   2.7889686e-23               0               0               0   0.00024091226   2.7575408e-09   2.9356467e-07
  2.3588836e-05      0.14644824   1.4068771e-07  -3.5573832e-23               0               0               0   0.00024091263   5.0082789e-09   3.4190764e-07
  2.7279799e-05      0.16870726   1.8731664e-07  -1.7786916e-23               0               0               0   0.00024091305   8.8297955e-09   3.9531848e-07
  3.1377293e-05      0.19282325    2.461439e-07               0               0               0               0   0.00024091356    1.519785e-08   4.5460389e-07
  3.5942381e-05      0.21867201    3.196591e-07    8.773363e-23               0               0               0   0.00024091421   2.5629968e-08    5.206822e-07
  4.1043091e-05      0.24589347    4.103852e-07   1.3158637e-22               0               0               0   0.00024091505   4.2430393e-08   5.9461178e-07
  4.6755437e-05      0.27384625   5.2057607e-07   1.5308161e-22               0               0               0   0.00024091621   6.8978318e-08   6.7761054e-07
  5.3164546e-05      0.30164458   6.5192211e-07   1.6382578e-22               0               0               0   0.00024091784   1.0997295e-07   7.7104444e-07
  6.0365928e-05      0.32831409   8.0547594e-07  -2.3004496e-22               0               0               0   0.00024092016   1.7144583e-07   8.7637559e-07
    6.84669e-05      0.35302747   9.8196666e-07   -4.990833e-22               0               0               0   0.00024092345   2.6029747e-07   9.9510902e-07
  7.7588184e-05      0.37530145   1.1824204e-06  -2.6258174e-22               0               0               0     0.000240928   3.8325139e-07   1.1288079e-06
   8.786571e-05      0.39504985   1.4087658e-06   4.5636225e-23               0               0               0    0.0002409341   5.4545451e-07   1.2791942e-06
  9.9452634e-05      0.41249326   1.6641499e-06   2.4762437e-22               0               0               0   0.00024094194   7.4928897e-07   1.4482738e-06
  0.00011252163      0.42801104    1.952956e-06   6.8013726e-23               0               0               0   0.00024095159   9.9402269e-07   1.6384189e-06
  0.00012726745       0.4420166   2.2806861e-06   -1.087705e-22               0               0               0   0.00024096306   1.2765795e-06   1.8524014e-06
  0.00014390985       0.4548852   2.6538604e-06  -2.2936399e-23               0               0               0   0.00024097626   1.5931163e-06   2.0934012e-06
  0.00016269684      0.46692584   3.0799943e-06   6.0095272e-23               0               0               0   0.00024099118   1.9406917e-06   2.3650149e-06
  0.00018390838      0.47837869   3.5676581e-06   4.4442377e-22               0               0               0   0.00024100785   2.3183929e-06   2.6712749e-06
  0.00020786057      0.48942372    4.126603e-06    5.463931e-22               0               0               0    0.0002410264   2.7277187e-06   3.0166835e-06
  0.00023491035      0.50019261   4.7679387e-06    1.620646e-22               0               0               0   0.00024104706   3.1723961e-06   3.4062576e-06
  0.00026546084      0.51078001   5.5043503e-06               0               0               0               0   0.00024107017    3.657949e-06   3.8455827e-06
   0.0002999673      0.52125318    6.350354e-06               0               0               0               0   0.00024109614   4.1912596e-06   4.3408708e-06
  0.00033894396      0.53165944   7.3225925e-06  -1.7303464e-22               0               0               0   0.00024112546   4.7802421e-06   4.8990208e-06
  0.00038297165      0.54203196   8.4401821e-06  -3.4606928e-22               0               0               0   0.00024115869   5.4336467e-06   5.5276739e-06
  0.00043270649        0.552394   9.7251187e-06   6.9969406e-22               0               0               0   0.00024119646   6.1609656e-06   6.2352634e-06
  0.00048888965      0.56276205   1.1202758e-05   1.3826626e-21               0               0               0   0.00024123951   6.9724019e-06   7.0310511e-06
  0.00055235838      0.57314813    1.290239e-05   5.0993387e-22               0               0               0   0.00024128863   7.8788646e-06   7.9251441e-06
   0.0006240585      0.58356146   1.4857921e-05               0               0               0               0   0.00024134476    8.891959e-06   8.9284832e-06
  0.00070505852      0.59400972   1.7108703e-05   2.4322306e-22               0               0               0   0.00024140894   1.0023949e-05   1.0052792e-05
  0.00079656552          0.6045   1.9700535e-05   4.8644613e-22               0               0               0   0.00024148235   1.1287672e-05   1.1310472e-05
  0.00089994316      0.61503954    2.268689e-05   2.4322306e-22               0               0               0   0.00024156632   1.2696383e-05   1.2714431e-05
    0.001016732      0.62563628   2.6130412e-05               0               0               0               0   0.00024166237   1.4263513e-05   1.4277827e-05
   0.0011486725      0.63629941   3.0104764e-05   1.0008059e-21               0               0               0   0.00024177219   1.6002337e-05   1.6013714e-05
   0.0012977308      0.64703979   3.4696906e-05  -7.8121214e-22               0               0               0   0.00024189769   1.7925517e-05   1.7934585e-05
   0.0014661282       0.6578703   4.0009903e-05  -3.4516606e-21               0               0               0   0.00024204101   2.0044548e-05   2.0051799e-05
   0.0016563743      0.66880621    4.616638e-05  -2.8033063e-21               0               0               0    0.0002422045   2.2369091e-05   2.2374911e-05
   0.0018713042      0.67986542   5.3312763e-05  -1.7384492e-21               0               0               0   0.00024239071   2.4906227e-05   2.4910919e-05
   0.0021141207      0.69106876   6.1624472e-05  -6.0478544e-22               0               0               0    0.0002426024   2.7659636e-05   2.7663437e-05
   0.0023884425      0.70244005   7.1312221e-05  -4.5755541e-22               0               0               0   0.00024284244   3.0628739e-05   3.0631837e-05
   0.0026983575      0.71400625   8.2629655e-05    1.164495e-21               0               0               0   0.00024311375   3.3807789e-05    3.381033e-05
   0.0030484842      0.72579747   9.5882552e-05  -2.4173139e-21               0               0               0   0.00024341912   3.7184889e-05   3.7186987e-05
   0.0034440402      0.73784685   0.00011143985  -5.8359013e-21               0               0               0   0.00024376102   4.0740877e-05   4.0742623e-05
   0.0038909203      0.75019041   0.00012974676  -1.7965369e-21               0               0               0   0.00024414123   4.4447982e-05   4.4449447e-05
    0.004395784      0.76286688   0.00015134009   3.8239898e-21               0               0               0   0.00024456038   4.8268163e-05   4.8269405e-05
   0.0049661549       0.7759173   0.00017686627  -4.6080111e-21               0               0               0   0.00024501736    5.215102e-05   5.2152083e-05
   0.0056105328       0.7893845   0.00020710517  -1.5115942e-20               0               0               0   0.00024550904   5.6031203e-05   5.6032122e-05
   0.0063385204       0.8033123   0.00024300436   5.6644484e-21               0               0               0   0.00024602954   5.9825274e-05   5.9826079e-05
   0.0071609664      0.81774417   0.00028570719   2.0570713e-20               0               0               0   0.00024656323   6.3427979e-05   6.3428693e-05
   0.0080901272      0.83272111   0.00033637041   4.7959323e-20               0               0               0   0.00024708475   6.6707877e-05   6.6708523e-05
   0.0091398493      0.84827812   0.00039661528   6.0615362e-20               0               0               0   0.00024756294   6.9502298e-05   6.9502893e-05
    0.010325776      0.86443849   0.00046841187   2.5778201e-20               0               0               0   0.00024795029   7.1611549e-05   7.1612108e-05
     0.01166558      0.88120457   0.00055358004   4.8998419e-21               0               0               0   0.00024817938   7.2792364e-05   7.2792905e-05
    0.013179228      0.89854283   0.00065412526   1.6397321e-20               0               0               0   0.00024815751   7.2750694e-05   7.2751235e-05
    0.014889277      0.91635929   0.00077201656   1.4082479e-20               0               0               0    0.0002477537   7.1134209e-05   7.1134776e-05
    0.016821209      0.93445871   0.00090854616   4.1579292e-20               0               0               0    0.0002467941   6.7525321e-05   6.7525954e-05
    0.019003816      0.95247495    0.0010631943   6.5192502e-20               0               0               0    0.0002450556   6.1435659e-05   6.1436435e-05
    0.021469624       0.9697502     0.001231584   3.3532237e-20               0               0               0   0.00024229087   5.2295505e-05   5.2296624e-05
    0.024255377      0.98516243     0.001404831   1.3879287e-20               0               0               0    0.0002383683   3.9259408e-05   3.9261862e-05
    0.027402591       0.9966182    0.0015423824   1.6453788e-21               0               0               0   0.00023278664   2.2515787e-05   2.2545208e-05
    0.030958166       1.0023366    0.0016046789               0               0               0               0   0.00022549783   8.2082794e-06   8.4011172e-06
    0.034975088       1.0037619    0.0016139771               0               0               0               0   0.00021783867   2.2371093e-06   2.6678734e-06
    0.039513219       1.0038583    0.0016052597   1.9843116e-20               0               0               0    0.0002105692   1.4456162e-06   1.9793815e-06
    0.044640187       1.0038603    0.0015948046   2.8292314e-20               0               0               0   0.00020335571   1.4394618e-06   1.9747118e-06
    0.050432395        1.003866    0.0015845237   6.9799069e-21               0               0               0    0.0001960209    1.447837e-06     1.98105e-06
    0.056976161       1.0038708    0.0015722915  -1.4692553e-21               0               0               0   0.00018864072   1.4545163e-06   1.9861071e-06
    0.064369002       1.0038731    0.0015595652               0               0               0               0   0.00018134799   1.4599155e-06   1.9901971e-06
    0.072721087       1.0038713    0.0015451528               0               0               0               0   0.00017427784    1.464458e-06   1.9936393e-06
    0.082156882       1.0038666    0.0015300236               0               0               0               0    0.0001675299   1.4683098e-06    1.996559e-06
    0.092817002       1.0038592    0.0015136149               0               0               0               0   0.00016119262   1.4723467e-06     1.99962e-06
