/*--------------------------------*- C++ -*----------------------------------*\
  =========                 |
  \\      /  F ield         | OpenFOAM: The Open Source CFD Toolbox
   \\    /   O peration     | Website:  https://openfoam.org
    \\  /    A nd           | Version:  12
     \\/     M anipulation  |
\*---------------------------------------------------------------------------*/
FoamFile
{
    format      ascii;
    class       volScalarField;
    location    "1400";
    object      nut;
}
// * * * * * * * * * * * * * * * * * * * * * * * * * * * * * * * * * * * * * //

dimensions      [0 2 -1 0 0 0 0];

internalField   nonuniform List<scalar> 
13056
(
1.9258429e-07
1.6531957e-07
1.6450714e-07
1.6085456e-07
1.5575043e-07
1.5102278e-07
1.470887e-07
1.4386033e-07
1.411928e-07
1.3897031e-07
1.37106e-07
1.3553276e-07
1.3419709e-07
1.3305568e-07
1.3207324e-07
1.3122092e-07
1.3047521e-07
1.2981603e-07
1.292293e-07
1.2869274e-07
1.2822677e-07
1.2772372e-07
1.2730656e-07
7.1267029e-08
6.4151854e-17
1.0338672e-15
1.941152e-15
2.1825622e-15
2.1241946e-15
2.0011778e-15
1.8893752e-15
1.7949755e-15
1.713348e-15
1.6419677e-15
1.5791424e-15
1.5233052e-15
1.4718171e-15
1.4246546e-15
1.381413e-15
1.3417603e-15
1.3053123e-15
1.2715892e-15
1.2402545e-15
1.211059e-15
1.1836974e-15
1.1580012e-15
1.1337998e-15
1.1109544e-15
1.0893493e-15
1.0688439e-15
1.049375e-15
1.0308285e-15
1.0131038e-15
9.9616769e-16
9.7994537e-16
9.643626e-16
9.4939496e-16
9.3499096e-16
9.2108816e-16
9.0766687e-16
8.946996e-16
8.8214058e-16
8.6995971e-16
8.5814789e-16
8.4660987e-16
8.3533561e-16
8.2435454e-16
8.1366022e-16
8.0323178e-16
7.9304704e-16
7.830959e-16
7.7336878e-16
7.6384689e-16
7.5451355e-16
7.4536274e-16
7.3638854e-16
7.2757472e-16
7.1890864e-16
7.1038491e-16
7.020021e-16
6.9374881e-16
6.8561056e-16
6.775811e-16
6.6966326e-16
6.6184993e-16
6.5412545e-16
6.4648366e-16
6.389266e-16
6.3145223e-16
6.2404936e-16
6.1670834e-16
6.0942807e-16
6.0221168e-16
5.9504993e-16
5.879295e-16
5.8084755e-16
5.7381016e-16
5.6681019e-16
5.5982714e-16
5.528627e-16
5.4592446e-16
5.3900572e-16
5.3209234e-16
5.2517992e-16
5.1827435e-16
5.1136614e-16
5.0444004e-16
4.9749619e-16
4.9053566e-16
4.8354533e-16
4.7651547e-16
4.6944965e-16
4.623374e-16
4.5531565e-16
4.4861375e-16
4.4227857e-16
4.3623273e-16
4.3049706e-16
4.2505328e-16
4.1987404e-16
4.1493278e-16
4.1021266e-16
4.0570275e-16
4.0138699e-16
3.9724632e-16
3.9326685e-16
3.8944122e-16
3.8576163e-16
3.8221692e-16
3.7879156e-16
3.754796e-16
3.7225337e-16
3.6915138e-16
3.6599604e-16
3.6319313e-16
3.5865792e-16
1.9258431e-07
1.6531984e-07
1.6450452e-07
1.6085351e-07
1.557519e-07
1.5102575e-07
1.470924e-07
1.4386435e-07
1.4119695e-07
1.3897448e-07
1.3711012e-07
1.355368e-07
1.3420103e-07
1.330595e-07
1.3207695e-07
1.3122453e-07
1.3047871e-07
1.2981942e-07
1.2923259e-07
1.2869594e-07
1.2822985e-07
1.2772616e-07
1.2731085e-07
7.3275789e-08
3.5247365e-15
1.8143965e-13
3.4067717e-13
3.8304512e-13
3.7280261e-13
3.5121442e-13
3.315941e-13
3.1502771e-13
3.0070261e-13
2.8817575e-13
2.7715017e-13
2.6735094e-13
2.5831491e-13
2.5003797e-13
2.4244914e-13
2.3549012e-13
2.2909349e-13
2.2317509e-13
2.1767584e-13
2.12552e-13
2.0774999e-13
2.0324027e-13
1.9899287e-13
1.9498347e-13
1.9119171e-13
1.8759295e-13
1.841761e-13
1.8092112e-13
1.7781038e-13
1.7483803e-13
1.7199095e-13
1.6925611e-13
1.6662922e-13
1.6410126e-13
1.6166125e-13
1.5930575e-13
1.5702993e-13
1.5482575e-13
1.5268794e-13
1.506149e-13
1.4858992e-13
1.4661122e-13
1.4468397e-13
1.4280706e-13
1.409768e-13
1.3918931e-13
1.3744282e-13
1.3573565e-13
1.3406449e-13
1.3242643e-13
1.308204e-13
1.2924536e-13
1.2769847e-13
1.2617751e-13
1.2468153e-13
1.2321028e-13
1.2176177e-13
1.2033344e-13
1.1892421e-13
1.1753456e-13
1.1616326e-13
1.1480755e-13
1.1346635e-13
1.1214003e-13
1.1082821e-13
1.0952894e-13
1.0824053e-13
1.0696278e-13
1.0569624e-13
1.0443929e-13
1.0318959e-13
1.0194664e-13
1.0071151e-13
9.9482952e-14
9.8257361e-14
9.7035035e-14
9.5817306e-14
9.4603e-14
9.3389634e-14
9.2176436e-14
9.0964439e-14
8.9751978e-14
8.8536376e-14
8.731766e-14
8.6096014e-14
8.4869137e-14
8.3635322e-14
8.2395195e-14
8.1146919e-14
7.9914525e-14
7.8738268e-14
7.7626375e-14
7.6565261e-14
7.5558586e-14
7.4603141e-14
7.3694126e-14
7.2826877e-14
7.1998442e-14
7.12069e-14
7.0449434e-14
6.9722698e-14
6.9024254e-14
6.8352811e-14
6.7706998e-14
6.7084859e-14
6.6483666e-14
6.5902378e-14
6.5336136e-14
6.4791698e-14
6.4237898e-14
6.3745953e-14
6.2949967e-14
1.925844e-07
1.6532025e-07
1.6449569e-07
1.6085145e-07
1.5575822e-07
1.5103667e-07
1.4710545e-07
1.4387833e-07
1.4121123e-07
1.3898873e-07
1.3712416e-07
1.3555052e-07
1.3421439e-07
1.3307247e-07
1.3208953e-07
1.3123673e-07
1.3049054e-07
1.2983091e-07
1.2924376e-07
1.2870679e-07
1.2824039e-07
1.2773529e-07
1.2732349e-07
7.5610669e-08
4.9493695e-14
3.8735179e-12
7.273226e-12
8.1776653e-12
7.9592432e-12
7.4986478e-12
7.0800063e-12
6.7265012e-12
6.4208011e-12
6.1534608e-12
5.9181493e-12
5.7090028e-12
5.5161375e-12
5.3394688e-12
5.1774832e-12
5.0289374e-12
4.8923933e-12
4.7660548e-12
4.6486613e-12
4.5392799e-12
4.436767e-12
4.3404923e-12
4.2498164e-12
4.1642201e-12
4.0832694e-12
4.0064379e-12
3.9334892e-12
3.8639956e-12
3.7975807e-12
3.7341199e-12
3.673333e-12
3.6149419e-12
3.5588552e-12
3.5048801e-12
3.4527825e-12
3.4024889e-12
3.3538962e-12
3.3068328e-12
3.2611862e-12
3.2169222e-12
3.1736838e-12
3.1314335e-12
3.0902817e-12
3.0502041e-12
3.0111227e-12
2.9729542e-12
2.9356609e-12
2.899207e-12
2.8635219e-12
2.8285432e-12
2.7942484e-12
2.7606152e-12
2.727583e-12
2.6951042e-12
2.6631587e-12
2.6317411e-12
2.6008088e-12
2.5703075e-12
2.5402138e-12
2.5105382e-12
2.4812542e-12
2.4523029e-12
2.4236615e-12
2.3953375e-12
2.3673232e-12
2.3395768e-12
2.312062e-12
2.2847748e-12
2.257727e-12
2.2308837e-12
2.2041952e-12
2.1776508e-12
2.1512732e-12
2.1250358e-12
2.0988617e-12
2.0727571e-12
2.0467507e-12
2.0208172e-12
1.9949037e-12
1.9689936e-12
1.9431091e-12
1.9172145e-12
1.8912528e-12
1.8652244e-12
1.8391333e-12
1.8129303e-12
1.7865791e-12
1.7600929e-12
1.7334326e-12
1.7071113e-12
1.6819889e-12
1.658241e-12
1.6355776e-12
1.6140768e-12
1.5936701e-12
1.574255e-12
1.5557319e-12
1.5380377e-12
1.5211314e-12
1.504953e-12
1.4894308e-12
1.4745129e-12
1.4601716e-12
1.4463777e-12
1.4330895e-12
1.4202486e-12
1.4078328e-12
1.3957384e-12
1.3841096e-12
1.3722809e-12
1.3617733e-12
1.3447716e-12
1.9258456e-07
1.6532086e-07
1.6448041e-07
1.6084824e-07
1.557695e-07
1.5105581e-07
1.4712822e-07
1.4390265e-07
1.4123608e-07
1.3901352e-07
1.3714858e-07
1.3557439e-07
1.3423761e-07
1.3309502e-07
1.321114e-07
1.3125794e-07
1.3051113e-07
1.298509e-07
1.2926319e-07
1.2872567e-07
1.2825877e-07
1.2775155e-07
1.273448e-07
7.807221e-08
3.2854332e-13
3.1139854e-11
5.8474704e-11
6.5743919e-11
6.3996497e-11
6.0303587e-11
5.6945921e-11
5.4109813e-11
5.1656518e-11
4.9510561e-11
4.7621341e-11
4.5941912e-11
4.4392958e-11
4.2973894e-11
4.1672619e-11
4.0479184e-11
3.9382065e-11
3.8366856e-11
3.7423447e-11
3.6544357e-11
3.5720408e-11
3.4946547e-11
3.4217643e-11
3.352953e-11
3.2878726e-11
3.2261006e-11
3.1674473e-11
3.1115692e-11
3.0581642e-11
3.0071323e-11
2.9582485e-11
2.9112895e-11
2.8661819e-11
2.8227708e-11
2.7808683e-11
2.7404154e-11
2.7013291e-11
2.6634717e-11
2.6267528e-11
2.5911449e-11
2.5563609e-11
2.5223707e-11
2.4892632e-11
2.457019e-11
2.4255754e-11
2.3948655e-11
2.364859e-11
2.335527e-11
2.306813e-11
2.2786666e-11
2.2510699e-11
2.2240049e-11
2.1974228e-11
2.1712855e-11
2.1455768e-11
2.1202924e-11
2.0953979e-11
2.0708498e-11
2.0466291e-11
2.0227445e-11
1.9991745e-11
1.9758719e-11
1.9528181e-11
1.9300193e-11
1.9074695e-11
1.8851347e-11
1.862986e-11
1.84102e-11
1.8192462e-11
1.7976367e-11
1.7761514e-11
1.7547816e-11
1.7335457e-11
1.7124223e-11
1.6913493e-11
1.670332e-11
1.6493933e-11
1.6285128e-11
1.6076481e-11
1.5867857e-11
1.5659434e-11
1.5450927e-11
1.5241874e-11
1.503228e-11
1.4822178e-11
1.461117e-11
1.4398964e-11
1.4185667e-11
1.3970962e-11
1.3758984e-11
1.3556656e-11
1.3365395e-11
1.3182864e-11
1.3009694e-11
1.2845333e-11
1.2688956e-11
1.2539761e-11
1.2397241e-11
1.2261065e-11
1.213075e-11
1.2005719e-11
1.1885555e-11
1.1770033e-11
1.165892e-11
1.1551879e-11
1.144844e-11
1.1348424e-11
1.1250997e-11
1.1157319e-11
1.106203e-11
1.0977383e-11
1.0840418e-11
1.9258479e-07
1.6532172e-07
1.644583e-07
1.6084364e-07
1.557859e-07
1.5108362e-07
1.471613e-07
1.43938e-07
1.4127218e-07
1.3904956e-07
1.3718409e-07
1.356091e-07
1.3427139e-07
1.3312783e-07
1.3214324e-07
1.3128883e-07
1.3054111e-07
1.2988002e-07
1.2929149e-07
1.2875318e-07
1.2828558e-07
1.2777563e-07
1.2737536e-07
8.0623355e-08
1.419843e-12
1.5095604e-10
2.8354776e-10
3.187798e-10
3.1042655e-10
2.9265808e-10
2.764869e-10
2.6281604e-10
2.5098075e-10
2.4062124e-10
2.3149621e-10
2.2338069e-10
2.1589206e-10
2.0902883e-10
2.027332e-10
1.9695759e-10
1.9164665e-10
1.8673094e-10
1.8216181e-10
1.7790326e-10
1.73911e-10
1.7016071e-10
1.6662765e-10
1.6329173e-10
1.6013618e-10
1.5714058e-10
1.542958e-10
1.5158525e-10
1.4899432e-10
1.465182e-10
1.4414602e-10
1.4186698e-10
1.3967755e-10
1.3757022e-10
1.3553592e-10
1.3357179e-10
1.3167383e-10
1.2983537e-10
1.2805203e-10
1.2632249e-10
1.2463281e-10
1.2298152e-10
1.2137299e-10
1.1980628e-10
1.1827833e-10
1.1678593e-10
1.1532759e-10
1.1390194e-10
1.1250621e-10
1.1113798e-10
1.0979636e-10
1.0848052e-10
1.0718806e-10
1.0591713e-10
1.0466697e-10
1.0343736e-10
1.0222663e-10
1.0103267e-10
9.9854562e-11
9.8692727e-11
9.7546128e-11
9.6412466e-11
9.529084e-11
9.4181555e-11
9.3084315e-11
9.1997478e-11
9.0919628e-11
8.9850609e-11
8.8790883e-11
8.7739091e-11
8.6693283e-11
8.5653038e-11
8.4619254e-11
8.3590883e-11
8.2564914e-11
8.1541594e-11
8.052204e-11
7.9505269e-11
7.8489202e-11
7.7473192e-11
7.6458104e-11
7.5442546e-11
7.4424272e-11
7.3403304e-11
7.2379796e-11
7.135182e-11
7.0317942e-11
6.9278686e-11
6.8232511e-11
6.7199557e-11
6.6213573e-11
6.5281463e-11
6.4391845e-11
6.3547805e-11
6.2746662e-11
6.1984402e-11
6.1257119e-11
6.0562342e-11
5.9898469e-11
5.926314e-11
5.8653554e-11
5.8067668e-11
5.7504404e-11
5.6962616e-11
5.6440664e-11
5.5936264e-11
5.5448542e-11
5.4973426e-11
5.4516585e-11
5.4051881e-11
5.3639056e-11
5.2971055e-11
1.9258509e-07
1.6532293e-07
1.6442885e-07
1.6083732e-07
1.5580762e-07
1.5112066e-07
1.4720546e-07
1.4398525e-07
1.4132049e-07
1.3909782e-07
1.3723166e-07
1.3565564e-07
1.3431672e-07
1.3317186e-07
1.3218598e-07
1.3133031e-07
1.3058139e-07
1.2991916e-07
1.2932955e-07
1.2879018e-07
1.2832166e-07
1.2780847e-07
1.27416e-07
8.3259283e-08
4.6603741e-12
5.4041621e-10
1.0158524e-09
1.1420532e-09
1.1130969e-09
1.0505399e-09
9.9347989e-10
9.4515208e-10
9.0323732e-10
8.6649481e-10
8.3409179e-10
8.052437e-10
7.7859532e-10
7.5415197e-10
7.3171353e-10
7.1111491e-10
6.9216191e-10
6.7460929e-10
6.5828552e-10
6.4306387e-10
6.2878739e-10
6.1537043e-10
6.027255e-10
5.9078154e-10
5.7947926e-10
5.687462e-10
5.5855017e-10
5.4883216e-10
5.3954024e-10
5.3065753e-10
5.2214532e-10
5.1396518e-10
5.0610466e-10
4.9853706e-10
4.9122995e-10
4.841733e-10
4.7735284e-10
4.7074473e-10
4.6433343e-10
4.5811435e-10
4.5203714e-10
4.4609677e-10
4.4030912e-10
4.3467091e-10
4.291712e-10
4.2379842e-10
4.1854743e-10
4.1341323e-10
4.0838596e-10
4.0345689e-10
3.9862296e-10
3.9388112e-10
3.8922284e-10
3.8464145e-10
3.801342e-10
3.7570042e-10
3.7133409e-10
3.6702758e-10
3.6277763e-10
3.585858e-10
3.5444836e-10
3.5035703e-10
3.4630856e-10
3.4230409e-10
3.3834257e-10
3.3441809e-10
3.3052552e-10
3.2666432e-10
3.2283619e-10
3.1903622e-10
3.1525737e-10
3.1149811e-10
3.0776172e-10
3.0404441e-10
3.003353e-10
2.9663527e-10
2.9294838e-10
2.8927108e-10
2.8559584e-10
2.8192032e-10
2.7824765e-10
2.745728e-10
2.7088763e-10
2.6719221e-10
2.6348711e-10
2.5976532e-10
2.5602166e-10
2.52258e-10
2.4846876e-10
2.4472689e-10
2.4115467e-10
2.3777719e-10
2.3455322e-10
2.3149407e-10
2.2859006e-10
2.258267e-10
2.2318987e-10
2.2067065e-10
2.1826326e-10
2.1595918e-10
2.1374826e-10
2.1162312e-10
2.0957987e-10
2.0761438e-10
2.0572071e-10
2.0389058e-10
2.0212085e-10
2.0039675e-10
1.9873884e-10
1.9705236e-10
1.9555401e-10
1.9312929e-10
1.9258547e-07
1.6532463e-07
1.6439143e-07
1.6082883e-07
1.5583487e-07
1.5116764e-07
1.4726168e-07
1.4404553e-07
1.4138221e-07
1.3915954e-07
1.3729256e-07
1.3571525e-07
1.3437481e-07
1.3322834e-07
1.3224084e-07
1.3138358e-07
1.3063314e-07
1.2996945e-07
1.2937847e-07
1.2883777e-07
1.2836808e-07
1.2785134e-07
1.2746776e-07
8.598058e-08
1.2560115e-11
1.5733271e-09
2.9619674e-09
3.33049e-09
3.251468e-09
3.0750863e-09
2.9135087e-09
2.7761804e-09
2.6566701e-09
2.551615e-09
2.4587573e-09
2.3759252e-09
2.2992522e-09
2.2288117e-09
2.1640585e-09
2.1045402e-09
2.0497133e-09
1.9988819e-09
1.9515614e-09
1.9073946e-09
1.8659335e-09
1.8269366e-09
1.7901552e-09
1.7553871e-09
1.7224641e-09
1.6911786e-09
1.6614397e-09
1.633078e-09
1.6059443e-09
1.5799911e-09
1.5551073e-09
1.531182e-09
1.5081804e-09
1.4860253e-09
1.464623e-09
1.4439453e-09
1.423951e-09
1.4045709e-09
1.3857606e-09
1.3675072e-09
1.3496622e-09
1.3322117e-09
1.3152037e-09
1.298629e-09
1.2824555e-09
1.2666499e-09
1.2511973e-09
1.2360836e-09
1.2212797e-09
1.2067603e-09
1.1925167e-09
1.1785402e-09
1.1648059e-09
1.1512941e-09
1.137997e-09
1.1249129e-09
1.1120242e-09
1.0993084e-09
1.086756e-09
1.0743719e-09
1.0621451e-09
1.0500513e-09
1.0380808e-09
1.0262373e-09
1.0145177e-09
1.0029046e-09
9.9138293e-10
9.7995104e-10
9.6861412e-10
9.5735773e-10
9.4616094e-10
9.3501931e-10
9.239426e-10
9.1291967e-10
9.0191819e-10
8.9094079e-10
8.7999956e-10
8.6908401e-10
8.5817175e-10
8.4725578e-10
8.3634547e-10
8.2542585e-10
8.1447267e-10
8.0348611e-10
7.9246784e-10
7.8139701e-10
7.7025807e-10
7.5905658e-10
7.4777584e-10
7.3663302e-10
7.2599255e-10
7.159295e-10
7.0632107e-10
6.9720168e-10
6.8854288e-10
6.803017e-10
6.7243627e-10
6.6492018e-10
6.5773639e-10
6.5085965e-10
6.4425983e-10
6.3791504e-10
6.3181375e-10
6.2594374e-10
6.202874e-10
6.148201e-10
6.0953247e-10
6.0438054e-10
5.9942568e-10
5.9438516e-10
5.8990604e-10
5.8265654e-10
1.9258594e-07
1.6532699e-07
1.6434535e-07
1.6081759e-07
1.5586786e-07
1.5122534e-07
1.4733109e-07
1.4412017e-07
1.4145876e-07
1.3923621e-07
1.3736829e-07
1.3578947e-07
1.3444719e-07
1.3329876e-07
1.3230928e-07
1.3145008e-07
1.3069778e-07
1.3003231e-07
1.2943965e-07
1.2889731e-07
1.284262e-07
1.2790587e-07
1.2753191e-07
8.8783724e-08
2.8993562e-11
3.9058887e-09
7.3726929e-09
8.2957009e-09
8.1214977e-09
7.7069244e-09
7.3243266e-09
6.9972925e-09
6.7110942e-09
6.4583498e-09
6.2341125e-09
6.0334377e-09
5.8470442e-09
5.6753494e-09
5.5171522e-09
5.3714424e-09
5.2369597e-09
5.1120505e-09
4.9955732e-09
4.8866895e-09
4.7843244e-09
4.6879109e-09
4.5968569e-09
4.5106803e-09
4.4289824e-09
4.3512615e-09
4.2773046e-09
4.2067007e-09
4.1390881e-09
4.0743572e-09
4.0122374e-09
3.9524593e-09
3.8949414e-09
3.8394951e-09
3.785891e-09
3.7340636e-09
3.6839118e-09
3.6352655e-09
3.5880173e-09
3.5421377e-09
3.4972502e-09
3.4533232e-09
3.4104835e-09
3.3687097e-09
3.3279219e-09
3.2880377e-09
3.2490225e-09
3.2108414e-09
3.1734217e-09
3.1367004e-09
3.1006575e-09
3.0652723e-09
3.0304817e-09
2.9962365e-09
2.9625183e-09
2.929324e-09
2.8966093e-09
2.864317e-09
2.832424e-09
2.8009435e-09
2.7698485e-09
2.7390769e-09
2.7086045e-09
2.678441e-09
2.6485798e-09
2.6189762e-09
2.5895918e-09
2.5604231e-09
2.5314837e-09
2.5027369e-09
2.4741293e-09
2.4456495e-09
2.417323e-09
2.3891215e-09
2.3609621e-09
2.3328515e-09
2.3048209e-09
2.2768435e-09
2.2488619e-09
2.2208578e-09
2.1928555e-09
2.1648165e-09
2.1366783e-09
2.1084411e-09
2.0801091e-09
2.0516286e-09
2.022959e-09
1.9941146e-09
1.965052e-09
1.9363305e-09
1.9088908e-09
1.8829279e-09
1.8581254e-09
1.8345753e-09
1.8122058e-09
1.7909072e-09
1.7705723e-09
1.7511338e-09
1.7325486e-09
1.714752e-09
1.6976669e-09
1.6812371e-09
1.6654334e-09
1.6502245e-09
1.6355654e-09
1.6213926e-09
1.6076821e-09
1.5943206e-09
1.5814667e-09
1.5683894e-09
1.5567646e-09
1.5379443e-09
1.9258648e-07
1.6533022e-07
1.642898e-07
1.6080285e-07
1.5590671e-07
1.5129463e-07
1.4741498e-07
1.4421068e-07
1.4155183e-07
1.3932957e-07
1.3746066e-07
1.3588008e-07
1.3453567e-07
1.3338492e-07
1.3239309e-07
1.3153158e-07
1.3077705e-07
1.3010945e-07
1.2951477e-07
1.2897045e-07
1.2849766e-07
1.2797377e-07
1.2761028e-07
9.1655158e-08
5.878939e-11
8.461476e-09
1.6039577e-08
1.8080515e-08
1.7774139e-08
1.6948558e-08
1.6177816e-08
1.5513562e-08
1.4927462e-08
1.440635e-08
1.3941472e-08
1.3523474e-08
1.3133212e-08
1.2772329e-08
1.2438694e-08
1.2130465e-08
1.1845188e-08
1.1579511e-08
1.1331156e-08
1.1098461e-08
1.0879217e-08
1.0672302e-08
1.0476513e-08
1.0290872e-08
1.0114575e-08
9.9465834e-09
9.786475e-09
9.6333929e-09
9.4865837e-09
9.3458358e-09
9.2105828e-09
9.0802605e-09
8.9547097e-09
8.8335317e-09
8.7162424e-09
8.6027141e-09
8.4927328e-09
8.3859357e-09
8.2821013e-09
8.1811741e-09
8.082311e-09
7.9854553e-09
7.8909071e-09
7.7986257e-09
7.7084374e-09
7.6201656e-09
7.5337422e-09
7.449094e-09
7.3660615e-09
7.2845083e-09
7.2043956e-09
7.1256821e-09
7.0482286e-09
6.9719265e-09
6.8967391e-09
6.8226641e-09
6.7496031e-09
6.6774294e-09
6.6060931e-09
6.5356277e-09
6.4659744e-09
6.3969942e-09
6.3286331e-09
6.260916e-09
6.1938299e-09
6.1272748e-09
6.0611641e-09
5.9954912e-09
5.9302888e-09
5.8654748e-09
5.8009283e-09
5.7366238e-09
5.6726204e-09
5.6088549e-09
5.5451387e-09
5.4814871e-09
5.4179716e-09
5.3545319e-09
5.2910366e-09
5.2274441e-09
5.1638096e-09
5.1000455e-09
5.0360086e-09
4.9716983e-09
4.9071243e-09
4.8421628e-09
4.77672e-09
4.7108273e-09
4.6443843e-09
4.5786696e-09
4.5158393e-09
4.4563459e-09
4.3994638e-09
4.3454176e-09
4.2940481e-09
4.2451081e-09
4.1983552e-09
4.1536381e-09
4.1108609e-09
4.069878e-09
4.030514e-09
3.9926415e-09
3.9561952e-09
3.9211054e-09
3.8872695e-09
3.8545426e-09
3.8228704e-09
3.791993e-09
3.7622762e-09
3.7320383e-09
3.7051437e-09
3.6615814e-09
1.9258711e-07
1.6533464e-07
1.6422393e-07
1.607837e-07
1.5595146e-07
1.5137637e-07
1.4751473e-07
1.4431878e-07
1.4166329e-07
1.3944163e-07
1.3757171e-07
1.359892e-07
1.3464234e-07
1.3348892e-07
1.3249435e-07
1.3163014e-07
1.30873e-07
1.302029e-07
1.2960583e-07
1.2905918e-07
1.2858441e-07
1.2805714e-07
1.2770507e-07
9.4565517e-08
1.0651504e-10
1.6192131e-08
3.090213e-08
3.4970517e-08
3.456727e-08
3.3162467e-08
3.1828643e-08
3.0666743e-08
2.9630355e-08
2.8700595e-08
2.7865211e-08
2.7109459e-08
2.6398879e-08
2.5738475e-08
2.512529e-08
2.4556615e-08
2.4028392e-08
2.353477e-08
2.3071861e-08
2.2636858e-08
2.2225837e-08
2.1836909e-08
2.1467976e-08
2.1117328e-08
2.0783582e-08
2.0464871e-08
2.0160489e-08
1.9868883e-08
1.9588692e-08
1.9319577e-08
1.9060506e-08
1.8810452e-08
1.8569159e-08
1.8335888e-08
1.8109749e-08
1.7890537e-08
1.7677856e-08
1.7471028e-08
1.726966e-08
1.707367e-08
1.6881367e-08
1.6692676e-08
1.6508245e-08
1.632801e-08
1.6151637e-08
1.5978795e-08
1.5809374e-08
1.5643241e-08
1.5480084e-08
1.5319645e-08
1.5161862e-08
1.5006667e-08
1.4853787e-08
1.4703008e-08
1.4554271e-08
1.4407582e-08
1.4262749e-08
1.411952e-08
1.3977803e-08
1.3837673e-08
1.3699018e-08
1.3561562e-08
1.3425196e-08
1.3289979e-08
1.3155889e-08
1.3022727e-08
1.289032e-08
1.2758656e-08
1.2627807e-08
1.2497609e-08
1.2367817e-08
1.223838e-08
1.2109423e-08
1.1980817e-08
1.1852181e-08
1.1723544e-08
1.1595053e-08
1.1466587e-08
1.1337876e-08
1.1208834e-08
1.1079574e-08
1.0949917e-08
1.0819568e-08
1.0688522e-08
1.0556799e-08
1.0424143e-08
1.0290356e-08
1.01555e-08
1.0019364e-08
9.8845679e-09
9.7555452e-09
9.6332404e-09
9.5161584e-09
9.4048042e-09
9.2988666e-09
9.1978501e-09
9.1012657e-09
9.0088109e-09
8.9202976e-09
8.8354334e-09
8.7538621e-09
8.6753262e-09
8.5996963e-09
8.5268338e-09
8.4565309e-09
8.3884912e-09
8.3226044e-09
8.2583371e-09
8.1964461e-09
8.1334565e-09
8.0773843e-09
7.9864989e-09
1.9258782e-07
1.6534059e-07
1.6414687e-07
1.6075897e-07
1.5600197e-07
1.514714e-07
1.4763184e-07
1.4444635e-07
1.4179528e-07
1.3957466e-07
1.3770381e-07
1.3611922e-07
1.3476964e-07
1.336132e-07
1.326155e-07
1.3174819e-07
1.3098803e-07
1.3031503e-07
1.297152e-07
1.2916583e-07
1.2868878e-07
1.281579e-07
1.2781952e-07
9.7472967e-08
1.6839768e-10
2.7637915e-08
5.3331977e-08
6.0791704e-08
6.0495742e-08
5.8431951e-08
5.6423559e-08
5.4651181e-08
5.3049014e-08
5.1595932e-08
5.0279194e-08
4.9079419e-08
4.794133e-08
4.6877396e-08
4.5884689e-08
4.4960067e-08
4.4097769e-08
4.3288826e-08
4.2527483e-08
4.1809659e-08
4.1129222e-08
4.0483447e-08
3.9869144e-08
3.9283705e-08
3.8725064e-08
3.8190278e-08
3.767834e-08
3.7186765e-08
3.6713398e-08
3.6257792e-08
3.5818288e-08
3.5393246e-08
3.498232e-08
3.4584305e-08
3.4197753e-08
3.3822404e-08
3.3457602e-08
3.3102224e-08
3.2755673e-08
3.2417857e-08
3.2085703e-08
3.1759158e-08
3.1439501e-08
3.112666e-08
3.0820055e-08
3.0519142e-08
3.0223775e-08
2.9933742e-08
2.96485e-08
2.9367613e-08
2.9091007e-08
2.8818585e-08
2.854987e-08
2.8284487e-08
2.8022353e-08
2.7763508e-08
2.7507613e-08
2.7254222e-08
2.7003181e-08
2.6754646e-08
2.6508428e-08
2.6264029e-08
2.602126e-08
2.5780236e-08
2.5540936e-08
2.5303e-08
2.5066113e-08
2.4830264e-08
2.4595591e-08
2.4361801e-08
2.4128449e-08
2.3895442e-08
2.3663011e-08
2.3430933e-08
2.3198504e-08
2.2965777e-08
2.2733022e-08
2.250002e-08
2.2266272e-08
2.2031616e-08
2.1796259e-08
2.1559872e-08
2.1321905e-08
2.1082341e-08
2.0841213e-08
2.0598043e-08
2.0352455e-08
2.0104554e-08
1.985394e-08
1.9605428e-08
1.936722e-08
1.9141092e-08
1.8924254e-08
1.871776e-08
1.8521075e-08
1.8333311e-08
1.8153585e-08
1.7981358e-08
1.7816306e-08
1.7657902e-08
1.75055e-08
1.7358632e-08
1.7217073e-08
1.7080577e-08
1.6948766e-08
1.6821098e-08
1.669737e-08
1.6576601e-08
1.6460197e-08
1.6341701e-08
1.6236096e-08
1.6064766e-08
1.925886e-07
1.6534854e-07
1.6405775e-07
1.607273e-07
1.5605787e-07
1.515805e-07
1.4776783e-07
1.4459538e-07
1.4195009e-07
1.3973118e-07
1.3785961e-07
1.3627288e-07
1.3492035e-07
1.3376056e-07
1.3275935e-07
1.3188853e-07
1.3112494e-07
1.3044863e-07
1.2984564e-07
1.2929314e-07
1.2881352e-07
1.2827798e-07
1.279578e-07
1.0035011e-07
2.4156889e-10
4.1192243e-08
8.3572716e-08
9.6403604e-08
9.6693519e-08
9.4045607e-08
9.1367616e-08
8.896634e-08
8.6760195e-08
8.473325e-08
8.2878548e-08
8.1175133e-08
7.9541601e-08
7.8004799e-08
7.6563611e-08
7.5215439e-08
7.3953084e-08
7.2764186e-08
7.1641188e-08
7.057887e-08
6.9568614e-08
6.8606986e-08
6.7689653e-08
6.6813064e-08
6.5974488e-08
6.5169754e-08
6.4397617e-08
6.3654492e-08
6.2937326e-08
6.2245634e-08
6.1577011e-08
6.0929116e-08
6.0301563e-08
5.9692564e-08
5.9100016e-08
5.8523664e-08
5.7962524e-08
5.7414912e-08
5.6880037e-08
5.6357851e-08
5.5843173e-08
5.5336083e-08
5.4838923e-08
5.4351644e-08
5.3873333e-08
5.3403176e-08
5.2941032e-08
5.2486604e-08
5.2039028e-08
5.1597634e-08
5.1162369e-08
5.0733122e-08
5.0309134e-08
4.9889803e-08
4.9475039e-08
4.9064958e-08
4.8659017e-08
4.8256492e-08
4.7857157e-08
4.7461302e-08
4.7068638e-08
4.6678359e-08
4.6290151e-08
4.590423e-08
4.552059e-08
4.5138637e-08
4.4757856e-08
4.4378239e-08
4.400003e-08
4.3622755e-08
4.3245681e-08
4.2868649e-08
4.2492055e-08
4.2115537e-08
4.1737933e-08
4.1359316e-08
4.0980139e-08
4.0600041e-08
4.021819e-08
3.9834304e-08
3.9448726e-08
3.9060906e-08
3.8669916e-08
3.8275712e-08
3.7878341e-08
3.7476994e-08
3.7071021e-08
3.6660574e-08
3.6244967e-08
3.5832169e-08
3.5435853e-08
3.5059012e-08
3.4696897e-08
3.4351554e-08
3.4022165e-08
3.3707306e-08
3.3405543e-08
3.3116016e-08
3.2838223e-08
3.2571321e-08
3.2314249e-08
3.2066249e-08
3.1826964e-08
3.159601e-08
3.1372772e-08
3.1156349e-08
3.0946413e-08
3.0741334e-08
3.0543469e-08
3.0342018e-08
3.0162221e-08
2.987021e-08
1.9258946e-07
1.6535906e-07
1.6395574e-07
1.6068701e-07
1.5611849e-07
1.5170424e-07
1.479242e-07
1.4476799e-07
1.4213025e-07
1.3991394e-07
1.3804206e-07
1.3645324e-07
1.3509762e-07
1.339342e-07
1.3292913e-07
1.3205441e-07
1.3128698e-07
1.3060694e-07
1.3000038e-07
1.2944433e-07
1.2896183e-07
1.284203e-07
1.2812424e-07
1.0324359e-07
3.3180639e-10
5.5516884e-08
1.179742e-07
1.4155367e-07
1.4345416e-07
1.4048932e-07
1.3728015e-07
1.3433902e-07
1.3157966e-07
1.2900305e-07
1.2661791e-07
1.2440739e-07
1.222576e-07
1.2022115e-07
1.1830155e-07
1.1649825e-07
1.1480325e-07
1.1320082e-07
1.1168198e-07
1.1024074e-07
1.0886594e-07
1.0755374e-07
1.0629875e-07
1.0509654e-07
1.0394383e-07
1.0283519e-07
1.0176926e-07
1.0074124e-07
9.9747162e-08
9.8786633e-08
9.7856413e-08
9.6953434e-08
9.6077365e-08
9.522573e-08
9.4395723e-08
9.3587208e-08
9.2798798e-08
9.2028155e-08
9.1274358e-08
9.0537475e-08
8.9809219e-08
8.9090015e-08
8.8383912e-08
8.7690947e-08
8.700977e-08
8.6339267e-08
8.5679369e-08
8.5029698e-08
8.4388974e-08
8.3756248e-08
8.313154e-08
8.2514756e-08
8.190478e-08
8.1300707e-08
8.0702471e-08
8.0110325e-08
7.9523467e-08
7.894081e-08
7.8362049e-08
7.7787672e-08
7.7217276e-08
7.6649659e-08
7.6084337e-08
7.5521676e-08
7.4961708e-08
7.440354e-08
7.384639e-08
7.3290258e-08
7.273554e-08
7.2181537e-08
7.1627134e-08
7.1072084e-08
7.0517004e-08
6.9961367e-08
6.9403405e-08
6.8843214e-08
6.828148e-08
6.7717669e-08
6.7150503e-08
6.6579535e-08
6.6005286e-08
6.5426921e-08
6.4843007e-08
6.4253448e-08
6.3658309e-08
6.3056339e-08
6.2446511e-08
6.1829027e-08
6.120281e-08
6.0579834e-08
5.9980799e-08
5.9410249e-08
5.8860672e-08
5.8335795e-08
5.7834495e-08
5.7354693e-08
5.6894273e-08
5.6451982e-08
5.6027125e-08
5.5618471e-08
5.5224438e-08
5.4843903e-08
5.4476361e-08
5.4121269e-08
5.3777713e-08
5.3444339e-08
5.3120655e-08
5.280422e-08
5.2498589e-08
5.2187451e-08
5.1909291e-08
5.1457038e-08
1.9259037e-07
1.6537281e-07
1.6384012e-07
1.6063616e-07
1.5618275e-07
1.5184296e-07
1.4810237e-07
1.4496633e-07
1.4233839e-07
1.4012598e-07
1.3825441e-07
1.3666374e-07
1.3530499e-07
1.3413774e-07
1.3312851e-07
1.3224953e-07
1.3147788e-07
1.3079371e-07
1.3018317e-07
1.2962314e-07
1.2913748e-07
1.2858838e-07
1.2832387e-07
1.0620031e-07
4.4002678e-10
7.168804e-08
1.5583615e-07
1.9147942e-07
1.973722e-07
1.952791e-07
1.9239634e-07
1.8962219e-07
1.868788e-07
1.8421367e-07
1.8168281e-07
1.7929449e-07
1.7664861e-07
1.7412156e-07
1.7172602e-07
1.6946576e-07
1.6733303e-07
1.6530907e-07
1.6338413e-07
1.6155209e-07
1.5979934e-07
1.5812211e-07
1.5651417e-07
1.5497037e-07
1.5348712e-07
1.5205773e-07
1.5068093e-07
1.4935064e-07
1.4806203e-07
1.4681495e-07
1.4560528e-07
1.4442923e-07
1.4328667e-07
1.4217433e-07
1.4108867e-07
1.4002986e-07
1.3899603e-07
1.3798409e-07
1.3699308e-07
1.3602333e-07
1.3506185e-07
1.3410983e-07
1.3317405e-07
1.3225474e-07
1.3135e-07
1.3045838e-07
1.2957999e-07
1.2871438e-07
1.2785975e-07
1.2701484e-07
1.2617981e-07
1.2535462e-07
1.2453774e-07
1.2372786e-07
1.2292499e-07
1.2212961e-07
1.2134059e-07
1.2055639e-07
1.1977663e-07
1.1900208e-07
1.1823221e-07
1.1746533e-07
1.1670075e-07
1.1593903e-07
1.1518029e-07
1.1442326e-07
1.1366683e-07
1.1291102e-07
1.1215643e-07
1.114021e-07
1.1064645e-07
1.098891e-07
1.0913098e-07
1.0837136e-07
1.0760775e-07
1.0684024e-07
1.0606983e-07
1.0529577e-07
1.0451625e-07
1.0373062e-07
1.029396e-07
1.0214204e-07
1.0133588e-07
1.0052095e-07
9.9697349e-08
9.8863289e-08
9.8017268e-08
9.7159546e-08
9.6288565e-08
9.5420924e-08
9.4585537e-08
9.3788649e-08
9.3018949e-08
9.2282926e-08
9.1579168e-08
9.0904858e-08
9.0257091e-08
8.9634178e-08
8.9035229e-08
8.8458574e-08
8.7902029e-08
8.7364053e-08
8.6843981e-08
8.6341104e-08
8.5854167e-08
8.5381289e-08
8.4921782e-08
8.4472298e-08
8.4037719e-08
8.3595528e-08
8.3199493e-08
8.2554993e-08
1.9259132e-07
1.6539062e-07
1.637103e-07
1.6057248e-07
1.5624907e-07
1.5199659e-07
1.4830354e-07
1.4519251e-07
1.4257728e-07
1.4037047e-07
1.3850019e-07
1.3690814e-07
1.3554641e-07
1.3437526e-07
1.3336167e-07
1.3247814e-07
1.3170192e-07
1.3101324e-07
1.3039833e-07
1.2983391e-07
1.2934484e-07
1.2878633e-07
1.2856261e-07
1.0919194e-07
5.6726468e-10
8.9598233e-08
1.9830308e-07
2.4964591e-07
2.6077353e-07
2.5968453e-07
2.5696878e-07
2.5414887e-07
2.5120028e-07
2.4822484e-07
2.4533008e-07
2.4255194e-07
2.3972148e-07
2.3697327e-07
2.3434272e-07
2.3184386e-07
2.2947261e-07
2.2720916e-07
2.2504557e-07
2.22978e-07
2.2099192e-07
2.1908522e-07
2.1725188e-07
2.1548687e-07
2.1378716e-07
2.1214551e-07
2.1056136e-07
2.0902757e-07
2.0753908e-07
2.0609647e-07
2.0469482e-07
2.0333012e-07
2.020028e-07
2.0070872e-07
1.9944391e-07
1.9820938e-07
1.9700263e-07
1.9581974e-07
1.946603e-07
1.9352526e-07
1.923466e-07
1.9114716e-07
1.8996701e-07
1.8880669e-07
1.8766364e-07
1.8653602e-07
1.8542426e-07
1.843279e-07
1.832445e-07
1.8217239e-07
1.8111199e-07
1.800634e-07
1.7902457e-07
1.7799372e-07
1.7697095e-07
1.7595708e-07
1.7495063e-07
1.7394949e-07
1.7295319e-07
1.7196288e-07
1.7097793e-07
1.6999606e-07
1.690163e-07
1.6803949e-07
1.6706589e-07
1.660938e-07
1.6512169e-07
1.6414963e-07
1.6317848e-07
1.62207e-07
1.6123303e-07
1.6025607e-07
1.5927742e-07
1.5829615e-07
1.5730889e-07
1.5631576e-07
1.5531811e-07
1.54315e-07
1.5330397e-07
1.522841e-07
1.5125643e-07
1.5021942e-07
1.4917029e-07
1.4810879e-07
1.4703506e-07
1.4594672e-07
1.4484172e-07
1.4372038e-07
1.425806e-07
1.4144403e-07
1.4034864e-07
1.3930228e-07
1.3828828e-07
1.3731769e-07
1.3638885e-07
1.3549816e-07
1.3464182e-07
1.3381768e-07
1.3302465e-07
1.322606e-07
1.3152266e-07
1.3080884e-07
1.301183e-07
1.2945017e-07
1.2880283e-07
1.2817381e-07
1.2756218e-07
1.2696368e-07
1.263845e-07
1.2579576e-07
1.2526747e-07
1.2440717e-07
1.9259227e-07
1.6541344e-07
1.6356593e-07
1.6049344e-07
1.5631528e-07
1.5216457e-07
1.485286e-07
1.4544849e-07
1.4284968e-07
1.4065078e-07
1.3878318e-07
1.3719056e-07
1.3582624e-07
1.346513e-07
1.3363329e-07
1.3274502e-07
1.3196396e-07
1.3127047e-07
1.3065085e-07
1.3008164e-07
1.2958896e-07
1.2901898e-07
1.2884744e-07
1.1218001e-07
7.1502224e-10
1.0994114e-07
2.4421216e-07
3.1605406e-07
3.3520481e-07
3.3618538e-07
3.3409745e-07
3.3150476e-07
3.2852522e-07
3.2534521e-07
3.2214576e-07
3.1900575e-07
3.1581663e-07
3.1267292e-07
3.0963329e-07
3.0672453e-07
3.0394781e-07
3.0128221e-07
2.9872158e-07
2.962645e-07
2.938952e-07
2.9161307e-07
2.8941209e-07
2.872874e-07
2.8523646e-07
2.8325108e-07
2.8133158e-07
2.7946938e-07
2.7765874e-07
2.7590123e-07
2.7419084e-07
2.7252295e-07
2.7089876e-07
2.6931304e-07
2.6776099e-07
2.6624454e-07
2.647606e-07
2.6330409e-07
2.6187494e-07
2.6047485e-07
2.5907798e-07
2.5768682e-07
2.5631653e-07
2.5496869e-07
2.5363968e-07
2.5232724e-07
2.5103264e-07
2.497556e-07