/*--------------------------------*- C++ -*----------------------------------*\
  =========                 |
  \\      /  F ield         | OpenFOAM: The Open Source CFD Toolbox
   \\    /   O peration     | Website:  https://openfoam.org
    \\  /    A nd           | Version:  12
     \\/     M anipulation  |
\*---------------------------------------------------------------------------*/
FoamFile
{
    format      ascii;
    class       volScalarField;
    location    "1400";
    object      omega;
}
// * * * * * * * * * * * * * * * * * * * * * * * * * * * * * * * * * * * * * //

dimensions      [0 0 -1 0 0 0 0];

internalField   nonuniform List<scalar> 
7480
(
99.668428
99.668428
99.668428
99.668428
99.668428
99.668428
99.668428
99.668428
99.668428
99.668428
99.668428
99.668428
99.668428
425.17402
681.41255
848.44843
946.61949
996.85062
1022.6636
1021.7515
1016.2801
1006.0568
993.35084
979.75735
965.81476
951.79717
937.96944
924.70824
912.4039
900.91578
890.25843
880.49897
871.68178
863.80524
856.8228
850.65953
845.21728
840.40115
836.14793
832.41038
829.1214
826.19897
823.57001
821.16082
818.94014
816.81161
814.75598
812.74037
810.7323
808.71026
806.65069
804.5253
802.31542
800.01982
797.65104
795.22657
792.7634
790.27899
787.78902
785.30378
782.82836
780.36534
777.91816
775.49269
773.09472
770.72746
768.39406
766.0969
763.83377
761.59877
759.38749
757.19949
755.03602
752.89782
750.78677
748.70494
746.65046
744.61914
742.60827
740.61786
738.64899
736.70338
734.78237
732.88414
731.00508
729.14401
727.30102
725.4775
723.67487
721.89119
720.12355
718.37115
716.63463
714.91313
713.20871
711.50504
709.83571
708.06718
706.56735
703.81879
24.729602
24.769852
24.830812
24.899499
24.972603
25.049402
25.129264
25.212373
25.297874
25.39271
25.466802
25.679619
25.298267
27.771178
39.052771
67.46429
115.63646
179.13751
251.76801
316.42419
363.37598
394.72666
415.47233
429.71365
438.53554
441.28461
439.3081
434.22325
429.55142
428.32124
429.82848
432.5819
435.26506
436.99705
437.32159
436.11254
433.48108
429.71088
425.27597
420.41998
414.945
408.90171
402.61158
396.2799
390.01701
383.91767
378.06104
372.50346
367.26879
362.3498
357.79816
353.60445
349.74672
346.20288
342.94936
339.95498
337.186
334.60789
332.1728
329.85785
327.65503
325.55855
323.55784
321.64193
319.80332
318.03565
316.33323
314.68504
313.0804
311.51589
309.99275
308.51281
307.07667
305.683
304.33005
303.01411
301.73
300.47448
299.24779
298.05092
296.88402
295.74665
294.63604
293.54921
292.48424
291.44116
290.42071
289.42273
288.44557
287.48729
286.54637
285.62279
284.71724
283.82841
282.9559
282.09512
281.25592
280.40798
279.66648
278.40847
24.644347
24.494646
24.343579
24.190465
24.035119
23.877516
23.717665
23.555594
23.391326
23.22492
23.056342
22.885909
22.713316
22.538675
22.395564
22.573158
23.517483
25.952263
30.627655
38.729884
50.896245
66.74805
85.594318
106.43963
129.0168
149.50994
167.06018
181.95713
195.10372
208.06537
222.72271
237.04116
248.9313
258.2339
265.12984
269.75807
272.12852
272.06432
269.65642
265.68393
261.70168
258.24781
255.00456
251.73771
248.3882
245.10184
241.70741
238.14132
234.47827
230.7781
227.11405
223.58766
220.25554
217.13374
214.20995
211.46194
208.87505
206.44112
204.17771
202.07464
200.11388
198.27595
196.5425
194.90112
193.3437
191.86243
190.44862
189.08866
187.77489
186.5081
185.28941
184.11725
182.98896
181.90198
180.85438
179.84094
178.85599
177.89814
176.96857
176.06792
175.19554
174.35078
173.53015
172.7302
171.94985
171.18965
170.45012
169.73138
169.03118
168.34723
167.67862
167.02558
166.38874
165.76709
165.15939
164.56322
163.98364
163.40256
162.91087
162.0443
24.638759
24.480101
24.318871
24.15493
23.988294
23.818979
23.647
23.472376
23.295127
23.115279
22.932859
22.747913
22.560467
22.370752
22.178591
21.985569
21.792097
21.605602
21.446524
21.361884
21.413587
21.666731
22.181333
23.046771
24.281392
26.363683
29.466538
33.709035
39.218356
46.15221
54.848743
65.560228
78.789975
93.078025
107.9677
123.28859
138.9963
155.08355
168.34356
177.82464
184.18012
188.17734
190.25466
190.67756
189.69144
187.54561
185.15834
182.81275
180.43766
177.91089
175.24249
172.59619
169.86922
167.11572
164.37394
161.67067
159.04701
156.53133
154.15105
151.91302
149.8057
147.81749
145.94321
144.17946
142.5165
140.94142
139.4398
138.01281
136.66173
135.3814
134.16419
133.00267
131.89186
130.82841
129.80893
128.82735
127.88014
126.96775
126.09034
125.24652
124.43418
123.65187
122.89521
122.1613
121.45003
120.76188
120.09662
119.4538
118.83038
118.22415
117.63475
117.06244
116.50756
115.96869
115.44424
114.93254
114.43766
113.94395
113.5358
112.80637
24.63834
24.479118
24.317338
24.152856
23.98564
23.815689
23.643011
23.467617
23.28952
23.108739
22.925289
22.739193
22.550476
22.35911
22.165276
21.967949
21.767418
21.564485
21.361237
21.156692
20.951318
20.746495
20.541777
20.338769
20.139888
19.950544
19.778355
19.636446
19.541652
19.516144
19.590071
19.815033
20.232684
21.157233
22.793986
25.371032
29.195363
34.730572
42.429939
53.070103
66.331903
80.938699
96.395349
112.73832
126.28274
135.82348
141.92363
145.36263
146.82775
146.86043
145.85251
144.28262
142.57117
140.73217
138.71439
136.54558
134.37764
132.15767
129.91211
127.66962
125.46513
123.33717
121.31431
119.39553
117.56459
115.81146
114.1339
112.54073
111.03715
109.61705
108.26953
106.98799
105.76883
104.60783
103.49783
102.43886
101.43209
100.47374
99.559262
98.684395
97.846026
97.041666
96.267541
95.522378
94.806083
94.117831
93.456079
92.819466
92.204522
91.609748
91.0351
90.480427
89.945395
89.427988
88.92662
88.44002
87.972189
87.506799
87.128039
86.448622
24.638306
24.479022
24.317176
24.152626
23.985345
23.815331
23.642593
23.467143
23.288996
23.10817
22.924686
22.738569
22.54985
22.358564
22.164761
21.968477
21.76975
21.568601
21.36504
21.158906
20.949771
20.736907
20.521786
20.304909
20.086663
19.867419
19.648301
19.428554
19.2081
18.987288
18.76731
18.547586
18.328461
18.111945
17.902302
17.707102
17.541332
17.430467
17.424413
17.573827
18.099169
19.344505
21.650623
25.564371
31.720245
41.24007
54.041987
68.446666
84.010729
97.772062
107.8418
114.18633
117.66202
119.07827
119.14887
118.35833
117.15774
115.78202
114.25478
112.5703
110.79715
109.00812
107.19626
105.36479
103.52822
101.72279
99.981153
98.3082
96.696125
95.142982
93.653553
92.233597
90.881813
89.592201
88.357898
87.180704
86.064414
85.005689
83.998169
83.037149
82.119753
81.241774
80.405239
79.608852
78.849285
78.123195
77.427811
76.76079
76.119728
75.504016
74.913013
74.345518
73.800257
73.274854
72.768154
72.27906
71.811386
71.347267
70.972459
70.302978
24.638313
24.47902
24.317164
24.152604
23.985311
23.815285
23.642534
23.467071
23.28891
23.108071
22.924572
22.73844
22.549707
22.358417
22.16462
21.968373
21.769733
21.568759
21.365499
21.159998
20.952296
20.742401
20.530348
20.316186
20.09997
19.881743
19.66155
19.43938
19.215115
18.988653
18.759309
18.52837
18.296443
18.063874
17.831018
17.59867
17.367309
17.136242
16.905877
16.678059
16.452356
16.231922
16.026108
15.852931
15.765673
15.830661
16.304712
17.608154
20.26555
24.945651
32.861558
44.456222
57.822219
72.324124
84.034542
92.105774
96.831743
99.056443
99.68587
99.380439
98.548278
97.504289
96.286762
94.947009
93.518067
92.085047
90.62393
89.127184
87.597211
86.066387
84.570438
83.120892
81.713339
80.346668
79.0279
77.761249
76.547029
75.384354
74.272525
73.211193
72.198718
71.230441
70.307667
69.431276
68.598153
67.803929
67.045561
66.319716
65.628906
64.970924
64.342799
63.741995
63.166276
62.613823
62.08419
61.575802
61.091849
60.612681
60.226716
59.54376
24.638328
24.479035
24.317178
24.152617
23.985323
23.815295
23.642542
23.467077
23.288915
23.108074
22.924575
22.738445
22.549715
22.358427
22.164631
21.968381
21.769732
21.568741
21.365466
21.159962
20.952287
20.742506
20.530679
20.31687
20.101142
19.883558
19.66418
19.443073
19.2203
18.995927
18.769994
18.542566
18.313728
18.083574
17.852187
17.619641
17.385974
17.151081
16.914778
16.675975
16.436622
16.197513
15.959349
15.723985
15.490057
15.258463
15.031163
14.8114
14.610871
14.470019
14.461014
14.821779
16.011245
18.650541
23.413563
32.212811
43.526799
56.498893
68.159131
76.609336
81.764542
84.273934
85.032373
84.881494
84.260112
83.442298
82.467365
81.380546
80.215471
79.03724
77.822885
76.565453
75.273462
73.976111
72.702707
71.453944
70.224655
69.021327
67.855155
66.731276
65.649569
64.609188
63.610014
62.654438
61.742066
60.870992
60.039873
59.245523
58.489306
57.770482
57.086214
56.433452
55.809202
55.214319
54.648296
54.107609
53.594499
53.08769
52.679646
51.966542
24.638345
24.479054
24.317199
24.152639
23.985346
23.815318
23.642566
23.467101
23.288939
23.1081
22.924603
22.738475
22.549749
22.358465
22.164674
21.968429
21.769786
21.568798
21.365524
21.160017
20.952334
20.742534
20.53068
20.316837
20.101072
19.88346
19.664072
19.442987
19.220285
18.996048
18.770366
18.543325
18.315011
18.085511
17.854911
17.623299
17.390758
17.157373
16.923231
16.68837
16.452866
16.216816
15.980289
15.743354
15.505844
15.267097
15.026728
14.786829
14.549409
14.315485
14.084016
13.858236
13.640807
13.443156
13.321933
13.353586
13.951945
15.65663
19.099214
25.865944
35.799576
47.557106
58.4305
66.265506
70.95896
73.125573
73.714128
73.544569
73.01696
72.334599
71.507634
70.583599
69.604083
68.608659
67.581004
66.509507
65.405444
64.294678
63.191906
62.098921
61.02024
59.966307
58.941061
57.945705
56.982572
56.055358
55.166011
54.313182
53.495055
52.71343
51.967974
51.256824
50.5776
49.930741
49.316012
48.730217
48.175295
47.628952
47.189609
46.432256
24.638364
24.479076
24.317223
24.152664
23.985372
23.815346
23.642595
23.467131
23.288971
23.108133
22.924639
22.738516
22.549795
22.358518
22.164733
21.968493
21.769854
21.56887
21.365596
21.160089
20.952405
20.742603
20.530744
20.316894
20.10112
19.883494
19.66409
19.442984
19.220256
18.995989
18.770267
18.54318
18.314818
18.085272
17.854638
17.623013
17.390495
17.157185
16.923185
16.688605
16.453549
16.218117
15.982406
15.746502
15.510494
15.274452
15.038407
14.802415
14.566571
14.33078
14.094856
13.856643
13.619099
13.385174
13.155313
12.928847
12.709868
12.502891
12.341045
12.293874
12.680793
14.04113
16.992561
23.242574
32.48156
43.548081
53.048679
59.522088
63.046598
64.486621
64.725435
64.449599
63.941935
63.319602
62.579213
61.77575
60.944919
60.087039
59.186197
58.244907
57.284126
56.323253
55.362778
54.403131
53.453917
52.52424
51.617878
50.737335
49.883679
49.059814
48.267395
47.507418
46.780025
46.083857
45.418979
44.784452
44.183244
43.592883
43.114675
42.299129
24.638384
24.479098
24.317248
24.152691
23.985401
23.815376
23.642626
23.467164
23.289006
23.108171
22.92468
22.738562
22.549847
22.358576
22.164798
21.968565
21.769932
21.568951
21.36568
21.160174
20.952491
20.742688
20.530828
20.316976
20.1012
19.883571
19.664164
19.443054
19.220322
18.996049
18.77032
18.543223
18.314847
18.085285
17.854631
17.622981
17.390434
17.157091
16.923053
16.688426
16.453314
16.217825
15.982065
15.746143
15.510167
15.274249
15.038502
14.803031
14.567932
14.333278
14.09916
13.865567
13.632518
13.400124
13.168239
12.936313
12.702815
12.471199
12.245369
12.022664
11.808017
11.60325
11.436555
11.375931
11.764014
13.178408
16.272387
23.167997
32.398814
42.345329
50.002695
54.661073
56.759264
57.391046
57.29829
56.922192
56.422875
55.831691
55.167146
54.463017
53.738548
52.97645
52.172725
51.340876
50.499244
49.650355
48.796133
47.946731
47.10891
46.285502
45.480189
44.698115
43.942612
43.213163
42.510705
41.836214
41.19452
40.563884
40.048033
39.170158
24.638406
24.479123
24.317274
24.15272
23.985431
23.815408
23.64266
23.4672
23.289044
23.108211
22.924725
22.738611
22.549903
22.358639
22.164869
21.968642
21.770014
21.569038
21.36577
21.160265
20.952581
20.742777
20.530916
20.317061
20.101283
19.883652
19.664241
19.443128
19.220393
18.996117
18.770385
18.543285
18.314906
18.085341
17.854684
17.623031
17.39048
17.157133
16.92309
16.688455
16.453333
16.217829
15.982051
15.746105
15.510099
15.274142
15.038343
14.802811
14.567654
14.33298
14.098896
13.865519
13.632952
13.401279
13.170566
12.94088
12.712178
12.484501
12.257792
12.032118
11.8042
11.577956
11.358277
11.141898
10.934479
10.737143
10.588346
10.567526
11.181007
12.944708
17.194763
24.771221
34.428042
42.544122
47.871333
50.324998
51.218269
51.276791
50.997415
50.582949
50.092469
49.527939
48.926779
48.307645
47.653113
46.956286
46.227872
45.486291
44.734197
43.972352
43.209404
42.453055
41.707742
40.976329
40.262543
39.568855
38.902294
38.242668
37.699465
36.768371
24.638429
24.479148
24.317302
24.15275
23.985463
23.815442
23.642696
23.467238
23.289084
23.108255
22.924773
22.738664
22.549962
22.358706
22.164943
21.968724
21.770101
21.569129
21.365864
21.16036
20.952677
20.742872
20.531009
20.317153
20.101372
19.883738
19.664325
19.443209
19.22047
18.99619
18.770455
18.543351
18.31497
18.085401
17.854741
17.623085
17.390532
17.157182
16.923138
16.688501
16.453377
16.217872
15.982092
15.746145
15.510137
15.274177
15.038372
14.80283
14.567658
14.332963
14.098851
13.865428
13.632799
13.401068
13.170336
12.940705
12.712283
12.485165
12.259396
12.035068
11.812089
11.590471
11.370175
11.151393
10.930345
10.711722
10.499773
10.291976
10.093448
9.9138076
9.7977567
10.004972
11.121731
13.93106
20.29074
28.977693
37.020324
42.503775
45.083842
46.067742
46.187404
45.950282
45.586514
45.161855
44.671888
44.151244
43.611305
43.039916
42.429248
41.787744
41.130485
40.45871
39.775588
39.089394
38.405892
37.72804
37.06555
36.399916
35.847494
34.88457
24.638454
24.479176
24.317332
24.152782
23.985497
23.815478
23.642734
23.467278
23.289127
23.108301
22.924823
22.73872
22.550025
22.358777
22.165021
21.968809
21.770192
21.569225
21.365962
21.16046
20.952777
20.742972
20.531107
20.31725
20.101466
19.883829
19.664413
19.443293
19.220551
18.996268
18.770529
18.543422
18.315036
18.085465
17.854801
17.623142
17.390586
17.157234
16.923186
16.688548
16.453422
16.217915
15.982133
15.746184
15.510175
15.274214
15.038408
14.802866
14.567693
14.332998
14.098884
13.865458
13.632822
13.401077
13.170326
12.940666
12.712197
12.485013
12.259211
12.034878
11.81212
11.591026
11.371626
11.154009
10.938045
10.723744
10.511048
10.299769
10.086842
9.8780671
9.6749329
9.4792488
9.2949972
9.1494765
9.1801119
9.9574405
12.091434
17.669533
25.674971
33.318546
38.517235
40.874879
41.74123
41.829955
41.601819
41.268826
40.887378
40.456103
39.999479
39.524852
39.020218
38.47712
37.905377
37.316254
36.71106
36.093455
35.476026
34.839861
34.306384
33.348339
24.63848
24.479204
24.317363
24.152815
23.985533
23.815516
23.642774
23.467321
23.289173
23.10835
22.924877
22.738779
22.550091
22.358851
22.165103
21.968897
21.770287
21.569324
21.366064
21.160564
20.952881
20.743075
20.53121
20.31735
20.101565
19.883925
19.664505
19.443382
19.220636
18.99635
18.770607
18.543496
18.315107
18.085532
17.854865
17.623203
17.390644
17.157289
16.923239
16.688597
16.453469
16.21796
15.982176
15.746225
15.510214
15.274251
15.038444
14.8029
14.567727
14.33303
14.098916
13.865489
13.632852
13.401107
13.170355
12.940694
12.712221
12.485029
12.259211
12.034857
11.812056
11.590895
11.371459
11.153825
10.93809
10.724328
10.512559
10.302836
10.095033
9.8890517
9.6852145
9.4806776
9.2771493
9.0808907
8.8885435
8.7122749
8.5409683
8.5184959
9.1524595
11.06721
16.305991
23.975275
31.012426
35.510323
37.419133
38.046479
38.053366
37.820145
37.508645
37.161401
36.776139
36.371112
35.948919
35.493594
35.002968
34.487125
33.957395
33.39086
32.911453
32.008551
24.638508
24.479235
24.317396
24.152851
23.98557
23.815556
23.642816
23.467366
23.289221
23.108402
22.924933
22.738842
22.55016
22.358927
22.165187
21.968989
21.770384
21.569426
21.36617
21.160671
20.952989
20.743183
20.531316
20.317455
20.101667
19.884024
19.664601
19.443475
19.220726
18.996435
18.770689
18.543575
18.315182
18.085603
17.854933
17.623267
17.390705
17.157347
16.923294
16.68865
16.453519
16.218008
15.982222
15.746269
15.510256
15.274291
15.038482
14.802937
14.567762
14.333064
14.098948
13.865519
13.632881
13.401136
13.170383
12.940721
12.712247
12.485054
12.259236
12.034881
11.812077
11.590909
11.371458
11.153804
10.938025
10.724197
10.512393
10.302679
10.095143
9.8898225
9.6867661
9.4858875
9.2870548
9.0903554
8.8950896
8.698012
8.5093111
8.3211545
8.1611438
7.9541028
7.9561737
8.5899461
10.620065
15.908913
23.500335
29.709367
33.091098
34.451828
34.817226
34.74207
34.50695
34.216161
33.897217
33.548231
33.181953
32.797163
32.383941
31.919674
31.527433
30.732517
24.638538
24.479267
24.317431
24.152888
23.98561
23.815598
23.642861
23.467413
23.289272
23.108457
22.924993
22.738907
22.550232
22.359007
22.165275
21.969084
21.770485
21.569532
21.366279
21.160782
20.953101
20.743294
20.531427
20.317563
20.101773
19.884128
19.664702
19.443572
19.220819
18.996525
18.770775
18.543656
18.31526
18.085678
17.855004
17.623335
17.390769
17.157408
16.923352
16.688705
16.453572
16.218058
15.98227
15.746315
15.5103
15.274334
15.038523
14.802976
14.567799
14.333099
14.098982
13.865552
13.632913
13.401166
13.170412
12.940748
12.712273
12.485079
12.25926
12.034904
11.8121
11.590931
11.37148
11.153825
10.938044
10.724208
10.512388
10.302651
10.095064
9.8896915
9.6865882
9.4858239
9.2874622
9.0914951
8.8979787
8.7065782
8.5175441
8.3307774
8.1406427
7.958281
7.7806242
7.6151914
7.4684289
7.496035
8.233043
10.783231
16.519076
23.519337
28.640722
30.987845
31.867709
31.990835
31.83562
31.588949
31.310661
31.012086
30.698113
30.350799
30.06425
29.418799
24.63857
24.479301
24.317467
24.152927
23.985651
23.815642
23.642908
23.467463
23.289325
23.108514
22.925055
22.738975
22.550308
22.35909
22.165365
21.969181
21.770589
21.56964
21.366391
21.160896
20.953215
20.743409
20.53154
20.317675
20.101883
19.884235
19.664805
19.443672
19.220916
18.996618
18.770864
18.543742
18.315341
18.085755
17.855078
17.623405
17.390836
17.157472
16.923413
16.688763
16.453628
16.218111
15.982321
15.746363
15.510346
15.274378
15.038565
14.803017
14.567838
14.333137
14.099018
13.865587
13.632946
13.401198
13.170442
12.940777
12.712301
12.485106
12.259285
12.034928
11.812123
11.590953
11.371501
11.153845
10.938063
10.724227
10.512407
10.30267
10.095079
9.8896964
9.6865781
9.4857796
9.2873554
9.0913552
8.8978226
8.7068373
8.5183525
8.3325424
8.148757
7.9677943
7.7888759
7.6079404
7.4345033
7.2652802
7.1117216
6.9717156
7.1571482
8.1228962
11.859679
18.172844
24.158915
27.672122
29.06021
29.46057
29.425261
29.237
28.999619
28.724906
28.502298
28.012801
24.638604
24.479337
24.317506
24.152968
23.985695
23.815688
23.642957
23.467516
23.289381
23.108575
22.925121
22.739047
22.550386
22.359176
22.165459
21.969282
21.770695
21.569752
21.366506
21.161013
20.953334
20.743527
20.531657
20.317791
20.101996
19.884345
19.664913
19.443776
19.221016
18.996714
18.770956
18.54383
18.315426
18.085836
17.855155
17.623479
17.390906
17.157538
16.923477
16.688824
16.453686
16.218167
15.982374
15.746414
15.510395
15.274424
15.03861
14.803059
14.567879
14.333176
14.099056
13.865623
13.632981
13.401231
13.170474
12.940808
12.71233
12.485134
12.259312
12.034954
11.812147
11.590976
11.371522
11.153866
10.938083
10.724245
10.512425
10.302687
10.095096
9.889713
9.6865946
9.4857948
9.2873642
9.0913507
8.8977977
8.7067508
8.5182484
8.3323243
8.1490439
7.9683976
7.7904382
7.6148027
7.4417546
7.2702819
7.09788
6.9322337
6.7737504
6.6309305
6.532609
6.9552187
8.6811291
13.528817
19.83347
24.453014
26.476559
27.185897
27.269284
27.117009
26.954496
26.560136
24.638639
24.479375
24.317547
24.153011
23.985741
23.815737
23.643009
23.467571
23.28944
23.108638
22.925189
22.739121
22.550467
22.359265
22.165555
21.969385
21.770805
21.569866
21.366623
21.161133
20.953455
20.743648
20.531778
20.317909
20.102112
19.884459
19.665023
19.443884
19.221119
18.996814
18.771052
18.543922
18.315514
18.08592
17.855235
17.623555
17.390979
17.157608
16.923543
16.688887
16.453746
16.218224
15.982429
15.746467
15.510446
15.274473
15.038656
14.803104
14.567922
14.333217
14.099095
13.865661
13.633017
13.401265
13.170507
12.94084
12.71236
12.485162
12.259339
12.03498
11.812172
11.591
11.371545
11.153888
10.938103
10.724265
10.512443
10.302704
10.095113
9.8897286
9.6866095
9.4858094
9.2873787
9.0913649
8.8978119
8.7067601
8.5182478
8.3323072
8.1489757
7.9682811
7.7902466
7.614931
7.442302
7.2724053
7.1047429
6.9401676
6.7749721
6.6124823
6.4542947
6.3120565
6.1677647
6.2704859
7.0322111
10.478888
16.327684
21.446488
24.081257
25.04409
25.329128
25.125333
24.638677
24.479416
24.317589
24.153057
23.985789
23.815788
23.643063
23.467629
23.289502
23.108705
22.925261
22.739199
22.550552
22.359356
22.165654
21.969491
21.770917
21.569983
21.366744
21.161256
20.953579
20.743772
20.531901
20.318031
20.102232
19.884576
19.665137
19.443994
19.221226
18.996917
18.771151
18.544017
18.315605
18.086007
17.855317
17.623634
17.391055
17.15768
16.923612
16.688953
16.453809
16.218284
15.982486
15.746522
15.510498
15.274523
15.038705
14.80315
14.567966
14.33326
14.099136
13.8657
13.633054
13.401301
13.170541
12.940872
12.712391
12.485193
12.259368
12.035007
11.812198
11.591024
11.371569
11.15391
10.938124
10.724285
10.512462
10.302722
10.09513
9.8897448
9.6866248
9.4858237
9.2873923
9.0913779
8.8978244
8.7067726
8.5182598
8.3323201
8.1489842
7.9682802
7.7902315
7.6148647
7.4421974
7.2722547
7.1050586
6.9406305
6.7788379
6.6193084
6.4629635
6.303831
6.1515755
6.0061151
5.8707462
5.7881921
6.2011479
8.1527191
13.033852
18.383972
21.853416
23.262266
24.638717
24.479458
24.317635
24.153105
23.98584
23.815842
23.64312
23.467689
23.289567
23.108774
22.925335
22.73928
22.550639
22.35945
22.165755
21.969599
21.771031
21.570102
21.366867
21.161382
20.953706
20.7439
20.532028
20.318156
20.102355
19.884696
19.665255
19.444108
19.221336
18.997023
18.771253
18.544115
18.315698
18.086096
17.855403
17.623716
17.391133
17.157755
16.923683
16.689021
16.453874
16.218346
15.982546
15.746579
15.510553
15.274576
15.038755
14.803198
14.568012
14.333304
14.099179
13.865741
13.633093
13.401339
13.170577
12.940907
12.712424
12.485224
12.259398
12.035035
11.812225
11.59105
11.371593
11.153933
10.938146
10.724306
10.512482
10.302741
10.095147
9.8897615
9.6866406
9.4858387
9.2874064
9.0913911
8.8978369
8.7067843
8.5182709
8.3323308
8.1489948
7.9682906
7.7902427
7.6148723
7.4421981
7.2722345
7.1050012
6.9404996
6.778773
6.6197782
6.4636483
6.309788
6.1589542
6.0084941
5.8599388
5.7155833
5.5861932
5.4595205
5.6354464
7.0323447
10.277078
17.275697
24.638759
24.479503
24.317682
24.153155
23.985893
23.815899
23.64318
23.467753
23.289634
23.108846
22.925413
22.739363
22.550729
22.359548
22.16586
21.96971
21.771148
21.570224
21.366993
21.16151
20.953835
20.744029
20.532157
20.318284
20.102481
19.88482
19.665375
19.444225
19.221449
18.997132
18.771358
18.544216
18.315795
18.086189
17.855492
17.623801
17.391214
17.157832
16.923757
16.689092
16.453941
16.218411
15.982607
15.746638
15.510609
15.27463
15.038807
14.803248
14.56806
14.33335
14.099223
13.865783
13.633134
13.401377
13.170614
12.940942
12.712458
12.485256
12.259428
12.035065
11.812253
11.591076
11.371618
11.153957
10.938169
10.724327
10.512502
10.30276
10.095166
9.8897787
9.6866569
9.485854
9.2874209
9.0914048
8.8978497
8.7067964
8.5182823
8.3323415
8.1490048
7.9683001
7.7902518
7.6148814
7.4422071
7.2722442
7.1050054
6.9404996
6.778735
6.6197211
6.4634556
6.309967
6.1592545
6.0112054
5.8654967
5.7228358
5.5776464
5.4397566
5.3050211
5.2046423
5.1617701
8.3134701
24.638804
24.47955
24.317732
24.153208
23.985949
23.815958
23.643243
23.467819
23.289705
23.108922
22.925494
22.73945
22.550822
22.359648
22.165967
21.969824
21.771267
21.570348
21.367121
21.161641
20.953967
20.744162
20.532289
20.318415
20.10261
19.884946
19.665498
19.444345
19.221566
18.997244
18.771466
18.54432
18.315895
18.086285
17.855583
17.623888
17.391297
17.157912
16.923833
16.689164
16.454011
16.218478
15.982671
15.746699
15.510668
15.274686
15.038861
14.8033
14.56811
14.333397
14.099268
13.865826
13.633175
13.401417
13.170652
12.940979
12.712493
12.485289
12.25946
12.035095
11.812281
11.591104
11.371644
11.153982
10.938192
10.724349
10.512523
10.30278
10.095184
9.8897965
9.6866736
9.4858698
9.2874358
9.0914188
8.8978629
8.7068088
8.5182939
8.3323524
8.1490151
7.9683097
7.7902608
7.6148898
7.442215
7.2722519
7.1050128
6.9405076
6.7787424
6.6197225
6.4634467
6.3099215
6.159137
6.0111182
5.8658049
5.7233881
5.5829271
5.4467262
5.3048571
5.1877702
4.9849216
5.0144859
24.638851
24.4796
24.317785
24.153263
23.986008
23.81602
23.643308
23.467889
23.289779
23.109
22.925578
22.73954
22.550919
22.359751
22.166076
21.96994
21.771389
21.570475
21.367251
21.161774
20.954102
20.744297
20.532424
20.318549
20.102742
19.885075
19.665625
19.444468
19.221685
18.99736
18.771577
18.544427
18.315998
18.086383
17.855678
17.623978
17.391384
17.157994
16.923912
16.68924
16.454083
16.218546
15.982737
15.746762
15.510728
15.274744
15.038916
14.803353
14.568161
14.333446
14.099315
13.865871
13.633218
13.401458
13.170692
12.941016
12.712529
12.485323
12.259493
12.035126
11.812311
11.591132
11.371671
11.154007
10.938216
10.724372
10.512545
10.302801
10.095204
9.8898147
9.6866908
9.485886
9.287451
9.0914332
8.8978764
8.7068215
8.5183058
8.3323635
8.1490255
7.9683195
7.7902699
7.6148983
7.4422229
7.2722593
7.1050197
6.940514
6.7787489
6.6197285
6.4634543
6.3099253
6.1591374
6.0110865
5.8657665
5.7231724
5.583299
5.4461643
5.3118013
5.1777159
5.0594268
4.8591094
24.638901
24.479653
24.31784
24.153322
23.98607
23.816084
23.643377
23.467961
23.289856
23.109082
22.925665
22.739633
22.551018
22.359856
22.166189
21.970059
21.771514
21.570604
21.367384
21.16191
20.954239
20.744435
20.532562
20.318686
20.102877
19.885208
19.665754
19.444594
19.221807
18.997478
18.771692
18.544536
18.316103
18.086484
17.855775
17.624071
17.391472
17.158079
16.923993
16.689317
16.454157
16.218617
15.982805
15.746827
15.510791
15.274803
15.038973
14.803408
14.568213
14.333496
14.099363
13.865917
13.633263
13.401501
13.170732
12.941055
12.712566
12.485359
12.259526
12.035158
11.812341
11.591161
11.371698
11.154033
10.938241
10.724396
10.512567
10.302821
10.095223
9.8898334
9.6867084
9.4859026
9.2874666
9.0914478
8.8978902
8.7068345
8.518318
8.3323749
8.1490362
7.9683294
7.7902792
7.6149069
7.442231
7.2722668
7.1050267
6.9405205
6.7787549
6.619734
6.4634596
6.3099304
6.1591433
6.0110914
5.8657705
5.7231534
5.5833013
5.4458946
5.3122797
5.1765302
5.0644441
4.8640915
24.638954
24.479708
24.317898
24.153383
23.986134
23.816152
23.643448
23.468037
23.289936
23.109167
22.925755
22.739729
22.55112
22.359965
22.166304
21.97018
21.77164
21.570736
21.367519
21.162047
20.954379
20.744576
20.532702
20.318825
20.103014
19.885343
19.665886
19.444722
19.221932
18.997599
18.771809
18.544649
18.316211
18.086588
17.855874
17.624166
17.391564
17.158166
16.924076
16.689397
16.454233
16.218691
15.982875
15.746894
15.510855
15.274865
15.039032
14.803464
14.568267
14.333548
14.099413
13.865965
13.633308
13.401544
13.170774
12.941095
12.712604
12.485395
12.259561
12.035191
11.812373
11.591191
11.371727
11.15406
10.938266
10.72442
10.512589
10.302843
10.095244
9.8898524
9.6867264
9.4859195
9.2874826
9.0914628
8.8979043
8.7068476
8.5183303
8.3323865
8.149047
7.9683395
7.7902886
7.6149157
7.4422391
7.2722743
7.1050337
6.9405269
6.7787608
6.6197396
6.4634647
6.3099351
6.1591477
6.0110957
5.8657745
5.7231593
5.5833013
5.4459039
5.3122005
5.1766349
5.0638565
4.8637912
24.639009
24.479766
24.317959
24.153447
23.986201
23.816223
23.643523
23.468115
23.290019
23.109255
22.925848
22.739828
22.551225
22.360076
22.166421
21.970303
21.771769
21.570869
21.367657
21.162188
20.954521
20.744719
20.532845
20.318967
20.103154
19.885481
19.666021
19.444854
19.22206
18.997723
18.771928
18.544765
18.316323
18.086695
17.855977
17.624265
17.391658
17.158256
16.924162
16.689479
16.454312
16.218766
15.982947
15.746963
15.510921
15.274928
15.039093
14.803522
14.568323
14.333602
14.099464
13.866014
13.633355
13.401589
13.170817
12.941136
12.712643
12.485432
12.259596
12.035225
11.812405
11.591221
11.371755
11.154087
10.938292
10.724444
10.512613
10.302865
10.095264
9.8898719
9.6867447
9.4859368
9.2874988
9.091478
8.8979185
8.706861
8.5183428
8.3323982
8.1490579
7.9683497
7.7902981
7.6149245
7.4422473
7.2722819
7.1050407
6.9405334
6.7787668
6.6197451
6.4634697
6.3099398
6.1591519
6.0110996
5.865778
5.7231631
5.5833033
5.445912
5.3121917
5.1766582
5.0638048
4.863628
24.639068
24.479827
24.318023
24.153514
23.986272
23.816297
23.643601
23.468197
23.290105
23.109346
22.925945
22.73993
22.551333
22.36019
22.166541
21.970429
21.771901
21.571005
21.367797
21.16233
20.954666
20.744864
20.53299
20.319111
20.103297
19.885621
19.666159
19.444989
19.222191
18.99785
18.772051
18.544883
18.316437
18.086804
17.856082
17.624365
17.391754
17.158349
16.924251
16.689564
16.454393
16.218843
15.983021
15.747034
15.510989
15.274993
15.039155
14.803582
14.56838
14.333656
14.099516
13.866064
13.633403
13.401635
13.170861
12.941177
12.712683
12.48547
12.259632
12.035259
11.812437
11.591252
11.371785
11.154115
10.938319
10.724469
10.512636
10.302887
10.095285
9.8898917
9.6867634
9.4859543
9.2875152
9.0914935
8.897933
8.7068745
8.5183555
8.33241
8.1490689
7.9683599
7.7903076
7.6149334
7.4422555
7.2722895
7.1050478
6.9405399
6.7787728
6.6197505
6.4634747
6.3099443
6.159156
6.0111034
5.8657814
5.7231662
5.5833059
5.4459147
5.3121951
5.1766616
5.0638112
4.8636293
24.639129
24.479891
24.31809
24.153584
23.986345
23.816374
23.643682
23.468283
23.290195
23.109441
22.926044
22.740035
22.551444
22.360307
22.166664
21.970558
21.772034
21.571144
21.367939
21.162475
20.954812
20.745011
20.533138
20.319258
20.103442
19.885764
19.666299
19.445126
19.222325
18.99798
18.772177
18.545004
18.316553
18.086917
17.856189
17.624469
17.391853
17.158443
16.924341
16.689651
16.454476
16.218923
15.983097
15.747107
15.511058
15.27506
15.039219
14.803643
14.568439
14.333713
14.09957
13.866116
13.633452
13.401682
13.170906
12.94122
12.712724
12.485509
12.25967
12.035294
11.812471
11.591284
11.371815
11.154144