/*--------------------------------*- C++ -*----------------------------------*\
  =========                 |
  \\      /  F ield         | OpenFOAM: The Open Source CFD Toolbox
   \\    /   O peration     | Website:  https://openfoam.org
    \\  /    A nd           | Version:  12
     \\/     M anipulation  |
\*---------------------------------------------------------------------------*/
FoamFile
{
    format      ascii;
    class       volScalarField;
    location    "1400";
    object      omega;
}
// * * * * * * * * * * * * * * * * * * * * * * * * * * * * * * * * * * * * * //

dimensions      [0 0 -1 0 0 0 0];

internalField   nonuniform List<scalar> 
13056
(
414.19748
168.67328
95.657018
71.721401
62.813007
58.733977
56.456799
55.002061
53.995531
53.264336
52.715287
52.292667
51.960856
51.695996
51.48151
51.3056
51.159388
51.037177
50.930789
50.849377
50.73916
50.782004
50.29576
114.71253
15925793
15925793
15925793
15925793
15925793
15925793
15925793
15925793
15925793
15925793
15925793
15925793
15925793
15925793
15925793
15925793
15925793
15925793
15925793
15925793
15925793
15925793
15925793
15925793
15925793
15925793
15925793
15925793
15925793
15925793
15925793
15925793
15925793
15925793
15925793
15925793
15925793
15925793
15925793
15925793
15925793
15925793
15925793
15925793
15925793
15925793
15925793
15925793
15925793
15925793
15925793
15925793
15925793
15925793
15925793
15925793
15925793
15925793
15925793
15925793
15925793
15925793
15925793
15925793
15925793
15925793
15925793
15925793
15925793
15925793
15925793
15925793
15925793
15925793
15925793
15925793
15925793
15925793
15925793
15925793
15925793
15925793
15925793
15925793
15925793
15925793
15925793
15925793
15925793
15925793
15925793
15925793
15925793
15925793
15925793
15925793
15925793
15925793
15925793
15925793
15925793
15925793
15925793
15925793
15925793
15925793
15925793
15925793
15925793
15925793
15925793
15925793
414.19737
168.67464
95.657507
71.719652
62.809384
58.729106
56.451078
54.995729
53.988739
53.257192
52.707865
52.285024
51.953033
51.688025
51.473414
51.297399
51.151097
51.028807
50.922351
50.840877
50.730618
50.773724
50.285844
111.47904
2727967.6
2723730.6
2723622.8
2723622.6
2723615
2723603.4
2723592.3
2723582.8
2723574.8
2723567.9
2723561.9
2723556.6
2723551.8
2723547.4
2723543.3
2723539.6
2723536.1
2723532.9
2723530
2723527.2
2723524.6
2723522.1
2723519.8
2723517.6
2723515.6
2723513.6
2723511.7
2723509.9
2723508.2
2723506.5
2723505
2723503.4
2723502
2723500.6
2723499.2
2723497.9
2723496.6
2723495.3
2723494.1
2723492.9
2723491.8
2723490.7
2723489.6
2723488.5
2723487.5
2723486.4
2723485.4
2723484.4
2723483.5
2723482.5
2723481.6
2723480.7
2723479.8
2723478.9
2723478
2723477.1
2723476.3
2723475.4
2723474.6
2723473.8
2723473
2723472.2
2723471.4
2723470.6
2723469.8
2723469
2723468.2
2723467.4
2723466.7
2723465.9
2723465.2
2723464.4
2723463.6
2723462.9
2723462.1
2723461.4
2723460.6
2723459.9
2723459.1
2723458.3
2723457.6
2723456.8
2723456.1
2723455.3
2723454.5
2723453.7
2723452.9
2723452.1
2723451.3
2723450.5
2723449.8
2723449.1
2723448.4
2723447.7
2723447.1
2723446.5
2723445.9
2723445.4
2723444.9
2723444.4
2723443.9
2723443.4
2723443
2723442.5
2723442.1
2723441.7
2723441.3
2723440.9
2723440.6
2723440.2
2723439.9
2723439.3
414.19697
168.6795
95.658958
71.712942
62.796485
58.712229
56.431507
54.974217
53.965775
53.23311
52.682908
52.259366
51.926807
51.66133
51.446327
51.26998
51.123392
51.000853
50.89418
50.812505
50.702086
50.745642
50.254598
107.84177
912023.23
910424.94
910282.71
910281.51
910254.34
910219
910186.51
910159.04
910135.73
910115.6
910097.96
910082.32
910068.08
910055.05
910043.07
910032.04
910021.87
910012.44
910003.65
909995.43
909987.71
909980.44
909973.56
909967.06
909960.88
909955
909949.4
909944.05
909938.91
909934
909929.27
909924.72
909920.34
909916.11
909912.01
909908.04
909904.2
909900.47
909896.84
909893.31
909889.87
909886.5
909883.21
909879.99
909876.85
909873.77
909870.76
909867.8
909864.9
909862.06
909859.26
909856.5
909853.79
909851.12
909848.48
909845.88
909843.31
909840.78
909838.27
909835.79
909833.33
909830.89
909828.48
909826.09
909823.71
909821.36
909819.01
909816.68
909814.36
909812.06
909809.76
909807.47
909805.18
909802.9
909800.62
909798.34
909796.06
909793.78
909791.49
909789.2
909786.91
909784.6
909782.28
909779.95
909777.61
909775.24
909772.86
909770.45
909768.02
909765.62
909763.31
909761.12
909759.04
909757.05
909755.16
909753.36
909751.63
909749.98
909748.39
909746.87
909745.41
909744
909742.65
909741.34
909740.07
909738.85
909737.66
909736.5
909735.39
909734.24
909733.23
909731.58
414.19627
168.68798
95.661423
71.701136
62.773992
58.682903
56.397555
54.936933
53.925996
53.191414
52.639707
52.214964
51.881429
51.615148
51.399471
51.222553
51.075475
50.952508
50.845461
50.763439
50.652737
50.696898
50.201175
104.14362
424449.85
421870.67
421640
421632.32
421574.01
421500.69
421433.85
421377.36
421329.39
421287.91
421251.54
421219.27
421189.86
421162.93
421138.17
421115.36
421094.32
421074.79
421056.58
421039.55
421023.54
421008.46
420994.19
420980.68
420967.86
420955.64
420944
420932.88
420922.21
420911.98
420902.16
420892.68
420883.55
420874.74
420866.21
420857.95
420849.94
420842.17
420834.6
420827.24
420820.05
420813.02
420806.15
420799.44
420792.89
420786.47
420780.17
420774
420767.95
420761.99
420756.14
420750.38
420744.71
420739.13
420733.61
420728.17
420722.8
420717.5
420712.25
420707.05
420701.91
420696.81
420691.76
420686.75
420681.77
420676.83
420671.92
420667.03
420662.18
420657.34
420652.52
420647.71
420642.92
420638.14
420633.35
420628.56
420623.78
420618.99
420614.2
420609.38
420604.56
420599.72
420594.85
420589.95
420585.02
420580.05
420575.04
420569.98
420564.87
420559.8
420554.95
420550.34
420545.95
420541.77
420537.79
420534
420530.36
420526.88
420523.54
420520.34
420517.26
420514.29
420511.43
420508.67
420506.01
420503.42
420500.92
420498.48
420496.13
420493.7
420491.57
420488.1
414.19526
168.70026
95.664985
71.684022
62.741413
58.640437
56.348394
54.88295
53.868401
53.131044
52.577159
52.150675
51.815727
51.548279
51.331628
51.153882
51.006093
50.882506
50.774918
50.692394
50.581276
50.626167
50.124205
100.44525
238257.48
234344.55
233975.7
233949.95
233848.89
233725.06
233612.66
233517.62
233436.79
233366.86
233305.47
233250.97
233201.27
233155.73
233113.83
233075.21
233039.55
233006.43
232975.54
232946.64
232919.45
232893.81
232869.56
232846.58
232824.76
232803.96
232784.14
232765.18
232747
232729.56
232712.79
232696.63
232681.05
232666
232651.43
232637.31
232623.62
232610.33
232597.38
232584.78
232572.48
232560.45
232548.7
232537.21
232525.97
232514.97
232504.18
232493.6
232483.22
232473.01
232462.97
232453.09
232443.35
232433.76
232424.29
232414.95
232405.72
232396.6
232387.57
232378.64
232369.8
232361.03
232352.33
232343.71
232335.15
232326.64
232318.18
232309.76
232301.39
232293.06
232284.75
232276.46
232268.19
232259.94
232251.69
232243.43
232235.17
232226.9
232218.62
232210.31
232201.97
232193.61
232185.19
232176.71
232168.19
232159.6
232150.92
232142.16
232133.31
232124.54
232116.13
232108.16
232100.55
232093.31
232086.41
232079.82
232073.52
232067.48
232061.69
232056.13
232050.78
232045.63
232040.66
232035.87
232031.25
232026.76
232022.42
232018.17
232014.08
232009.87
232006.16
232000.13
414.19392
168.71657
95.669757
71.661335
62.698101
58.583914
56.282923
54.81103
53.791652
53.050581
52.493781
52.064969
51.728128
51.45912
51.241162
51.062309
50.913568
50.78915
50.680837
50.597641
50.485959
50.531671
50.021833
96.751433
151052.64
146086.84
145516.97
145452.5
145298.93
145116.28
144951.01
144811.08
144691.9
144588.67
144497.97
144417.34
144343.79
144276.34
144214.21
144156.89
144103.92
144054.68
144008.72
143965.68
143925.17
143886.94
143850.75
143816.43
143783.82
143752.73
143723.08
143694.71
143667.47
143641.34
143616.21
143591.97
143568.58
143545.99
143524.11
143502.88
143482.31
143462.31
143442.84
143423.87
143405.35
143387.24
143369.52
143352.21
143335.27
143318.68
143302.4
143286.43
143270.74
143255.33
143240.15
143225.22
143210.5
143195.98
143181.66
143167.52
143153.55
143139.73
143126.06
143112.52
143099.12
143085.82
143072.63
143059.54
143046.54
143033.62
143020.77
143007.99
142995.27
142982.6
142969.96
142957.34
142944.77
142932.21
142919.63
142907.05
142894.47
142881.87
142869.24
142856.56
142843.85
142831.08
142818.22
142805.28
142792.26
142779.12
142765.86
142752.47
142738.93
142725.5
142712.63
142700.41
142688.76
142677.66
142667.08
142656.99
142647.32
142638.05
142629.17
142620.64
142612.43
142604.52
142596.89
142589.53
142582.42
142575.53
142568.85
142562.32
142556.04
142549.56
142543.86
142534.58
414.19222
168.7372
95.675883
71.63277
62.643281
58.512225
56.199799
54.719661
53.694105
52.948282
52.387753
51.955959
51.616695
51.345688
51.126057
50.945784
50.795824
50.670342
50.561099
50.477042
50.364634
50.411197
49.891766
93.054803
104638.77
99034.674
98183.552
98047.947
97835.351
97592.351
97373.19
97187.288
97028.666
96891.08
96770.049
96662.308
96563.968
96473.674
96390.4
96313.483
96242.302
96176.073
96114.179
96056.158
96001.492
95949.849
95900.925
95854.493
95810.331
95768.185
95727.96
95689.448
95652.452
95616.927
95582.737
95549.732
95517.874
95487.087
95457.234
95428.268
95400.17
95372.85
95346.225
95320.281
95294.934
95270.136
95245.874
95222.14
95198.918
95176.157
95153.817
95131.884
95110.339
95089.148
95068.285
95047.734
95027.473
95007.489
94987.758
94968.267
94949.001
94929.94
94911.068
94892.38
94873.862
94855.486
94837.248
94819.141
94801.155
94783.272
94765.476
94747.762
94730.129
94712.558
94695.023
94677.519
94660.053
94642.605
94625.132
94607.639
94590.137
94572.608
94555.02
94537.364
94519.647
94501.842
94483.914
94465.862
94447.68
94429.334
94410.798
94392.076
94373.136
94354.345
94336.322
94319.215
94302.883
94287.326
94272.498
94258.331
94244.763
94231.755
94219.28
94207.298
94195.763
94184.641
94173.915
94163.565
94153.562
94143.864
94134.462
94125.264
94116.413
94107.295
94099.254
94086.179
414.19013
168.76246
95.68354
71.59801
62.576088
58.424103
56.09747
54.607087
53.573849
52.822116
52.256945
51.821439
51.479158
51.205661
50.983945
50.801904
50.650424
50.523616
50.413215
50.328085
50.214766
50.262114
49.731331
89.347652
77660.587
71893.713
70656.432
70403.941
70130.233
69834.129
69568.254
69342.22
69148.988
68981.144
68833.278
68701.437
68581.039
68470.342
68368.087
68273.483
68185.795
68104.088
68027.623
67955.846
67888.133
67824.085
67763.337
67705.616
67650.655
67598.149
67547.98
67499.901
67453.671
67409.235
67366.431
67325.073
67285.118
67246.472
67208.97
67172.552
67137.196
67102.794
67069.242
67036.522
67004.541
66973.238
66942.591
66912.591
66883.217
66854.406
66826.11
66798.312
66770.987
66744.094
66717.601
66691.488
66665.726
66640.301
66615.184
66590.356
66565.8
66541.491
66517.408
66493.547
66469.888
66446.398
66423.069
66399.896
66376.864
66353.95
66331.134
66308.41
66285.778
66263.211
66240.678
66218.173
66195.703
66173.242
66150.736
66128.191
66105.623
66083.004
66060.297
66037.488
66014.586
65991.557
65968.354
65944.976
65921.415
65897.626
65873.575
65849.267
65824.659
65800.228
65776.779
65754.51
65733.244
65712.974
65693.643
65675.166
65657.459
65640.476
65624.18
65608.522
65593.441
65578.893
65564.859
65551.31
65538.21
65525.506
65513.185
65501.127
65489.519
65477.561
65467.007
65449.841
414.18763
168.79266
95.692934
71.556752
62.495603
58.318162
55.974225
54.471355
53.428749
52.669803
52.098964
51.658924
51.312956
51.036416
50.812152
50.627948
50.47461
50.34618
50.234363
50.147923
50.033482
50.081556
49.537376
85.62547
60844.291
55392.009
53644.902
53218.853
52885.901
52552.181
52254.732
52001.338
51784.39
51595.747
51429.337
51280.726
51145.026
51020.088
50904.466
50797.293
50697.77
50604.877
50517.8
50435.93
50358.577
50285.302
50215.702
50149.476
50086.331
50025.926
49968.135
49912.683
49859.301
49807.927
49758.385
49710.465
49664.117
49619.24
49575.648
49533.274
49492.091
49451.982
49412.828
49374.608
49337.232
49300.629
49264.764
49229.624
49195.186
49161.38
49128.151
49095.478
49063.334
49031.673
49000.458
48969.665
48939.262
48909.233
48879.544
48850.175
48821.104
48792.303
48763.749
48735.436
48707.341
48679.425
48651.681
48624.101
48596.667
48569.354
48542.138
48515.011
48487.973
48460.992
48434.032
48407.085
48380.159
48353.224
48326.215
48299.138
48272.012
48244.805
48217.469
48189.989
48162.376
48134.587
48106.565
48078.308
48049.808
48021.006
47991.864
47962.383
47932.513
47902.831
47874.318
47847.219
47821.33
47796.637
47773.069
47750.526
47728.91
47708.162
47688.243
47669.091
47650.634
47632.821
47615.626
47599.017
47582.951
47567.363
47552.237
47537.427
47523.164
47508.464
47495.483
47474.36
414.18467
168.82813
95.704306
71.508744
62.400899
58.19295
55.828237
54.31036
53.256489
52.488864
51.9112
51.465698
51.115286
50.835076
50.60774
50.420927
50.265347
50.134961
50.021434
49.933415
49.817613
49.866358
49.306433
81.887516
49646.876
44929.372
42556.465
41898.141
41508.995
41156.631
40846.659
40582.402
40356.103
40159.355
39985.712
39830.486
39688.972
39558.564
39437.681
39325.423
39220.985
39123.339
39031.655
38945.31
38863.599
38786.074
38712.323
38642.04
38574.927
38510.635
38449.034
38389.848
38332.796
38277.815
38224.728
38173.315
38123.525
38075.259
38028.32
37982.638
37938.188
37894.852
37852.5
37811.111
37770.622
37730.952
37692.045
37653.882
37616.443
37579.656
37543.461
37507.834
37472.75
37438.161
37404.026
37370.319
37337.007
37304.074
37271.484
37239.215
37207.242
37175.537
37144.076
37112.851
37081.837
37050.993
37020.311
36989.783
36959.388
36929.099
36898.89
36868.753
36838.686
36808.656
36778.621
36748.572
36718.519
36688.428
36658.226
36627.92
36597.529
36567.018
36536.333
36505.457
36474.4
36443.113
36411.533
36379.656
36347.471
36314.911
36281.93
36248.531
36214.653
36180.952
36148.541
36117.709
36088.245
36060.113
36033.241
36007.513
35982.822
35959.104
35936.315
35914.387
35893.239
35872.814
35853.085
35834.015
35815.557
35797.637
35780.236
35763.19
35746.764
35729.823
35714.855
35690.48
414.18122
168.86915
95.717928
71.453817
62.291095
58.047004
55.657619
54.121907
53.054635
52.276677
51.690882
51.238866
50.883154
50.598565
50.36756
50.177632
50.019374
49.886652
49.771084
49.68118
49.563745
49.613101
49.034798
78.14399
41656.374
37992.998
34931.772
33993.17
33548.16
33192.34
32886.167
32625.669
32403.041
32209.929
32039.712
31887.608
31749.546
31622.362
31504.363
31394.646
31292.432
31196.748
31106.791
31021.96
30941.58
30865.217
30792.475
30723.06
30656.689
30593.024
30531.942
30473.182
30416.471
30361.749
30308.847
30257.554
30207.818
30159.548
30112.554
30066.763
30022.155
29978.619
29936.027
29894.351
29853.588
29813.645
29774.431
29735.924
29698.109
29660.915
29624.281
29588.184
29552.6
29517.483
29482.793
29448.501
29414.578
29381.006
29347.752
29314.791
29282.099
29249.65
29217.418
29185.397
29153.559
29121.864
29090.305
29058.872
29027.545
28996.295
28965.096
28933.941
28902.826
28871.717
28840.57
28809.379
28778.151
28746.849
28715.399
28683.808
28652.094
28620.22
28588.13
28555.804
28523.252
28490.422
28457.246
28423.72
28389.828
28355.501
28320.688
28285.388
28249.536
28213.826
28179.441
28146.696
28115.399
28085.486
28056.881
28029.466
28003.129
27977.806
27953.451
27929.997
27907.357
27885.473
27864.316
27843.851
27824.028
27804.766
27786.051
27767.702
27750.01
27731.745
27715.603
27689.284
414.17727
168.91599
95.734104
71.391926
62.165419
57.878917
55.4605
53.903774
52.820697
52.030541
51.435137
50.975421
50.613437
50.323664
50.088315
49.894698
49.733267
49.597776
49.47979
49.387653
49.268276
49.318166
48.718627
74.414849
35520.957
33134.361
29416.386
28168.391
27662.78
27310.022
27016.423
26768.082
26556.863
26374.568
26214.476
26071.761
25943.327
25825.268
25715.79
25613.983
25519.101
25430.25
25346.683
25267.831
25193.074
25122.005
25054.255
24989.552
24927.633
24868.19
24811.104
24756.142
24703.053
24651.775
24602.161
24554.014
24507.282
24461.887
24417.658
24374.518
24332.452
24291.365
24251.132
24211.725
24173.222
24135.519
24098.477
24062.067
24026.278
23991.05
23956.321
23922.067
23888.269
23854.889
23821.884
23789.227
23756.891
23724.862
23693.11
23661.607
23630.331
23599.26
23568.371
23537.653
23507.082
23476.621
23446.262
23415.997
23385.804
23355.656
23325.53
23295.416
23265.312
23235.183
23204.989
23174.722
23144.388
23113.951
23083.34
23052.56
23021.627
22990.504
22959.136
22927.504
22895.615
22863.417
22830.842
22797.885
22764.528
22730.702
22696.353
22661.48
22626.016
22590.646
22556.543
22524.036
22492.981
22463.268
22434.82
22407.527
22381.28
22356.018
22331.699
22308.256
22285.607
22263.694
22242.492
22221.965
22202.065
22182.714
22163.897
22145.433
22127.619
22109.204
22092.929
22066.354
414.17277
168.96879
95.753168
71.323196
62.023275
57.687419
55.235096
53.653794
52.552213
51.747757
51.141079
50.672318
50.302963
50.007094
49.766634
49.568674
49.40351
49.264758
49.143923
49.049161
48.927492
48.977797
48.354071
70.727704
30468.885
29482.16
25246.55
23699.571
23124.928
22773.086
22492.977
22258.45
22060.445
21890.851
21742.82
21611.448
21494.852
21388.121
21289.361
21197.64
21112.227
21032.307
20957.189
20886.338
20819.189
20755.365
20694.525
20636.418
20580.803
20527.401
20476.098
20426.694
20378.961
20332.836
20288.191
20244.851
20202.763
20161.861
20121.995
20083.088
20045.129
20008.039
19971.703
19936.085
19901.379
19867.46
19834.122
19801.332
19769.084
19737.325
19705.998
19675.078
19644.551
19614.385
19584.541
19554.991
19525.71
19496.691
19467.906
19439.326
19410.931
19382.705
19354.626
19326.683
19298.852
19271.101
19243.426
19215.817
19188.251
19160.705
19133.16
19105.606
19078.038
19050.425
19022.731
18994.95
18967.083
18939.097
18910.929
18882.582
18854.07
18825.356
18796.39
18767.155
18737.654
18707.837
18677.643
18647.064
18616.083
18584.631
18552.661
18520.166
18487.083
18454.049
18422.162
18391.749
18362.743
18334.963
18308.341
18282.773
18258.164
18234.456
18211.613
18189.573
18168.262
18147.628
18127.647
18108.287
18089.504
18071.226
18053.44
18035.972
18019.112
18001.653
17986.231
17961.004
414.16772
169.02763
95.775477
71.247967
61.864327
57.471464
54.979812
53.369954
52.24684
51.425723
50.805895
50.326573
49.948602
49.645604
49.399163
49.19612
49.026583
48.884014
48.759843
48.662004
48.537654
48.588173
47.937457
67.118164
26066.996
26494.973
21967.555
20167.182
19519.24
19164.318
18896.592
18675.783
18491.091
18334.377
18198.674
18078.989
17973.499
17877.494
17788.992
17707.015
17630.826
17559.67
17492.9
17430.006
17370.474
17313.949
17260.113
17208.729
17159.576
17112.402
17067.094
17023.479
16981.353
16940.651
16901.262
16863.031
16825.902
16789.821
16754.659
16720.339
16686.85
16654.129
16622.072
16590.638
16560.162
16530.484
16501.32
16472.625
16444.399
16416.601
16389.173
16362.092
16335.348
16308.917
16282.761
16256.852
16231.17
16205.713
16180.454
16155.363
16130.425
16105.626
16080.95
16056.384
16031.904
16007.484
15983.122
15958.81
15934.522
15910.24
15885.948
15861.639
15837.304
15812.916
15788.446
15763.886
15739.238
15714.469
15689.527
15664.414
15639.139
15613.669
15587.962
15561.999
15535.782
15509.267
15482.398
15455.169
15427.561
15399.512
15370.979
15341.954
15312.378
15282.823
15254.269
15227.036
15201.156
15176.355
15152.568
15129.708
15107.688
15086.462
15065.995
15046.236
15027.118
15008.595
14990.648
14973.249
14956.357
14939.909
14923.896
14908.158
14892.964
14877.199
14863.289
14840.49
414.1621
169.0924
95.801406
71.166839
61.68859
57.230347
54.693355
53.050508
51.902478
51.062054
50.426964
49.935371
49.547383
49.236087
48.982681
48.773716
48.599082
48.452061
48.323999
48.222573
48.095112
48.1455
47.465536
63.627026
22086.568
23832.796
19301.606
17310.958
16590.751
16228.77
15971.816
15764.199
15592.426
15448.171
15324.398
15216.052
15120.484
15034.093
14954.86
14881.754
14814.009
14750.909
14691.847
14636.331
14583.886
14534.18
14486.912
14441.855
14398.804
14357.529
14317.917
14279.82
14243.055
14207.552
14173.216
14139.912
14107.58
14076.173
14045.585
14015.738
13986.618
13958.18
13930.329
13903.019
13876.57
13850.851
13825.591
13800.737
13776.292
13752.224
13728.481
13705.035
13681.882
13659.003
13636.365
13613.938
13591.705
13569.667
13547.803
13526.081
13504.487
13483.014
13461.647
13440.371
13419.165
13398.009
13376.902
13355.835
13334.784
13313.732
13292.67
13271.589
13250.481
13229.32
13208.083
13186.766
13165.365
13143.853
13122.186
13100.368
13078.401
13056.256
13033.898
13011.312
12988.496
12965.411
12942.01
12918.287
12894.222
12869.762
12844.87
12819.535
12793.707
12767.884
12742.923
12719.135
12696.677
12675.149
12654.492
12634.629
12615.49
12597.033
12579.228
12562.031
12545.386
12529.253
12513.616
12498.449
12483.719
12469.371
12455.396
12441.653
12428.386
12414.591
12402.441
12382.481
414.15592
169.16285
95.831333
71.08072
61.496529
56.963824
54.374869
52.694118
51.517406
50.654717
50.002001
49.496219
49.096631
48.77572
48.514236
48.298398
48.117847
47.965657
47.833075
47.727479
47.59644
47.646117
46.93582
60.296355
18421.406
21280.162
17077.252
14971.488
14182.51
13807.979
13558.253
13361.661
13201.011
13067.532
12954.123
12855.666
12768.943
12691.11
12620.175
12555.047
12494.922
12439.105
12387.023
12338.203
12292.202
12248.711
12207.441
12168.172
12130.71
12094.848
12060.473
12027.454
11995.632
11964.93
11935.267
11906.525
11878.642
11851.577
11825.243
11799.563
11774.52
11750.082
11726.166
11702.722
11679.939
11657.756
11635.986
11614.573
11593.519
11572.802
11552.372
11532.202
11512.289
11492.62
11473.164
11453.892
11434.789
11415.86
11397.086
11378.435
11359.895
11341.462
11323.124
11304.867
11286.67
11268.516
11250.408
11232.336
11214.277
11196.217
11178.15
11160.069
11141.962
11123.81
11105.594
11087.31
11068.953
11050.498
11031.914
11013.201
10994.359
10975.362
10956.181
10936.804
10917.227
10897.416
10877.333
10856.971
10836.311
10815.309
10793.933
10772.172
10749.982
10727.794
10706.34
10685.895
10666.626
10648.154
10630.425
10613.374
10596.941
10581.09
10565.797
10551.021
10536.717
10522.851
10509.408
10496.366
10483.696
10471.351
10459.327
10447.495
10436.077
10424.176
10413.72
10396.497
414.1492
169.23848
95.865624
70.990858
61.289162
56.672254
54.024093
52.300018
51.090452
50.20221
49.529228
49.007105
48.594143
48.262133
47.991318
47.767535
47.58014
47.421968
47.284156
47.173726
47.038616
47.086624
46.347044
57.165973
15032.354
18728.709
15177.479
13043.286
12192.403
11799.772
11552.891
11364.456
11212.636
11087.838
10982.848
10892.481
10813.134
10742.45
10678.493
10620.114
10566.453
10516.822
10470.678
10427.56
10387.058
10348.882
10312.746
10278.434
10245.766
10214.55
10184.674
10156.02
10128.448
10101.88
10076.244
10051.435
10027.393
10004.078
9981.4195
9959.3446
9937.8325
9916.8585
9896.3541
9876.266
9856.6972
9837.6288
9818.9351
9800.5584
9782.4988
9764.7415
9747.2421
9729.9718
9712.9283
9696.1043
9679.4723
9663.003
9646.6832
9630.5188
9614.4949
9598.582
9582.7666
9567.0482
9551.4184
9535.8612
9520.358
9504.8958
9489.4781
9474.0956
9458.7269
9443.3601
9427.9912
9412.6142
9397.2183
9381.7857
9366.3016
9350.7645
9335.1678
9319.4893
9303.7084
9287.8239
9271.8317
9255.7092
9239.433
9222.9934
9206.3854
9189.5803
9172.5464
9155.2776
9137.7578
9119.9484
9101.823
9083.3716
9064.5577
9045.7458
9027.5569
9010.2083
8993.7871
8978.0488
8962.9428
8948.4141
8934.4112
8920.9044
8907.8714
8895.2789
8883.0873
8871.2686
8859.8099
8848.6919
8837.8903
8827.3644
8817.1115
8807.0183
8797.2832
8787.113
8778.2014
8763.4785
414.14198
169.31857
95.904604
70.898872
61.06817
56.356754
53.641535
51.868204
50.621189
49.703752
49.007572
48.46671
48.03839
47.693619
47.412064
47.179129
46.983846
46.818775
46.67493
46.558908
46.419224
46.464037
45.699793
54.269048
11920.11
16168.222
13515.317
11447.785
10546.704
10131.716
9883.2267
9699.9471
9554.6586
9436.5007
9338.0471
9254.0265
9180.5727
9115.6385
9057.3568
9004.5015
8956.1486
8911.6023
8870.3412
8831.9181
8795.9575
8762.1773
8730.289
8700.0797
8671.3789
8644.0072
8617.8557
8592.8159
8568.7633
8545.6197
8523.3174
8501.7678
8480.908
8460.7018
8441.0898
8422.0051
8403.422
8385.322
8367.6483
8350.3479
8333.4689
8317.0153
8300.9033
8285.0767
8269.5322
8254.2606
8239.2237
8224.392
8209.7625
8195.3313
8181.0752
8166.9661
8152.9909
8139.1561
8125.4504
8111.8465
8098.3307
8084.9037
8071.5598
8058.284
8045.0587
8031.8733
8018.7316
8005.6259
7992.5362
7979.452
7966.371
7953.2883
7940.1936
7927.0712
7913.9098
7900.7086
7887.4607
7874.1465
7860.7584
7847.2897
7833.7336
7820.0703
7806.281
7792.358
7778.2956
7764.0698
7749.6547
7735.0448
7720.2259
7705.1655
7689.842
7674.2459
7658.347
7642.454
7627.09
7612.4282
7598.5071
7585.1694
7572.3692
7560.0595
7548.197
7536.7562
7525.7174
7515.0524
7504.7279
7494.7201
7485.0178
7475.6042
7466.4587
7457.5467
7448.8668
7440.3197
7432.0808
7423.4565
7415.9222
7403.4268
414.13432
169.40209
95.948527
70.806749
60.835987
56.019362
53.22867
51.399641
50.110154
49.159523
48.436904
47.874645
47.428758
47.069369
46.775499
46.532061
46.327717
46.154716
46.003936
45.881459
45.736706
45.775983
44.997365
51.627901
9112.1826
13650.457
12023.436
10119.803
9186.7388
8747.5674
8493.4208
8312.4208
8171.5693
8058.2551
7964.6995
7885.5124
7816.6702
7756.3015
7702.608
7654.2469
7610.2243
7569.8286
7532.554
7497.9636
7465.7259
7435.5553
7407.1514
7380.3035
7354.8503
7330.6237
7307.5177
7285.4301
7264.2497
7243.8998
7224.3163
7205.4215
7187.1548
7169.4793
7152.3457
7135.6935
7119.4928
7103.7287
7088.3546
7073.32
7058.6384
7044.324
7030.322
7016.5799
7003.0908
6989.8492
6976.823
6963.9833
6951.3254
6938.8474
6926.5303
6914.3483
6902.288
6890.3546
6878.5408
6866.8219
6855.1841
6843.628
6832.1501
6820.7368
6809.3723
6798.0468
6786.764
6775.5179
6764.2905
6753.072
6741.861
6730.6537
6719.4405
6708.208
6696.9466
6685.656
6674.3298
6662.9509
6651.5273
6640.0435
6628.4896
6616.8484
6605.1047
6593.2519
6581.2849
6569.183
6556.9251
6544.5064
6531.9143
6519.1217
6506.1105
6492.8721
6479.3816
6465.9013
6452.8738
6440.439
6428.6069
6417.2754
6406.4032
6395.95
6385.879
6376.1683
6366.8003
6357.7509
6348.9922
6340.5039
6332.2759
6324.2935
6316.5394
6308.9842
6301.6272
6294.3818
6287.4021
6280.0854
6273.7132
6263.0945
414.12631
169.48771
95.99753
70.716822
60.595873
55.663186
52.788139
50.8965
49.559099
48.570911
47.818302
47.231718
46.765821
46.389758
46.081821
45.82637
45.611656
45.429571
45.270846
45.140931
44.990652
45.020962
44.246967
49.249929
6557.3072
11281.095
10646.33
9001.1833
8063.0178
7601.023
7337.8753
7156.5058
7018.2256
6908.2263
6818.2014
6742.6026
6677.3721
6620.6765
6570.7705
6526.1324
6485.7018
6448.7486
6414.776
6383.3561
6354.2115
6327.0396
6301.523
6277.4546
6254.6818
6233.0461
6212.4452
6192.7818
6173.955
6155.8918
6138.5304
6121.8017
6105.6488
6090.0341
6074.9152
6060.2386
6045.9718
6032.1009
6018.5881
6005.3873
5992.491
5979.9145
5967.6232
5955.5706
5943.7463
5932.1465
5920.7454
5909.5157
5898.4504
5887.5484
5876.7948
5866.1666
5855.6498
5845.2481
5834.9567
5824.7548
5814.6284
5804.5772
5794.5988
5784.6823
5774.8131
5764.982
5755.1917
5745.438
5735.7055
5725.9846
5716.2738
5706.5704
5696.8663
5687.1495
5677.4116
5667.6519
5657.8656
5648.0378
5638.1944
5628.3075
5618.3644
5608.3504
5598.2525
5588.0653
5577.7841
5567.3913
5556.8693
5546.2135
5535.4134
5524.446
5513.2959
5501.9553
5490.4038
5478.8662
5467.7203
5457.0812
5446.9424
5437.2364
5427.9268
5418.9786
5410.3601
5402.0522
5394.0393
5386.3006
5378.8124
5371.5571
5364.5256
5357.7053
5351.0813
5344.6283
5338.3462
5332.1597
5326.2032
5319.9555
5314.5305
5305.438
414.11808
169.57381
96.051586
70.631697
60.351944
55.292541
52.323948
50.362382
48.971243
47.940793
47.154338
46.540232
46.051648
45.656645
45.332705
45.063574
44.837035
44.644583
44.476787
44.338324
44.18212
44.198736
43.461291
47.123419
4481.0032
9134.0052
9353.1343
8039.4147
7132.7377
6652.8399
6378.3388
6194.2354
6056.851
5948.8567
5861.227
5788.2091
5725.8803
5672.2496
5625.5858
5584.1277
5546.765
5512.7505
5481.589
5452.8612
5426.3343
5401.6877
5378.5953
5356.8558
5336.324
5316.85
5298.3363
5280.6887
5263.8146
5247.6458
5232.1224
5217.1819
5202.7718
5188.8542
5175.391
5162.3359
5149.6554
5137.3347
5125.3433
5113.6406
5102.207
5091.0538
5080.1602
5069.4869
5059.0206
5048.758
5038.6787
5028.7582
5018.9871
5009.3641
4999.8778
4990.5086
4981.2423
4972.08
4963.019
4954.0426
4945.1371
4936.3005
4927.5311
4918.8206
4910.1562
4901.5285
4892.9389
4884.385
4875.854
4867.3366
4858.8306
4850.3339
4841.8403
4833.3391
4824.8224
4816.289
4807.7357
4799.1496
4790.5704
4781.9596
4773.3035
4764.5894
4755.8057
4746.9476
4738.0112
4728.9818
4719.8437
4710.593
4701.2207
4691.7073
4682.0391
4672.2096
4662.2014
4652.2096
4642.5606
4633.3509
4624.5644
4616.1555
4608.0927
4600.3452
4592.8854
4585.6964
4578.7642
4572.071
4565.596
4559.3239
4553.2466
4547.353
4541.6302
4536.0565
4530.6319
4525.2909
4520.1504
4514.7612
4510.0946
4502.2193
414.10977
169.65849
96.110445
70.554138
60.109129
54.913025
51.841628
49.802541
48.351528
47.273808
46.449371
45.804294
45.290118
44.873707
44.531647
44.247002
44.007039
43.802803
43.624698
43.476436
43.313963
43.311003
42.653239
45.21696
2899.2611
7316.4222
8149.5945
7198.9979
6361.0109
5869.8275
5582.608
5393.6849
5255.6386
5148.4835
5062.2825
4991.0254
4931.1176
4880.1371
4836.2687
4797.5403
4762.8172
4731.3355
4702.5939
4676.1803
4651.8241
4629.2387
4608.1294
4588.3006
4569.6119
4551.9189
4535.128
4519.1467
4503.8883
4489.2889
4475.2897
4461.8328
4448.8703
4436.363
4424.2761
4412.5696
4401.2094
4390.1793
4379.4544
4368.9993
4358.7868
4348.8234
4339.0977
4329.5771
4320.2461
4311.1011
4302.1266
4293.3004
4284.6114
4276.0575
4267.6304
4259.3135
4251.0923
4242.9659
4234.9329
4226.9805
4219.095
4211.2731
4203.5135
4195.81
4188.1516
4180.5285
4172.9411
4165.3884
4157.8599
4150.3463
4142.845
4135.3544
4127.8698
4120.3817
4112.8823
4105.3703
4097.8436
4090.2915
4082.7389
4075.1594
4067.5428
4059.8781
4052.1548
4044.3683
4036.5156
4028.5843
4020.5602
4012.4395
4004.2151
3995.87
3987.3919
3978.7751
3970.005
3961.2523
3952.8026
3944.7386
3937.038
3929.6698
3922.6066
3915.8218
3909.2906
3902.9977
3896.931