/*--------------------------------*- C++ -*----------------------------------*\
  =========                 |
  \\      /  F ield         | OpenFOAM: The Open Source CFD Toolbox
   \\    /   O peration     | Website:  https://openfoam.org
    \\  /    A nd           | Version:  12
     \\/     M anipulation  |
\*---------------------------------------------------------------------------*/
FoamFile
{
    format      ascii;
    class       volScalarField;
    location    "1400";
    object      p;
}
// * * * * * * * * * * * * * * * * * * * * * * * * * * * * * * * * * * * * * //

dimensions      [0 2 -2 0 0 0 0];

internalField   nonuniform List<scalar> 
7480
(
0.0053224069
0.0052834189
0.0051751387
0.0051426505
0.0051597001
0.0051941229
0.0052419578
0.0053069609
0.0053955282
0.0055146989
0.0056850884
0.0059235905
0.0063922709
0.006817648
0.006759926
0.006325855
0.005858539
0.0054884698
0.005172874
0.0048906467
0.004644949
0.0044348903
0.0042572637
0.0040905092
0.0039237359
0.0037618147
0.0036086264
0.003477275
0.0033647564
0.0032576493
0.0031596304
0.0030739138
0.0029995557
0.0029356398
0.0028806569
0.0028328396
0.0027906277
0.0027541195
0.002722138
0.002692056
0.0026634454
0.0026364023
0.0026110675
0.0025861247
0.0025598093
0.00253198
0.002503088
0.0024743424
0.0024450997
0.0024141951
0.0023810469
0.0023451987
0.0023083633
0.0022710138
0.0022319028
0.0021912052
0.0021500134
0.0021100407
0.0020706732
0.0020298413
0.0019880296
0.0019462636
0.0019055891
0.0018648382
0.0018227711
0.0017805758
0.0017395096
0.0016986004
0.0016563392
0.0016134247
0.0015709135
0.0015280402
0.0014839887
0.0014394862
0.0013952352
0.0013505614
0.0013047549
0.0012584963
0.0012116547
0.0011641337
0.0011157243
0.0010668379
0.0010176369
0.00096711681
0.00091603562
0.00086439269
0.00081144589
0.00075831448
0.00070459258
0.00064964465
0.000594695
0.00053922288
0.0004832343
0.00042780092
0.00037411157
0.00032002682
0.00028139121
0.00022268268
0.00035999925
-0.0002414205
0.0052598776
0.0052211843
0.0051487197
0.0051268902
0.0051474422
0.0051860505
0.0052360696
0.0053020251
0.0053909949
0.0055101866
0.0056790797
0.0059146697
0.0063426563
0.006715855
0.0066577277
0.0062993849
0.005886432
0.0055412641
0.0052386919
0.0049602734
0.0047154266
0.0045011226
0.0043095929
0.0041288728
0.0039561439
0.0037925199
0.0036412518
0.0035093248
0.0033933732
0.0032848984
0.0031861482
0.0030997008
0.0030244621
0.0029593206
0.0029028483
0.0028534115
0.0028095388
0.0027715249
0.0027383227
0.002707182
0.00267746
0.0026492566
0.0026228537
0.002597007
0.0025697908
0.0025410734
0.0025114297
0.0024820282
0.0024521926
0.0024207549
0.002387179
0.0023509789
0.002313819
0.0022761731
0.002236793
0.0021958584
0.0021544563
0.0021143113
0.0020747894
0.0020337926
0.0019918127
0.0019498821
0.0019090498
0.0018681422
0.00182592
0.0017835756
0.0017423675
0.001701322
0.0016589288
0.0016158896
0.0015732611
0.0015302754
0.0014861163
0.0014415121
0.0013971643
0.0013523974
0.0013065022
0.0012601607
0.0012132404
0.001165645
0.0011171645
0.0010682104
0.0010189447
0.00096836279
0.00091722382
0.00086552603
0.00081252706
0.00075934629
0.00070557685
0.00065058389
0.00059559211
0.00054007975
0.00048405326
0.00042858373
0.00037486156
0.00032074395
0.00028206779
0.00022339249
0.00036082919
-0.00024082654
0.005218174
0.0052040509
0.0051589938
0.0051373323
0.005154027
0.0051919264
0.0052408582
0.0053053614
0.0053927893
0.0055102409
0.0056749529
0.0059036635
0.0062707091
0.0065848653
0.0065458215
0.0062305917
0.0058390053
0.0054975829
0.0051985461
0.0049247223
0.0046831615
0.0044715297
0.0042825761
0.0041087033
0.0039447045
0.0037889911
0.0036454003
0.0035171125
0.0034024534
0.0032972622
0.0032010009
0.0031154821
0.0030408306
0.002975939
0.0029193945
0.0028696777
0.0028255181
0.0027868399
0.0027525131
0.002720426
0.002689869
0.0026607696
0.0026335427
0.0026071086
0.0025794183
0.0025501631
0.0025199298
0.002489959
0.0024596603
0.0024275096
0.0023931519
0.0023564903
0.0023190162
0.002281125
0.0022415148
0.0022003741
0.0021587954
0.0021185097
0.0020788531
0.0020377051
0.0019955667
0.0019534866
0.0019125197
0.0018714764
0.0018291169
0.0017866417
0.0017453129
0.0017041509
0.0016616381
0.001618482
0.0015757432
0.0015326506
0.0014883882
0.0014436865
0.0013992465
0.0013543901
0.0013084077
0.0012619838
0.0012149848
0.0011673146
0.0011187624
0.0010697401
0.0010204086
0.00096976252
0.00091856373
0.00086680886
0.0008137551
0.00076052287
0.00070670315
0.00065166188
0.00059662512
0.00054106944
0.00048500194
0.0004294932
0.00037573494
0.00032157925
0.00028287513
0.0002242898
0.00036174375
-0.00024009216
0.0051850597
0.0051841995
0.0051491723
0.0051293176
0.0051453495
0.0051833719
0.0052327508
0.0052973408
0.0053843271
0.0055005675
0.0056607421
0.005879536
0.0061954033
0.006468457
0.0064494255
0.0061697488
0.0058042564
0.0054772453
0.0051907934
0.0049272033
0.0046908311
0.0044819323
0.0042939147
0.0041210073
0.0039567453
0.0037999915
0.0036546918
0.0035239178
0.0034076869
0.0033023481
0.0032056875
0.0031193963
0.0030445497
0.0029800342
0.0029243169
0.002875875
0.0028333676
0.0027955647
0.0027613348
0.002729682
0.0026997216
0.0026709137
0.0026430219
0.002615442
0.0025871145
0.0025574498
0.0025267614
0.0024963547
0.0024657583
0.0024331411
0.0023982467
0.0023612837
0.0023236015
0.0022856213
0.0022459337
0.0022046873
0.0021629697
0.0021224198
0.0020824974
0.0020412074
0.001998959
0.0019567868
0.0019157411
0.0018746055
0.0018321414
0.0017895704
0.00174815
0.0017068848
0.0016642615
0.001620999
0.0015781616
0.0015349734
0.001490617
0.0014458262
0.0014013033
0.001356366
0.001310302
0.0012637996
0.001216725
0.0011689831
0.0011203614
0.0010712735
0.001021879
0.00097117008
0.00091991294
0.00086810216
0.0008149942
0.00076171142
0.0007078418
0.00065275219
0.00059767083
0.00054207191
0.00048596308
0.00043041484
0.00037661918
0.00032242457
0.00028369451
0.0002250807
0.00036260224
-0.00023939356
0.0051543193
0.0051614244
0.0051372855
0.0051247442
0.0051427998
0.0051813339
0.0052312388
0.0052956507
0.005381473
0.0054952941
0.0056494681
0.0058544183
0.0061295983
0.0063659095
0.0063567408
0.0061067271
0.0057672947
0.0054546248
0.0051779135
0.0049211736
0.0046877406
0.0044800454
0.0042926743
0.0041203433
0.0039568866
0.0038015711
0.0036577977
0.0035283054
0.0034130624
0.003308377
0.0032119924
0.0031256667
0.0030505195
0.0029854091
0.0029288677
0.0028795492
0.0028361608
0.0027972982
0.002762358
0.0027307807
0.0027014867
0.0026737782
0.0026468138
0.0026197655
0.0025920583
0.0025632113
0.0025332567
0.0025026025
0.0024710414
0.0024379208
0.0024028377
0.0023657294
0.0023278741
0.0022898009
0.0022500907
0.0022087718
0.002166866
0.002125999
0.002085875
0.0020445364
0.0020022337
0.0019599865
0.001918875
0.0018776779
0.0018351407
0.0017925147
0.0017509899
0.0017095589
0.0016668069
0.0016234628
0.0015805587
0.0015373003
0.0014928695
0.0014480074
0.0014034145
0.0013583999
0.001312256
0.0012656781
0.0012185301
0.0011707186
0.0011220288
0.0010728778
0.0010234224
0.00097265029
0.00092133369
0.00086946552
0.00081630146
0.00076296721
0.00070904674
0.00065390696
0.00059877934
0.00054313516
0.00048698269
0.00043139293
0.00037755683
0.00032332143
0.00028455694
0.00022585905
0.00036345295
-0.00023860125
0.0051258069
0.0051390651
0.0051254909
0.0051196221
0.0051383734
0.0051760133
0.0052254578
0.0052890368
0.005373089
0.0054837979
0.0056310522
0.0058218658
0.0060628388
0.0062657608
0.0062621048
0.0060404216
0.0057273594
0.005429436
0.0051624234
0.0049133636
0.0046847898
0.0044798636
0.0042945234
0.0041238176
0.0039620356
0.0038085044
0.003666077
0.0035372094
0.003421875
0.0033169215
0.0032204185
0.0031338608
0.003058245
0.0029925278
0.0029353099
0.0028852917
0.0028411605
0.0028015834
0.002765984
0.0027336704
0.0027035194
0.0026749187
0.0026472045
0.0026196446
0.0025917536
0.002563266
0.0025341621
0.0025042096
0.0024731268
0.0024407345
0.0024065508
0.0023703283
0.0023325721
0.0022937846
0.0022536294
0.0022121838
0.0021701732
0.0021292438
0.0020891542
0.0020478576
0.0020054808
0.0019630597
0.0019218449
0.0018806441
0.0018380799
0.0017953954
0.001753742
0.0017121517
0.0016692946
0.0016259004
0.0015829564
0.0015396441
0.0014951521
0.0014502417
0.0014055743
0.0013604449
0.00131421
0.0012675729
0.001220369
0.0011725027
0.0011237567
0.001074549
0.0010250327
0.0009741979
0.00092282312
0.00087089855
0.0008176788
0.00076429474
0.00071032423
0.00065513312
0.00059995777
0.00054426656
0.00048806872
0.0004324363
0.00037855704
0.00032427901
0.00028547052
0.00022668326
0.00036429572
-0.00023763854
0.0050993492
0.0051173119
0.0051126724
0.005112574
0.005132299
0.0051695873
0.005219037
0.0052821797
0.0053646216
0.0054720068
0.0056120047
0.0057887111
0.005999999
0.0061734143
0.0061726772
0.0059765963
0.0056882986
0.0054047447
0.00514716
0.0049057636
0.0046821884
0.0044797718
0.0042961016
0.0041264634
0.003965885
0.00381363
0.0036721376
0.0035436757
0.0034283068
0.00332339
0.0032271286
0.0031406317
0.0030647943
0.0029987217
0.0029410673
0.0028905547
0.0028459149
0.0028058921
0.0027698261
0.0027370028
0.0027063819
0.0026773476
0.0026492373
0.0026212946
0.0025929889
0.0025640175
0.0025343276
0.0025038506
0.0024725196
0.0024401354
0.0024063268
0.0023709347
0.0023339145
0.0022954284
0.0022557799
0.0022151571
0.0021739152
0.0021330004
0.0020922321
0.0020505614
0.0020081033
0.001965656
0.0019245054
0.0018833694
0.0018408234
0.0017980143
0.0017562413
0.0017146376
0.0016717723
0.0016283268
0.0015853117
0.0015419389
0.0014973923
0.0014524449
0.0014077052
0.0013624618
0.0013161465
0.00126947
0.0012222277
0.0011743195
0.0011255312
0.0010762539
0.0010266503
0.00097575368
0.00092433323
0.00087236415
0.00081909843
0.00076566933
0.00071164738
0.00065640572
0.00060118387
0.00054544639
0.00048920412
0.00043352991
0.00037960583
0.00032528401
0.00028642301
0.00022754497
0.00036509878
-0.00023648336
0.0050746109
0.0050960946
0.0050988784
0.0051040964
0.0051252529
0.0051623911
0.0052116075
0.0052739336
0.0053542493
0.0054576015
0.0055897336
0.0057522469
0.0059374483
0.0060850803
0.0060851986
0.0059115571
0.0056465423
0.0053774846
0.0051294791
0.0048958718
0.0046774817
0.0044780972
0.0042964172
0.0041282154
0.0039691892
0.0038185227
0.0036783018
0.0035505993
0.0034355311
0.0033308491
0.0032348593
0.0031483827
0.0030722645
0.0030057544
0.0029475594
0.0028964397
0.0028511825
0.0028105855
0.0027739416
0.0027405573
0.0027094559
0.0026799857
0.0026514823
0.0026231904
0.002594582
0.0025653569
0.0025354518
0.0025048071
0.0024732985
0.0024406514
0.0024064966
0.0023707066
0.0023333377
0.0022947263
0.0022553173
0.0022153245
0.0021750812
0.0021346828
0.0020939104
0.0020526468
0.0020108252
0.0019688602
0.0019273862
0.0018855547
0.0018428836
0.0018000888
0.0017584172
0.0017169117
0.0016740963
0.001630564
0.0015874613
0.0015440895
0.0014995368
0.0014545388
0.0014097299
0.0013644356
0.0013180795
0.0012713681
0.001224081
0.001176126
0.0011272986
0.0010779547
0.0010282687
0.00097731785
0.00092586377
0.00087386165
0.00082056021
0.00076707135
0.0007129772
0.00065768956
0.00060243089
0.00054665563
0.00049037344
0.00043465696
0.00038068657
0.00032632174
0.00028740118
0.00022842743
0.00036583085
-0.00023511522
0.0050512909
0.005075411
0.0050843256
0.0050943613
0.0051171006
0.0051540935
0.0052028473
0.0052641486
0.0053421365
0.0054411691
0.0055653093
0.0057140943
0.0058765025
0.006001835
0.0060014111
0.0058473182
0.0056042517
0.0053497551
0.0051113569
0.0048854678
0.0046724811
0.0044764172
0.0042968797
0.0041302507
0.0039727939
0.0038236625
0.0036846448
0.0035576298
0.0034427857
0.0033382161
0.0032423684
0.0031558474
0.0030794329
0.0030124858
0.0029537663
0.0029020705
0.0028562319
0.0028150939
0.0027779187
0.0027440188
0.0027124552
0.0026825465
0.0026536371
0.002624999
0.0025961106
0.0025666702
0.0025365964
0.0025058085
0.002474155
0.0024413709
0.0024071201
0.0023712766
0.0023338921
0.0022952659
0.0022557506
0.0022155273
0.0021749838
0.0021342289
0.0020934259
0.0020526653
0.002011688
0.0019705627
0.0019291238
0.0018872251
0.0018450125
0.0018026984
0.0017608781
0.0017187547
0.0016757638
0.0016322762
0.0015893042
0.0015460298
0.0015015152
0.0014564408
0.0014115846
0.001366323
0.0013199622
0.0012732002
0.0012258597
0.0011778654
0.0011290031
0.0010796174
0.0010298871
0.00097889449
0.00092740902
0.00087537081
0.00082203155
0.00076848245
0.00071432122
0.00065899357
0.00060370583
0.00054790163
0.00049157182
0.00043579614
0.00038177675
0.00032737637
0.0002883943
0.00022931933
0.00036645972
-0.00023350586
0.0050291155
0.0050552152
0.0050691348
0.0050834166
0.0051077619
0.005144655
0.0051928218
0.0052529338
0.0053283916
0.0054228128
0.0055388355
0.0056743723
0.0058166248
0.0059225577
0.0059205844
0.0057833167
0.0055607067
0.0053206014
0.005091766
0.0048735225
0.0046661486
0.0044736656
0.0042964612
0.0041315771
0.0039757801
0.0038282436
0.0036905017
0.0035642719
0.0034497715
0.0033454141
0.0032497926
0.0031633245
0.0030867018
0.0030193783
0.0029601774
0.0029079337
0.0028615257
0.0028198437
0.0027821295
0.0027476968
0.0027156442
0.0026852765
0.0026559486
0.0026269571
0.0025977787
0.0025681027
0.0025378252
0.0025068535
0.0024750346
0.0024421192
0.0024077896
0.0023719156
0.0023345359
0.0022959208
0.0022563993
0.0022161709
0.0021756005
0.0021348104
0.0020939624
0.0020530418
0.0020118053
0.0019703546
0.0019286996
0.0018871971
0.0018458351
0.001804323
0.0017625554
0.0017202873
0.001677569
0.0016344627
0.0015913269
0.0015475135
0.0015028999
0.0014579193
0.0014132055
0.0013680257
0.0013216771
0.0012748665
0.001227523
0.0011795408
0.0011306447
0.0010812128
0.0010314586
0.00098043904
0.00092892179
0.0008768417
0.00082346277
0.00076988224
0.0007156858
0.00066032031
0.00060500222
0.00054916761
0.00049278621
0.00043695231
0.00038288685
0.00032845717
0.00028940864
0.00023021371
0.00036694166
-0.00023162472
0.0050078554
0.005035437
0.0050533936
0.0050713359
0.0050972369
0.0051340685
0.0051815265
0.0052402516
0.0053129654
0.0054025474
0.0055104539
0.0056333731
0.005757779
0.0058469098
0.005842858
0.0057200316
0.0055163777
0.0052904322
0.0050711771
0.0048605606
0.0046589861
0.0044703407
0.0042956797
0.0041327125
0.0039786726
0.0038327865
0.0036963712
0.0035709857
0.0034568922
0.0033527758
0.0032573741
0.0031709513
0.0030941106
0.0030263919
0.0029666908
0.002913882
0.0028668877
0.0028246433
0.0027863765
0.0027514007
0.0027188503
0.0026880209
0.0026582738
0.0026289249
0.00259945
0.0025695313
0.0025390469
0.0025078962
0.002475924
0.0024428855
0.0024084741
0.0023725536
0.0023351591
0.0022965452
0.0022570347
0.0022168369
0.0021762953
0.0021355338
0.0020946843
0.0020537181
0.0020124265
0.0019709055
0.0019291944
0.0018875954
0.001846028
0.0018042076
0.0017622259
0.0017203669
0.0016784519
0.0016360355
0.0015929116
0.0015489379
0.0015045388
0.001459802
0.0014148192
0.0013692027
0.0013228874
0.0012762132
0.00122898
0.0011810524
0.0011321323
0.001082687
0.0010329638
0.00098193015
0.00093037071
0.00087826235
0.00082485649
0.00077125394
0.00071702819
0.00066162941
0.00060628418
0.00055041476
0.00049399373
0.00043812746
0.00038402124
0.00032955972
0.00029042887
0.00023110708
0.0003672597
-0.00022942162
0.004987317
0.0050159913
0.0050371629
0.0050581928
0.0050855301
0.0051223039
0.0051689336
0.0052260825
0.0052958739
0.0053804775
0.0054803767
0.0055913822
0.0056999368
0.0057745059
0.0057681022
0.0056575799
0.0054713254
0.0052591771
0.0050494794
0.0048464344
0.0046507703
0.004466179
0.0042942545
0.004133358
0.0039811659
0.0038369811
0.0037019399
0.0035774587
0.003463841
0.0033600106
0.0032648476
0.0031784959
0.0031014721
0.0030333891
0.0029732163
0.0029198681
0.0028723072
0.0028295119
0.0027907019
0.00275519
0.0027221431
0.0026908522
0.0026606829
0.0026309704
0.0026011922
0.0025710248
0.0025403295
0.0025089965
0.0024768659
0.0024436966
0.0024091948
0.002373223
0.0023358144
0.0022972077
0.0022577132
0.0022175395
0.0021770066
0.0021362443
0.0020953762
0.002054389
0.0020131047
0.0019716032
0.001929912
0.0018882794
0.0018466251
0.0018047075
0.0017626377
0.0017206741
0.0016785567
0.0016358902
0.0015927195
0.0015493274
0.001505647
0.0014613502
0.0014162795
0.0013705138
0.001324407
0.0012776983
0.0012301381
0.0011820952
0.0011332753
0.0010839555
0.0010343043
0.00098326648
0.0009316941
0.00087962132
0.00082620922
0.0007725732
0.00071832549
0.00066290666
0.00060753747
0.00055163272
0.00049518117
0.00043929408
0.00038514732
0.00033065328
0.00029142446
0.00023198705
0.00036738506
-0.00022684408
0.0049673329
0.0049967871
0.0050204799
0.0050440527
0.0050726524
0.0051093389
0.0051550312
0.0052104337
0.0052771552
0.0053567047
0.0054487775
0.0055486038
0.0056430473
0.0057049893
0.0056961593
0.0055960948
0.0054257115
0.0052269178
0.0050267426
0.0048312245
0.0046415619
0.0044612377
0.0042922549
0.0041335922
0.0039833535
0.0038409351
0.0037073267
0.0035838184
0.003470751
0.0033672577
0.0032723572
0.0031861009
0.003108922
0.0030404942
0.0029798613
0.0029259798
0.0028778524
0.002834499
0.0027951373
0.0027590806
0.0027255252
0.0026937621
0.0026631606
0.0026330746
0.0026029843
0.00257256
0.0025416469
0.0025101254
0.002477831
0.0024445273
0.002409933
0.0023739099
0.0023364871
0.0022978868
0.0022584055
0.0022182516
0.0021777264
0.0021369675
0.0020960922
0.0020550945
0.0020138102
0.0019723015
0.0019306001
0.0018889372
0.0018472624
0.0018053583
0.0017632977
0.0017212867
0.0016790664
0.0016362893
0.0015930178
0.0015495308
0.001505637
0.0014611996
0.001416396
0.0013712658
0.0013257064
0.0012791215
0.0012313988
0.0011833636
0.0011346178
0.0010850834
0.001035216
0.00098425093
0.00093281549
0.00088082209
0.00082742063
0.00077377676
0.0007195594
0.00066413718
0.00060873858
0.00055281422
0.00049634364
0.00044043452
0.00038624677
0.00033172624
0.00029238965
0.00023283236
0.00036725262
-0.00022384364
0.004947757
0.0049777332
0.0050033625
0.0050289722
0.0050586226
0.0050951617
0.0051398154
0.0051933208
0.005256853
0.0053313285
0.0054158174
0.0055052144
0.0055870829
0.0056380707
0.0056268749
0.0055356919
0.0053796979
0.0051937288
0.0050030013
0.0048149565
0.0046313507
0.0044554755
0.0042896252
0.0041333487
0.0039851636
0.0038445739
0.0037124536
0.0035899822
0.0034775343
0.0033744273
0.0032798127
0.0031936742
0.0031163674
0.0030476161
0.0029865388
0.0029321368
0.0028834515
0.0028395426
0.002799631
0.0027630309
0.0027289653
0.0026967281
0.0026656928
0.0026352299
0.0026048235
0.0025741378
0.0025430027
0.002511289
0.0024788285
0.0024453889
0.0024107005
0.0023746243
0.0023371848
0.0022985887
0.0022591191
0.0022189845
0.002178469
0.0021377151
0.0020968334
0.0020558221
0.0020145313
0.0019730129
0.0019313067
0.0018896264
0.0018479335
0.0018060187
0.0017639352
0.0017218784
0.0016796287
0.0016368567
0.0015935881
0.0015500442
0.0015060433
0.0014614933
0.0014165875
0.0013713087
0.0013256135
0.0012792016
0.0012319756
0.0011844481
0.0011359827
0.0010863068
0.001036295
0.00098543554
0.00093386348
0.00088163092
0.00082829537
0.00077478326
0.00072064066
0.00066522985
0.00060983426
0.0005539431
0.00049746539
0.00044152722
0.00038730861
0.00033277031
0.00029331683
0.0002336255
0.00036680123
-0.00022034777
0.0049284613
0.0049587417
0.0049858138
0.0050129981
0.0050434647
0.0050797699
0.0051232887
0.0051747676
0.0052350214
0.0053044532
0.00538165
0.0054613656
0.0055320216
0.0055734983
0.0055600793
0.0054764455
0.0053334298
0.0051596853
0.0049782905
0.004797662
0.0046201444
0.0044488761
0.0042863434
0.0041326057
0.0039865797
0.0038478886
0.0037173179
0.0035959523
0.0034841968
0.003381531
0.0032872326
0.003201239
0.0031238354
0.0030547865
0.0029932843
0.0029383767
0.0028891429
0.0028446813
0.0028042199
0.0027670749
0.0027324941
0.0026997774
0.0026683023
0.0026374551
0.0026067247
0.0025757696
0.0025444056
0.002512494
0.0024798628
0.0024462836
0.0024114974
0.0023753648
0.0023379056
0.0022993118
0.0022598533
0.0022197371
0.0021792314
0.0021384816
0.0020975927
0.0020565669
0.0020152696
0.0019737444
0.0019320357
0.001890338
0.0018486215
0.0018066896
0.0017645861
0.0017224954
0.0016802174
0.0016374295
0.0015941399
0.0015505624
0.0015065537
0.0014620103
0.0014170778
0.0013717098
0.0013258932
0.0012793719
0.0012320115
0.0011843859
0.001136107
0.0010868253
0.0010372505
0.0009867251
0.00093501578
0.0008825645
0.00082931561
0.0007757148
0.00072137908
0.00066602659
0.00061076135
0.0005549335
0.00049846334
0.00044252793
0.00038831479
0.00033376527
0.00029418944
0.00023435026
0.00036596899
-0.0002162705
0.0049093327
0.0049397296
0.0049678262
0.0049961685
0.0050272063
0.0050631699
0.0051054613
0.0051548066
0.0052117239
0.0052761855
0.0053464179
0.0054171844
0.0054778415
0.005511054
0.0054956028
0.0054184035
0.0052870467
0.0051248756
0.0049526547
0.0047793776
0.004607958
0.0044414278
0.0042823858
0.0041313348
0.0039875726
0.0038508516
0.0037218928
0.0036017011
0.0034907091
0.0033885399
0.0032945901
0.0032087684
0.0031312986
0.0030619784
0.0030000708
0.0029446725
0.0028949001
0.0028498891
0.0028088786
0.0027711886
0.0027360894
0.0027028892
0.0026709705
0.0026397339
0.0026086738
0.0025774435
0.0025458457
0.0025137322
0.0024809274
0.0024472064
0.00241232
0.0023761289
0.0023386482
0.0023000556
0.0022606078
0.0022205093
0.0021800133
0.0021392673
0.0020983715
0.0020573321
0.0020160287
0.001974497
0.0019327843
0.0018910679
0.0018493266
0.0018073788
0.0017652584
0.0017231347
0.0016808232
0.0016380134
0.0015947054
0.0015511033
0.0015070791
0.0014625211
0.0014175605
0.001372175
0.001326347
0.0012798062
0.0012323844
0.0011846535
0.0011362628
0.0010868392
0.0010372068
0.00098692327
0.00093554581
0.00088346003
0.00083051158
0.00077677355
0.00072221252
0.00066692522
0.00061159105
0.00055560124
0.00049920144
0.00044337473
0.00038918757
0.00033464769
0.00029497707
0.00023497818
0.00036468361
-0.00021151539
0.0048902711
0.0049206198
0.0049493851
0.0049785134
0.0050098774
0.0050453763
0.0050863519
0.0051334785
0.005187031
0.0052466318
0.0053102527
0.0053727791
0.0054245221
0.0054505502
0.0054332812
0.0053615898
0.0052406755
0.0050893925
0.0049261411
0.0047601387
0.004594808
0.0044331209
0.0042777288
0.0041295079
0.0039881142
0.0038534374
0.0037261555
0.0036072073
0.0034970513
0.003395437
0.0033018723
0.0032162528
0.0031387497
0.0030691874
0.0030068969
0.0029510253
0.0029007264
0.002855172
0.0028136149
0.0027753812
0.0027397616
0.0027060749
0.0026737088
0.0026420777
0.0026106817
0.0025791699
0.0025473327
0.0025150123
0.00248203
0.0024481639
0.0024131741
0.0023769219
0.002339417
0.0023008236
0.0022613851
0.002221303
0.0021808165
0.0021400739
0.0020991714
0.0020581187
0.0020168086
0.0019752699
0.0019335522
0.0018918173
0.0018500518
0.0018080879
0.0017659497
0.0017237914
0.0016814447
0.0016386138
0.0015952902
0.0015516633
0.0015076179
0.0014630425
0.00141806
0.0013726557
0.0013268013
0.0012802373
0.0012328158
0.0011850691
0.001136651
0.0010871768
0.0010374433
0.0009870452
0.00093552154
0.00088345177
0.00083080193
0.00077736723
0.00072310177
0.00066802118
0.00061250785
0.00055632444
0.00049997174
0.00044407972
0.00038978084
0.00033532751
0.00029561668
0.00023543075
0.00036283477
-0.00020597631
0.0048711876
0.004901342
0.0049304718
0.0049600566
0.004991509
0.0050264114
0.0050659868
0.0051108309
0.0051610186
0.005215898
0.0052732764
0.0053282416
0.0053720426
0.0053918236
0.0053729578
0.0053060079
0.0051944287
0.0050533314
0.0048988014
0.004739982
0.0045807152
0.0044239517
0.0042723529
0.0041270993
0.0039881779
0.0038556212
0.0037300829
0.0036124486
0.0035032011
0.0034022015
0.0033090617
0.0032236763
0.0031461739
0.0030764001
0.0030137508
0.0029574244
0.0029066124
0.0028605214
0.0028184213
0.0027796453
0.0027435039
0.0027093278
0.002676511
0.0026444804
0.0026127429
0.0025809435
0.0025488612
0.0025163296
0.0024831661
0.0024491523
0.0024140563
0.0023777404
0.002340209
0.0023016132
0.0022621832
0.0022221164
0.0021816395
0.0021409002
0.0020999913
0.0020589257
0.0020176086
0.0019760629
0.0019343397
0.0018925868
0.0018507971
0.0018088162
0.0017666591
0.0017244661
0.0016820845
0.0016392324
0.0015958922
0.0015522389
0.0015081712
0.0014635802
0.0014185771
0.0013731507
0.0013272665
0.0012806831
0.0012332594
0.0011854829
0.001137041
0.0010875758
0.0010378225
0.00098738545
0.00093581059
0.00088364754
0.00083087367
0.0007773146
0.00072317447
0.00066840698
0.00061314626
0.00055721384
0.00050094301
0.00044484454
0.00039041033
0.00033597339
0.00029604339
0.00023560272
0.00036026813
-0.00019956
0.0048520031
0.004881832
0.0049110654
0.0049408168
0.0049721329
0.0050063044
0.0050444003
0.0050869175
0.0051337664
0.0051840884
0.0052356014
0.0052836508
0.0053203819
0.0053347313
0.005314486
0.005251645
0.0051484035
0.0050167886
0.0048706923
0.0047189462
0.0045657037
0.0044139206
0.004266241
0.0041240846
0.0039877376
0.0038573778
0.0037336511
0.0036174018
0.0035091352
0.0034088119
0.0033161399
0.0032310233
0.003153557
0.0030836047
0.0030206228
0.0029638621
0.0029125521
0.0028659335
0.0028232953
0.00278398
0.0027473165
0.0027126491
0.0026793789
0.0026469447
0.0026148603
0.0025827675
0.0025504351
0.0025176876
0.0024843396
0.0024501751
0.0024149701
0.0023785878
0.0023410273
0.0023024272
0.0022630045
0.002222952
0.0021824843
0.0021417479
0.0021008329
0.0020597545
0.0020184299
0.0019768772
0.0019351479
0.0018933771
0.0018515631
0.0018095642
0.0017673876
0.0017251602
0.0016827433
0.0016398689
0.0015965111
0.0015528311
0.001508741
0.001464134
0.0014191093
0.0013736592
0.0013277462
0.0012811445
0.0012337154
0.0011859077
0.0011374457
0.0010879844
0.0010381981
0.00098773601
0.0009361686
0.00088399272
0.00083117576
0.00077754658
0.00072331426
0.00066840983
0.00061311182
0.00055742421
0.00050143499
0.00044552349
0.00039123246
0.00033673231
0.00029647643
0.00023575266
0.00035690263
-0.00019218699
0.0048326476
0.0048620329
0.0048911451
0.0049208094
0.0049517813
0.0049850899
0.0050216337
0.0050617979
0.0051053571
0.0051513049
0.0051973314
0.0052390738
0.0052695186
0.0052791481
0.0052577299
0.0051984763
0.0051026819
0.0049798584
0.0048418744
0.0046970717
0.0045497996
0.0044030323
0.0042593795
0.0041204413
0.0039867679
0.0038586824
0.0037368363
0.0036220433
0.0035148304
0.0034152463
0.0033230882
0.0032382775
0.0031608843
0.003090788
0.0030275018
0.0029703292
0.0029185378
0.0028714022
0.002828232
0.0027883812
0.0027511966
0.0027160366
0.0026823107
0.0026494692
0.0026170328
0.0025846411
0.0025520533
0.0025190856
0.0024855494
0.0024512313
0.0024159146
0.0023794631
0.002341871
0.0023032646
0.0022638479
0.0022238086
0.0021833499
0.0021426162
0.0021016952
0.0020606046
0.0020192722
0.0019777124
0.0019359765
0.001894188
0.0018523495
0.0018103319
0.0017681354
0.0017258737
0.0016834211
0.0016405234
0.0015971472
0.0015534406
0.0015093275
0.0014647036
0.0014196566
0.0013741824
0.001328241
0.0012816198
0.0012341838
0.0011863463
0.0011378645
0.0010884034
0.0010385842
0.00098810011
0.00093653226
0.00088433553
0.0008315005
0.00077787013
0.00072361831
0.00066865664
0.00061328314
0.00055749444
0.00050137542
0.00044556442
0.00039153509
0.00033723769
0.00029699963
0.00023599019
0.00035290737
-0.00018358407
0.0048130594
0.004841894
0.0048706916
0.0049000478
0.0049304868
0.0049628072
0.0049977343
0.0050355359
0.005075875
0.0051176463
0.0051585615
0.0051945684
0.0052194307
0.0052249626
0.0052025644
0.0051464682
0.0050573314
0.0049426314
0.0048124112
0.004674401
0.0045330319
0.0043912957
0.0042517583
0.0041161489
0.0039852449
0.0038595103
0.0037396145
0.0036263493
0.0035202628
0.003421482
0.0033298867
0.0032454212
0.0031681398
0.0030979361
0.003034376
0.0029768155
0.0029245613
0.0028769209
0.0028332266
0.0027928454
0.0027551416
0.0027194888
0.0026853057
0.0026520536
0.0026192606
0.0025865648
0.0025537167
0.0025205245
0.0024867967
0.0024523224
0.0024168909
0.0023803677
0.0023427413
0.0023041267
0.0022647148
0.0022246874
0.0021842374
0.0021435062
0.0021025794
0.0020614768
0.0020201364
0.0019785693
0.0019368263
0.0018950201
0.0018531573
0.0018111202
0.0017689031
0.0017266071
0.0016841183
0.0016411965
0.0015978014
0.001554068
0.0015099312
0.0014652894
0.0014202198
0.0013747211
0.0013287508
0.0012821091
0.0012346654
0.0011867987
0.0011382959
0.0010888337
0.0010389832
0.00098847667
0.00093690531
0.00088468856
0.00083183646
0.00077819551
0.00072392217
0.00066895296
0.00061356805
0.00055773792
0.0005015517
0.00044565487
0.00039147488
0.00033714103
0.00029695943
0.00023580433
0.00034826477
-0.00017353964
0.0047931841
0.0048213714
0.0048496874
0.0048785447
0.0049082824
0.0049394998
0.0049727549
0.0050081995
0.005045405
0.0050832077
0.0051193792
0.0051501841
0.0051700962
0.0051720763
0.0051488753
0.0050955811
0.0050124055
0.0049051928
0.0047823685
0.0046509787
0.0045154314
0.0043787233
0.0042433709
0.0041111894
0.003983146
0.003859838
0.0037419617
0.0036302957
0.0035254083
0.003427496
0.0033365145
0.0032524364
0.0031753071
0.0031050342
0.0030412327
0.0029833104
0.0029306136
0.0028824827
0.0028382735
0.0027973682
0.0027591485
0.0027230034
0.0026883622
0.002654697
0.0026215433
0.0025885385
0.0025554253
0.0025220046
0.0024880819
0.0024534484
0.0024178995
0.0023813017
0.0023436385
0.0023050135
0.002265605
0.0022255884
0.0021851466
0.0021444177
0.0021034853
0.0020623711
0.0020210224
0.0019794479
0.0019376973
0.0018958736
0.0018539864
0.001811929
0.0017696907
0.0017273605
0.0016848354
0.0016418885
0.0015984737
0.0015547134
0.0015105521
0.0014658919
0.0014207993
0.0013752754
0.0013292759
0.0012826131
0.0012351607
0.0011872651
0.0011387403
0.0010892759
0.0010393949
0.00098886453
0.00093728875
0.00088505321
0.00083218307
0.00077852892
0.00072423649
0.00066925655
0.0006138488
0.00055799682
0.00050180915
0.00044588328
0.00039161596
0.00033718414
0.00029655033
0.00023531608
0.00034178682
-0.0001620873
0.0047729744
0.0048004274
0.0048281185
0.0048563128
0.0048852019
0.004915214
0.0049467526
0.0049798591
0.0050140319
0.0050480804
0.0050798645
0.0051059632
0.0051214932
0.0051204007
0.0050965584
0.0050457717
0.0049679457
0.0048676214
0.0047518133
0.0046268517
0.0044970307
0.0043653307
0.0042342146
0.0041055476
0.0039804502
0.0038596425
0.0037438544
0.0036338584
0.0035302422
0.0034332643
0.0033429503
0.0032593039
0.0031823689
0.0031120669
0.0030480584
0.0029898024
0.002936685
0.0028880797
0.0028433667
0.0028019449
0.0027632135
0.0027265779
0.0026914785
0.0026573982