/*--------------------------------*- C++ -*----------------------------------*\
  =========                 |
  \\      /  F ield         | OpenFOAM: The Open Source CFD Toolbox
   \\    /   O peration     | Website:  https://openfoam.org
    \\  /    A nd           | Version:  12
     \\/     M anipulation  |
\*---------------------------------------------------------------------------*/
FoamFile
{
    format      ascii;
    class       surfaceScalarField;
    location    "1400";
    object      phi;
}
// * * * * * * * * * * * * * * * * * * * * * * * * * * * * * * * * * * * * * //

dimensions      [0 3 -1 0 0 0 0];

internalField   nonuniform List<scalar> 
25880
(
2.0046355e-06
1.8616993e-11
2.0045758e-06
5.9710377e-11
2.0044799e-06
9.5875532e-11
2.0043603e-06
1.1965398e-10
2.0042208e-06
1.3952946e-10
2.004063e-06
1.5776116e-10
2.0038884e-06
1.7463435e-10
2.0036977e-06
1.9063144e-10
2.0034913e-06
2.0647794e-10
2.0032684e-06
2.2285916e-10
2.003028e-06
2.4040373e-10
2.0027682e-06
2.5982505e-10
2.0024861e-06
2.8203748e-10
2.0021777e-06
3.0840218e-10
2.0018371e-06
3.4066827e-10
2.0014546e-06
3.8245965e-10
2.001018e-06
4.3663205e-10
2.0004988e-06
5.1920302e-10
1.9998759e-06
6.2285623e-10
1.9990103e-06
8.6559293e-10
1.9979333e-06
1.077058e-09
1.9948687e-06
3.0645883e-09
1.992377e-06
2.4916731e-09
1.0226221e-06
9.6975491e-07
3.9148168e-08
9.8347392e-07
2.5367023e-08
1.3781145e-08
2.5061156e-08
3.0586696e-10
2.483189e-08
2.2926596e-10
2.4259939e-08
5.7195057e-10
2.3636189e-08
6.2375076e-10
2.3074734e-08
5.6145425e-10
2.2589564e-08
4.8517064e-10
2.2166123e-08
4.2344113e-10
2.1790914e-08
3.7520866e-10
2.1454548e-08
3.3636577e-10
2.1147645e-08
3.0690335e-10
2.0863367e-08
2.8427782e-10
2.059922e-08
2.6414723e-10
2.0353281e-08
2.4593909e-10
2.0124054e-08
2.2922649e-10
1.9909722e-08
2.1433201e-10
1.9708398e-08
2.0132439e-10
1.9518654e-08
1.8974395e-10
1.9339154e-08
1.7949985e-10
1.9168736e-08
1.7041763e-10
1.9006538e-08
1.6219849e-10
1.8851857e-08
1.5468086e-10
1.8704084e-08
1.4777351e-10
1.8562523e-08
1.4156025e-10
1.842673e-08
1.3579328e-10
1.8296281e-08
1.3044934e-10
1.8170545e-08
1.2573578e-10
1.8049221e-08
1.2132441e-10
1.7932066e-08
1.1715414e-10
1.7818618e-08
1.1344876e-10
1.7708626e-08
1.0999168e-10
1.7601958e-08
1.0666763e-10
1.7498261e-08
1.0369704e-10
1.739725e-08
1.0101083e-10
1.7298874e-08
9.8376103e-11
1.7202971e-08
9.5903286e-11
1.7109237e-08
9.3734098e-11
1.7017533e-08
9.170415e-11
1.6927714e-08
8.981841e-11
1.6839539e-08
8.8175204e-11
1.6752916e-08
8.662316e-11
1.6667857e-08
8.5059425e-11
1.6584357e-08
8.3500109e-11
1.6502304e-08
8.2052395e-11
1.6421532e-08
8.0771702e-11
1.6341962e-08
7.9570353e-11
1.6263559e-08
7.840317e-11
1.618624e-08
7.7319029e-11
1.6109896e-08
7.634421e-11
1.6034452e-08
7.5444076e-11
1.5959853e-08
7.4598428e-11
1.5886057e-08
7.3796572e-11
1.5812997e-08
7.3059268e-11
1.5740599e-08
7.2398539e-11
1.5668818e-08
7.178055e-11
1.5597607e-08
7.1211382e-11
1.5526902e-08
7.0704393e-11
1.5456664e-08
7.0238215e-11
1.5386855e-08
6.9808899e-11
1.5317404e-08
6.9451563e-11
1.5248262e-08
6.9142131e-11
1.5179409e-08
6.8853052e-11
1.5110804e-08
6.8604244e-11
1.5042397e-08
6.8407103e-11
1.4974131e-08
6.8265987e-11
1.4905968e-08
6.8163053e-11
1.4837893e-08
6.8074795e-11
1.4769864e-08
6.8029414e-11
1.4701794e-08
6.8069978e-11
1.4633631e-08
6.8162899e-11
1.4565374e-08
6.82568e-11
1.4496988e-08
6.8386214e-11
1.4428349e-08
6.8638862e-11
1.4359385e-08
6.8963833e-11
1.4290126e-08
6.9259905e-11
1.4220544e-08
6.9581212e-11
1.4150538e-08
7.0006433e-11
1.4080025e-08
7.0512513e-11
1.4008995e-08
7.1029945e-11
1.3937398e-08
7.1597261e-11
1.3865099e-08
7.229879e-11
1.3792021e-08
7.3078524e-11
1.3718141e-08
7.3879959e-11
1.3643361e-08
7.4779486e-11
1.3567548e-08
7.5812943e-11
1.3490646e-08
7.6902652e-11
1.3412579e-08
7.8067206e-11
1.3333134e-08
7.9444737e-11
1.3255587e-08
7.7546638e-11
1.3181749e-08
7.3838613e-11
1.3111147e-08
7.0601323e-11
1.3043529e-08
6.7618378e-11
1.2978851e-08
6.4677418e-11
1.2916905e-08
6.1946543e-11
1.2857438e-08
5.9467312e-11
1.2800258e-08
5.7179177e-11
1.274525e-08
5.5008778e-11
1.2692286e-08
5.2964028e-11
1.2641196e-08
5.1089725e-11
1.2591824e-08
4.9372417e-11
1.2544075e-08
4.7748214e-11
1.2497882e-08
4.6193603e-11
1.2453146e-08
4.4735674e-11
1.2409725e-08
4.3420772e-11
1.2367515e-08
4.2210651e-11
1.2326296e-08
4.1218803e-11
1.2286194e-08
4.0101433e-11
1.2246144e-08
4.0050748e-11
1.2207736e-08
3.840763e-11
1.2160667e-08
4.7069273e-11
2.9542222e-11
2.0345092e-06
3.7511398e-11
2.0344486e-06
1.2031075e-10
2.0343513e-06
1.9318143e-10
2.0342298e-06
2.410968e-10
2.0340882e-06
2.8114951e-10
2.0339281e-06
3.1789052e-10
2.0337508e-06
3.5189381e-10
2.0335573e-06
3.8413093e-10
2.0333477e-06
4.1606354e-10
2.0331215e-06
4.4907254e-10
2.0328775e-06
4.8442465e-10
2.0326138e-06
5.2355748e-10
2.0323275e-06
5.6831353e-10
2.0320144e-06
6.214355e-10
2.0316687e-06
6.8644787e-10
2.0312805e-06
7.706523e-10
2.0308373e-06
8.7980321e-10
2.0303103e-06
1.046172e-09
2.0296782e-06
1.2550233e-09
2.0287997e-06
1.7440812e-09
2.0277065e-06
2.1702302e-09
2.0245968e-06
6.174287e-09
2.0220639e-06
5.0245367e-09
1.0890215e-06
1.9027974e-06
1.1727258e-07
1.9552228e-06
7.7620743e-08
5.3432983e-08
7.6685486e-08
1.2411234e-09
7.5981793e-08
9.3295878e-10
7.4229901e-08
2.3238432e-09
7.2321049e-08
2.532602e-09
7.0603759e-08
2.2787451e-09
6.9119498e-08
1.9694314e-09
6.7823861e-08
1.7190775e-09
6.6675816e-08
1.5232545e-09
6.5646653e-08
1.3655283e-09
6.4707629e-08
1.2459272e-09
6.3837828e-08
1.1540789e-09
6.3029618e-08
1.0723575e-09
6.2277124e-08
9.9843271e-10
6.1575763e-08
9.3058758e-10
6.0919972e-08
8.7012366e-10
6.0303978e-08
8.1731814e-10
5.9723413e-08
7.7030828e-10
5.9174195e-08
7.2871821e-10
5.8652761e-08
6.9185172e-10
5.815648e-08
6.5847923e-10
5.7683198e-08
6.2796325e-10
5.7231044e-08
5.9992706e-10
5.6797912e-08
5.7469231e-10
5.6382419e-08
5.5128655e-10
5.5983271e-08
5.2959752e-10
5.5598556e-08
5.1045042e-10
5.5227333e-08
4.9254721e-10
5.4868864e-08
4.7562325e-10
5.4521741e-08
4.6057172e-10
5.4185195e-08
4.4653754e-10
5.3858814e-08
4.3304959e-10
5.3541523e-08
4.2098799e-10
5.3232458e-08
4.1007498e-10
5.293145e-08
3.9938444e-10
5.2638002e-08
3.8935151e-10
5.2351197e-08
3.8053911e-10
5.2070608e-08
3.7229286e-10
5.1795783e-08
3.6464351e-10
5.1525981e-08
3.5797739e-10
5.1260934e-08
3.5167033e-10
5.1000675e-08
3.4531801e-10
5.0745183e-08
3.3899229e-10
5.0494116e-08
3.3311972e-10
5.0246971e-08
3.2791611e-10
5.0003506e-08
3.230356e-10
4.976361e-08
3.1829904e-10
4.9527027e-08
3.1390195e-10
4.9293428e-08
3.0994345e-10
4.9062586e-08
3.0628594e-10
4.8834333e-08
3.0285097e-10
4.860853e-08
2.9959971e-10
4.838498e-08
2.9660934e-10
4.8163456e-08
2.9392281e-10
4.7943824e-08
2.9141217e-10
4.7725933e-08
2.8910308e-10
4.7509589e-08
2.8704771e-10
4.7294673e-08
2.8515432e-10
4.7081073e-08
2.8340931e-10
4.6868567e-08
2.8195712e-10
4.6657006e-08
2.8070378e-10
4.6446326e-08
2.7953251e-10
4.6236411e-08
2.7851944e-10
4.60271e-08
2.7771787e-10
4.581822e-08
2.7714597e-10
4.5609653e-08
2.7673011e-10
4.5401357e-08
2.7637135e-10
4.5193201e-08
2.7618552e-10
4.4984921e-08
2.7634953e-10
4.4776355e-08
2.7672888e-10
4.4567501e-08
2.7711117e-10
4.4358252e-08
2.7763464e-10
4.4148232e-08
2.7865932e-10
4.3937215e-08
2.7998027e-10
4.3725292e-08
2.8118351e-10
4.3512386e-08
2.8248653e-10
4.3298181e-08
2.8421185e-10
4.3082426e-08
2.8626775e-10
4.2865086e-08
2.8836943e-10
4.2646012e-08
2.9067151e-10
4.2424792e-08
2.9351866e-10
4.2201185e-08
2.9668559e-10
4.1975125e-08
2.9993999e-10
4.1746314e-08
3.035905e-10
4.1514341e-08
3.077863e-10
4.1279032e-08
3.1221119e-10
4.1040161e-08
3.1693866e-10
4.0797075e-08
3.2253081e-10
4.0559795e-08
3.1482582e-10
4.0333862e-08
2.9977183e-10
4.0117836e-08
2.8662797e-10
3.9910936e-08
2.745182e-10
3.9713034e-08
2.6257908e-10
3.9523489e-08
2.5149172e-10
3.934153e-08
2.4142597e-10
3.9166572e-08
2.3213705e-10
3.8998255e-08
2.2332609e-10
3.8836195e-08
2.150243e-10
3.867987e-08
2.0741451e-10
3.85288e-08
2.0044244e-10
3.8382699e-08
1.9384894e-10
3.8241355e-08
1.8753751e-10
3.8104473e-08
1.8161778e-10
3.7971615e-08
1.7627894e-10
3.7842461e-08
1.7136504e-10
3.7716341e-08
1.6733817e-10
3.7593646e-08
1.6279711e-10
3.7471102e-08
1.6259443e-10
3.7353659e-08
1.5585043e-10
3.7209359e-08
1.9136909e-10
1.1951766e-10
2.0947016e-06
5.6964689e-11
2.0946392e-06
1.8270417e-10
2.0945391e-06
2.9336827e-10
2.094414e-06
3.6613909e-10
2.0942682e-06
4.2697212e-10
2.0941033e-06
4.8277672e-10
2.0939208e-06
5.3442314e-10
2.0937215e-06
5.8338593e-10
2.0935057e-06
6.3188453e-10
2.0932728e-06
6.8201603e-10
2.0930215e-06
7.357043e-10
2.0927499e-06
7.9513276e-10
2.0924551e-06
8.630997e-10
2.0921328e-06
9.4377041e-10
2.0917767e-06
1.0424974e-09
2.091377e-06
1.1703689e-09
2.0909207e-06
1.3361241e-09
2.0903781e-06
1.5887689e-09
2.0897272e-06
1.9059298e-09
2.0888227e-06
2.6485928e-09
2.0876971e-06
3.2957815e-09
2.0844955e-06
9.3758927e-09
2.0818874e-06
7.6326202e-09
1.1725538e-06
2.8121311e-06
1.9981255e-07
2.927964e-06
1.345242e-07
1.1872133e-07
1.3290025e-07
2.8650734e-09
1.3167716e-07
2.1560496e-09
1.2863877e-07
5.3622262e-09
1.2533013e-07
5.8412436e-09
1.2235498e-07
5.2538962e-09
1.1978324e-07
4.5411752e-09
1.1753799e-07
3.9643187e-09
1.155485e-07
3.5127446e-09
1.1376507e-07
3.1489593e-09
1.1213784e-07
2.8731627e-09
1.1063055e-07
2.6613669e-09
1.0922999e-07
2.4729167e-09
1.0792599e-07
2.3024356e-09
1.0671059e-07
2.1459856e-09
1.0557416e-07
2.0065587e-09
1.0450668e-07
1.8847901e-09
1.035006e-07
1.7763875e-09
1.0254885e-07
1.6804771e-09
1.0164523e-07
1.5954667e-09
1.0078521e-07
1.518501e-09
9.9965037e-08
1.4481349e-09
9.9181474e-08
1.3834893e-09
9.8430885e-08
1.3252816e-09
9.7710856e-08
1.2713159e-09
9.7019145e-08
1.2213081e-09
9.6352458e-08
1.1771375e-09
9.5709146e-08
1.1358595e-09
9.5087928e-08
1.0968413e-09
9.4486381e-08
1.0621186e-09
9.3903163e-08
1.0297552e-09
9.3337551e-08
9.9866196e-10
9.2787695e-08
9.7084383e-10
9.2252104e-08
9.4566594e-10
9.1730467e-08
9.210216e-10
9.1221924e-08
8.978947e-10
9.07249e-08
8.77563e-10
9.0238655e-08
8.5853807e-10
8.976239e-08
8.4090817e-10
8.9294824e-08
8.2554345e-10
8.8835505e-08
8.1098911e-10
8.838449e-08
7.9633341e-10
8.7941728e-08
7.817536e-10
8.7506629e-08
7.6821867e-10
8.7078333e-08
7.5621211e-10
8.6656418e-08
7.4495133e-10
8.6240685e-08
7.3403175e-10
8.5830688e-08
7.2389861e-10
8.5425863e-08
7.147687e-10
8.5025821e-08
7.063285e-10
8.4630267e-08
6.9840438e-10
8.4238953e-08
6.9091341e-10
8.3851541e-08
6.8402201e-10
8.3467643e-08
6.7782025e-10
8.3087028e-08
6.7202715e-10
8.2709426e-08
6.6670507e-10
8.2334504e-08
6.6196993e-10
8.1962056e-08
6.5760248e-10
8.1591891e-08
6.5357454e-10
8.1223624e-08
6.5022347e-10
8.085699e-08
6.473379e-10
8.0491882e-08
6.4464056e-10
8.0128102e-08
6.4229981e-10
7.9765371e-08
6.4044896e-10
7.9403385e-08
6.3913197e-10
7.9041939e-08
6.3817629e-10
7.8680962e-08
6.3734837e-10
7.832023e-08
6.3691705e-10
7.7959285e-08
6.3729434e-10
7.7597841e-08
6.3817265e-10
7.7235897e-08
6.3905606e-10
7.6873271e-08
6.4026017e-10
7.6509309e-08
6.4262155e-10
7.6143619e-08
6.4567052e-10
7.5776355e-08
6.4844741e-10
7.5407391e-08
6.5145009e-10
7.5036176e-08
6.5542732e-10
7.4662273e-08
6.6017062e-10
7.4285623e-08
6.6501905e-10
7.3905968e-08
6.703262e-10
7.3522596e-08
6.7689067e-10
7.3135086e-08
6.8419621e-10
7.2743323e-08
6.9170244e-10
7.2346795e-08
7.0011894e-10
7.1944786e-08
7.0979516e-10
7.1536996e-08
7.2000098e-10
7.1123032e-08
7.3090259e-10
7.0701765e-08
7.4379836e-10
7.0290559e-08
7.2603117e-10
6.9899017e-08
6.9131457e-10
6.9524643e-08
6.6100149e-10
6.9166086e-08
6.3307541e-10
6.8823122e-08
6.0554326e-10
6.849464e-08
5.7997358e-10
6.8179306e-08
5.5675977e-10
6.7876104e-08
5.3533909e-10
6.758441e-08
5.1502059e-10
6.7303559e-08
4.9587483e-10
6.7032649e-08
4.7832482e-10
6.6770845e-08
4.6224614e-10
6.6517653e-08
4.4704139e-10
6.6272704e-08
4.3248639e-10
6.6035488e-08
4.1883337e-10
6.5805247e-08
4.0652003e-10
6.5581426e-08
3.9518652e-10
6.5362866e-08
3.8589825e-10
6.5150241e-08
3.7542145e-10
6.4937888e-08
3.7494752e-10
6.4734424e-08
3.593141e-10
6.4484165e-08
4.4162806e-10
2.751627e-10
2.1861099e-06
7.7266761e-11
2.1860448e-06
2.4782044e-10
2.1859402e-06
3.9792937e-10
2.1858097e-06
4.9664534e-10
2.1856575e-06
5.7917252e-10
2.1854854e-06
6.5488027e-10
2.1852949e-06
7.2494685e-10
2.1850869e-06
7.9137117e-10
2.1848616e-06
8.5716323e-10
2.1846185e-06
9.2516764e-10
2.1843562e-06
9.9799428e-10
2.1840727e-06
1.0786051e-09
2.183765e-06
1.1707962e-09
2.1834286e-06
1.2802176e-09
2.183057e-06
1.4141297e-09
2.1826398e-06
1.5875731e-09
2.1821635e-06
1.8124016e-09
2.1815972e-06
2.155086e-09
2.1809178e-06
2.585282e-09
2.1799738e-06
3.5926103e-09
2.1787991e-06
4.4704939e-09
2.1754579e-06
1.2717054e-08
2.1727355e-06
1.035503e-08
1.2765571e-06
3.7083095e-06
2.9138716e-07
3.9131339e-06
1.994766e-07
2.1063189e-07
1.9706434e-07
5.2773337e-09
1.9524209e-07
3.9783005e-09
1.9073375e-07
9.8705635e-09
1.8582732e-07
1.074768e-08
1.8141769e-07
9.6635205e-09
1.7760558e-07
8.353288e-09
1.7427694e-07
7.2929586e-09
1.7132741e-07
6.4622782e-09
1.6868341e-07
5.7929512e-09
1.6627097e-07
5.2856043e-09
1.6403633e-07
4.8960043e-09
1.6195992e-07
4.5493313e-09
1.6002666e-07
4.2357008e-09
1.5822474e-07
3.947897e-09
1.5653989e-07
3.6914139e-09
1.5495727e-07
3.467412e-09
1.5346566e-07
3.2679975e-09
1.5205458e-07
3.0915567e-09
1.5071487e-07
2.9351752e-09
1.4943979e-07
2.7935766e-09
1.4822379e-07
2.6641369e-09
1.4706206e-07
2.5452215e-09
1.4594922e-07
2.4381185e-09
1.4488168e-07
2.3388539e-09
1.4385612e-07
2.2468691e-09
1.4286767e-07
2.1655872e-09
1.4191387e-07
2.0896609e-09
1.4099282e-07
2.017895e-09
1.4010094e-07
1.9539979e-09
1.3923623e-07
1.8944597e-09
1.3839762e-07
1.837276e-09
1.3758237e-07
1.7860943e-09
1.3678828e-07
1.7397573e-09
1.3601487e-07
1.6944333e-09
1.3526086e-07
1.6519032e-09
1.3452394e-07
1.6144841e-09
1.33803e-07
1.5794707e-09
1.3309686e-07
1.5470535e-09
1.324036e-07
1.5188002e-09
1.3172258e-07
1.4920093e-09
1.3105388e-07
1.4650361e-09
1.3039741e-07
1.4382267e-09
1.2975229e-07
1.4133391e-09
1.2911726e-07
1.3912406e-09
1.2849169e-07
1.3705142e-09
1.2787529e-07
1.3504313e-09
1.2726739e-07
1.3318008e-09
1.2666716e-07
1.315003e-09
1.2607402e-07
1.2994658e-09
1.2548754e-07
1.2848838e-09
1.2490734e-07
1.2711139e-09
1.2433292e-07
1.2584433e-09
1.2376372e-07
1.2470242e-09
1.2319938e-07
1.2363607e-09
1.2263951e-07
1.2265748e-09
1.2208361e-07
1.2178715e-09
1.2153138e-07
1.2098354e-09
1.2098253e-07
1.2024186e-09
1.2043651e-07
1.1962505e-09
1.1989289e-07
1.19095e-09
1.1935154e-07
1.1859938e-09
1.1881216e-07
1.1816809e-09
1.1827434e-07
1.1782717e-09
1.1773762e-07
1.1758524e-09
1.1720169e-07
1.1740999e-09
1.1666647e-07
1.1725762e-09
1.161316e-07
1.1717782e-09
1.1559643e-07
1.1724713e-09
1.1506051e-07
1.1740932e-09
1.1452384e-07
1.1757217e-09
1.1398617e-07
1.1779323e-09
1.1344652e-07
1.1822742e-09
1.129043e-07
1.1878883e-09
1.1235975e-07
1.1930008e-09
1.1181267e-07
1.1985219e-09
1.1126226e-07
1.2058367e-09
1.1070787e-07
1.2145671e-09
1.101494e-07
1.2234902e-09
1.0958647e-07
1.2332516e-09
1.0901804e-07
1.2453268e-09
1.0844346e-07
1.2587712e-09
1.0786258e-07
1.2725832e-09
1.0727463e-07
1.2880649e-09
1.0667856e-07
1.3058675e-09
1.0607392e-07
1.3246466e-09
1.0546012e-07
1.3447027e-09
1.0483549e-07
1.3684278e-09
1.0422577e-07
1.3357427e-09
1.0364522e-07
1.2718718e-09
1.0309012e-07
1.2161e-09
1.0255847e-07
1.1647232e-09
1.0204994e-07
1.1140718e-09
1.0156289e-07
1.0670281e-09
1.0109533e-07
1.0243184e-09
1.0064576e-07
9.8491039e-10
1.0021325e-07
9.4753007e-10
9.9796818e-08
9.1230491e-10
9.9395128e-08
8.8001528e-10
9.900694e-08
8.5043383e-10
9.863152e-08
8.2246159e-10
9.8268323e-08
7.9568347e-10
9.7916593e-08
7.7056275e-10
9.7575207e-08
7.479064e-10
9.724334e-08
7.2705325e-10
9.6919279e-08
7.0995999e-10
9.6604018e-08
6.9068163e-10
9.6289182e-08
6.8978399e-10
9.5987555e-08
6.6094095e-10
9.5616372e-08
8.1281101e-10
5.0577993e-10
2.3100962e-06
9.8720135e-11
2.3100274e-06
3.1662998e-10
2.3099169e-06
5.0842336e-10
2.309779e-06
6.3456184e-10
2.3096182e-06
7.4002177e-10
2.3094363e-06
8.3677043e-10
2.3092349e-06
9.2631026e-10
2.3090151e-06
1.0111934e-09
2.308777e-06
1.0952651e-09
2.30852e-06
1.1821599e-09
2.3082428e-06
1.2752128e-09
2.3079432e-06
1.3782087e-09
2.307618e-06
1.4959981e-09
2.3072624e-06
1.6358006e-09
2.3068696e-06
1.8068928e-09
2.3064287e-06
2.0284915e-09
2.3059254e-06
2.3157425e-09
2.3053269e-06
2.7535712e-09
2.3046089e-06
3.3032124e-09
2.3036113e-06
4.5902061e-09
2.30237e-06
5.7118854e-09
2.2988395e-06
1.6247477e-08
2.2959619e-06
1.3232636e-08
1.40464e-06
4.5996314e-06
3.9689109e-07
4.9208829e-06
2.7634389e-07
3.3117909e-07
2.7298566e-07
8.6355668e-09
2.704396e-07
6.5243572e-09
2.6419127e-07
1.6118894e-08
2.573964e-07
1.7542556e-08
2.5129278e-07
1.5767133e-08
2.4601557e-07
1.3630503e-08
2.4140683e-07
1.1901699e-08
2.3732284e-07
1.0546267e-08
2.3366192e-07
9.4538661e-09
2.3032156e-07
8.6259726e-09
2.2722732e-07
7.9902444e-09
2.2435212e-07
7.4245251e-09
2.2167512e-07
6.9127073e-09
2.1917996e-07
6.4430524e-09
2.1684686e-07
6.0245168e-09
2.1465529e-07
5.6589802e-09
2.1258972e-07
5.3335623e-09
2.1063565e-07
5.0456264e-09
2.087804e-07
4.7904317e-09
2.0701464e-07
4.559339e-09
2.0533066e-07
4.3481143e-09
2.0372182e-07
4.1540631e-09
2.0218069e-07
3.9792453e-09
2.0070227e-07
3.8172686e-09
1.9928197e-07
3.6671697e-09
1.9791308e-07
3.5344862e-09
1.9659214e-07
3.4105917e-09
1.9531655e-07
3.2934926e-09
1.9408136e-07
3.1891848e-09
1.928838e-07
3.0920175e-09
1.9172236e-07
2.9987209e-09
1.9059327e-07
2.9151834e-09
1.8949349e-07
2.8395336e-09
1.8842234e-07
2.7655851e-09
1.8737804e-07
2.6962004e-09
1.8635742e-07
2.635108e-09
1.8535895e-07
2.577944e-09
1.8438094e-07
2.525064e-09
1.8342076e-07
2.4789743e-09
1.8247754e-07
2.4352267e-09
1.8155139e-07
2.3911875e-09
1.8064216e-07
2.3474543e-09
1.7974865e-07
2.306857e-09
1.7886911e-07
2.2707762e-09
1.7800269e-07
2.2369336e-09
1.7714896e-07
2.204167e-09
1.7630698e-07
2.1737798e-09
1.7547562e-07
2.1463633e-09
1.7465409e-07
2.1209904e-09
1.7384179e-07
2.0971861e-09
1.7303817e-07
2.0747314e-09
1.7224255e-07
2.0540649e-09
1.7145416e-07
2.035414e-09
1.7067252e-07
2.0180013e-09
1.6989706e-07
2.0020395e-09
1.6912708e-07
1.9878485e-09
1.6836218e-07
1.9747321e-09
1.6760198e-07
1.9626176e-09
1.6684569e-07
1.9525473e-09
1.6609273e-07
1.9439105e-09
1.6534289e-07
1.9358324e-09
1.6459578e-07
1.9287842e-09
1.6385084e-07
1.9232146e-09
1.6310742e-07
1.9192731e-09
1.623651e-07
1.9164234e-09
1.6162374e-07
1.9139374e-09
1.6088288e-07
1.9126291e-09
1.601416e-07
1.9137604e-09
1.5939927e-07
1.9164187e-09
1.5865591e-07
1.9190835e-09
1.5791115e-07
1.9226861e-09
1.5716366e-07
1.9297707e-09
1.564126e-07
1.9389435e-09
1.5565831e-07
1.9472958e-09
1.5490053e-07
1.956304e-09
1.5413812e-07
1.9682416e-09
1.5337019e-07
1.9824994e-09
1.5259661e-07
1.9970708e-09
1.5181686e-07
2.0130017e-09
1.5102947e-07
2.0327103e-09
1.5023358e-07
2.0546627e-09
1.4942895e-07
2.0772128e-09
1.4861454e-07
2.1024807e-09
1.4778886e-07
2.1315418e-09
1.4695131e-07
2.1622003e-09
1.4610107e-07
2.1949388e-09
1.4523583e-07
2.2336664e-09
1.4439126e-07
2.1803208e-09
1.4358706e-07
2.0760667e-09
1.4281813e-07
1.9850288e-09
1.4208169e-07
1.9011698e-09
1.4137726e-07
1.8184962e-09
1.4070258e-07
1.7417064e-09
1.4005491e-07
1.6719908e-09
1.3943215e-07
1.6076683e-09
1.3883303e-07
1.5466555e-09
1.3825618e-07
1.4891566e-09
1.3769974e-07
1.4364487e-09
1.3716201e-07
1.3881634e-09
1.3664197e-07
1.3425069e-09
1.3613885e-07
1.2987974e-09
1.3565163e-07
1.25779e-09
1.3517873e-07
1.2208042e-09
1.3471902e-07
1.1867633e-09
1.3427013e-07
1.1588528e-09
1.3383342e-07
1.1273836e-09
1.3339734e-07
1.1258637e-09
1.3297958e-07
1.0787031e-09
1.3246532e-07
1.3270689e-09
8.2513209e-10
2.4685082e-06
1.2164449e-10
2.4684347e-06
3.9015823e-10
2.4683166e-06
6.264974e-10
2.4681693e-06
7.8194581e-10
2.4679974e-06
9.1192077e-10
2.467803e-06
1.0311638e-09
2.4675878e-06
1.1415222e-09
2.4673528e-06
1.2461383e-09
2.4670983e-06
1.3497496e-09
2.4668237e-06
1.4568347e-09
2.4665274e-06
1.5715037e-09
2.4662071e-06
1.6984212e-09
2.4658596e-06
1.8435649e-09
2.4654795e-06
2.0158315e-09
2.4650598e-06
2.2266524e-09
2.4645886e-06
2.4997074e-09
2.4640507e-06
2.85366e-09
2.4634111e-06
3.3931548e-09
2.4626439e-06
4.0704311e-09
2.4615778e-06
5.6562526e-09
2.4602512e-06
7.0384716e-09
2.456479e-06
2.0019658e-08
2.453403e-06
1.6308699e-08
1.5608175e-06
5.4922168e-06
5.2171854e-07
5.9599819e-06
3.6963583e-07
4.832618e-07
3.6507745e-07
1.3193943e-08
3.6162058e-07
9.9812287e-09
3.5326523e-07
2.447425e-08
3.4418922e-07
2.661856e-08
3.3604075e-07
2.3915603e-08
3.2899426e-07
2.0676997e-08
3.2283895e-07
1.8057006e-08
3.1738407e-07
1.6001155e-08
3.1249411e-07
1.4343822e-08
3.0803209e-07
1.3087995e-08
3.0389863e-07
1.21237e-08
3.0005763e-07
1.1265529e-08
2.9648124e-07
1.0489094e-08
2.9314766e-07
9.7766286e-09
2.9003046e-07
9.1417172e-09
2.8710225e-07
8.5871925e-09
2.843423e-07
8.093514e-09
2.8173124e-07
7.6566863e-09
2.7925214e-07
7.2695308e-09
2.7689257e-07
6.9189084e-09
2.7464222e-07
6.5984632e-09
2.7249222e-07
6.3040665e-09
2.7043268e-07
6.0387872e-09
2.6845689e-07
5.7930592e-09
2.6655871e-07
5.5653475e-09
2.6472921e-07
5.3639843e-09
2.6296378e-07
5.1760253e-09
2.6125889e-07
4.998385e-09
2.5960799e-07
4.8400782e-09
2.5800737e-07
4.6926432e-09
2.5645496e-07
4.551124e-09
2.5494579e-07
4.4243572e-09
2.5347579e-07
4.3095312e-09
2.5204402e-07
4.1973573e-09
2.5064811e-07
4.0921148e-09
2.4928383e-07
3.9993809e-09
2.4794917e-07
3.9126106e-09
2.4664182e-07
3.8324119e-09
2.4535828e-07
3.7625085e-09
2.4409742e-07
3.6960912e-09
2.4285937e-07
3.6292398e-09
2.4164391e-07
3.5629125e-09
2.4044942e-07
3.501342e-09
2.3927363e-07
3.4465719e-09
2.3811537e-07
3.3951954e-09
2.3697404e-07
3.3454919e-09
2.3584841e-07
3.2994122e-09
2.3473696e-07
3.25781e-09
2.3363867e-07
3.2192866e-09
2.3255269e-07
3.1831597e-09
2.3147831e-07
3.1491172e-09
2.3041459e-07
3.1177791e-09
2.2936055e-07
3.0894591e-09
2.2831552e-07
3.0630248e-09
2.2727874e-07
3.0388216e-09
2.2624928e-07
3.0173116e-09
2.252266e-07
2.9974108e-09
2.242102e-07
2.9790158e-09
2.2319902e-07
2.9637335e-09
2.2219227e-07
2.9506537e-09
2.2118969e-07
2.9384162e-09
2.2019076e-07
2.9277121e-09
2.1919472e-07
2.9192561e-09
2.182007e-07
2.9132917e-09
2.1720814e-07
2.9089891e-09
2.1621685e-07
2.9052236e-09
2.1522624e-07
2.9032351e-09
2.1423504e-07
2.9049588e-09
2.1324245e-07
2.9090172e-09
2.1224845e-07
2.9130788e-09
2.1125259e-07
2.9185448e-09
2.1025306e-07
2.9293014e-09
2.0924876e-07
2.9432455e-09
2.0824011e-07
2.9559414e-09
2.072268e-07
2.9696166e-09
2.062073e-07
2.9877405e-09
2.051804e-07
3.0094014e-09
2.0414593e-07
3.0315369e-09
2.0310321e-07
3.0557227e-09
2.0205028e-07
3.0856446e-09
2.0098596e-07
3.1189865e-09
1.9990994e-07
3.153232e-09
1.9882082e-07
3.1915921e-09
1.9771665e-07
3.2357174e-09
1.9659658e-07
3.2822735e-09
1.9545953e-07
3.3319805e-09
1.9430242e-07
3.3907798e-09
1.9317293e-07
3.3098155e-09
1.9209743e-07
3.1515627e-09
1.9106909e-07
3.0133655e-09
1.9008419e-07
2.8860727e-09
1.8914211e-07
2.7605812e-09
1.882398e-07
2.6440138e-09
1.873736e-07
2.5381841e-09
1.8654073e-07
2.4405472e-09
1.8573945e-07
2.3479338e-09
1.8496796e-07
2.2606485e-09
1.8422377e-07
2.1806345e-09
1.835046e-07
2.1073373e-09
1.8280907e-07
2.0380337e-09
1.8213618e-07
1.9716822e-09
1.8148455e-07
1.9094275e-09
1.8085208e-07
1.8532758e-09
1.8023724e-07
1.8015976e-09
1.7963688e-07
1.759213e-09
1.7905282e-07
1.7114434e-09
1.7846964e-07
1.7090402e-09
1.7791098e-07
1.6373693e-09
1.7722311e-07
2.0149333e-09
1.2521872e-09
2.6637066e-06
1.4638143e-10
2.6636273e-06
4.6950099e-10
2.6634999e-06
7.5391179e-10
2.6633408e-06
9.4099614e-10
2.6631553e-06
1.0974363e-09
2.6629455e-06
1.2409652e-09
2.6627132e-06
1.3738003e-09
2.6624597e-06
1.4997199e-09
2.662185e-06
1.6244236e-09
2.6618885e-06
1.7533011e-09
2.6615687e-06
1.891299e-09
2.6612231e-06
2.0440317e-09
2.660848e-06
2.2186933e-09
2.6604378e-06
2.4259906e-09
2.6599848e-06
2.6796808e-09
2.6594762e-06
3.0082594e-09
2.6588957e-06
3.4341862e-09
2.6582055e-06
4.0833832e-09
2.6573775e-06
4.8983863e-09
2.6562271e-06
6.8066432e-09
2.6547956e-06
8.4700433e-09
2.6507256e-06
2.4089645e-08
2.6474047e-06
1.96296e-08
1.7496222e-06
6.3899993e-06
6.7195021e-07
7.0376539e-06
4.8464171e-07
6.705703e-07
4.7843568e-07
1.9399978e-08
4.737865e-07
1.4630409e-08
4.6285433e-07
3.5406421e-08
4.5100055e-07
3.847234e-08
4.4036296e-07
3.4553192e-08
4.3116119e-07
2.9878765e-08
4.2312057e-07
2.6097625e-08
4.1599375e-07
2.3127978e-08
4.096043e-07
2.0733271e-08
4.0377331e-07
1.8918981e-08
3.983711e-07
1.7525913e-08
3.9335057e-07
1.6286056e-08
3.8867544e-07
1.5164228e-08
3.8431727e-07
1.4134797e-08
3.8024158e-07
1.3217405e-08
3.7641265e-07
1.2416129e-08
3.7280343e-07
1.1702735e-08
3.6938865e-07
1.1071464e-08
3.6614621e-07
1.0511972e-08
3.630599e-07
1.0005218e-08
3.6011624e-07
9.542117e-09
3.5730367e-07
9.1166432e-09
3.5460929e-07
8.7331606e-09
3.5202433e-07
8.3780271e-09
3.4954075e-07
8.0489213e-09
3.4714694e-07
7.7577938e-09
3.4483683e-07
7.4861346e-09
3.4260582e-07
7.2294e-09
3.4044539e-07
7.0005047e-09
3.3835066e-07
6.787376e-09
3.3631892e-07
6.5828587e-09
3.3434369e-07
6.3995867e-09
3.3241969e-07
6.233537e-09
3.3054563e-07
6.0714209e-09
3.2871841e-07
5.9193348e-09
3.2693256e-07
5.7852244e-09
3.2518543e-07
5.6597393e-09
3.2347399e-07
5.5438574e-09
3.2179365e-07
5.4428467e-09
3.2014296e-07
5.3467768e-09
3.1852211e-07
5.2500922e-09
3.1693077e-07
5.1542529e-09
3.1536682e-07
5.0652885e-09
3.1382732e-07
4.9860791e-09
3.1231074e-07
4.9117714e-09
3.1081629e-07
4.8399421e-09
3.0934233e-07
4.7733723e-09
3.0788691e-07
4.7132319e-09
3.0644869e-07
4.6575096e-09
3.0502657e-07
4.6052773e-09
3.0361957e-07
4.5561131e-09
3.0222651e-07
4.5108452e-09
3.0084608e-07
4.4698825e-09
2.9947745e-07
4.4316556e-09
2.9811957e-07
4.3966998e-09
2.9677124e-07
4.3656475e-09
2.9543176e-07
4.3368903e-09
2.9410049e-07
4.3102885e-09
2.9277601e-07
4.2882053e-09
2.9145732e-07
4.2693477e-09
2.9014404e-07
4.2516999e-09
2.8883552e-07
4.236226e-09
2.8753077e-07
4.2240099e-09
2.8622863e-07
4.2154291e-09
2.8492836e-07
4.2092594e-09
2.8362974e-07
4.2038443e-09
2.8233199e-07
4.2009843e-09
2.8103344e-07
4.2035096e-09
2.7973302e-07
4.2094379e-09
2.7843074e-07
4.2153609e-09
2.7712599e-07
4.2232878e-09
2.7581642e-07
4.2388779e-09
2.7450056e-07
4.259107e-09
2.7317897e-07
4.2775262e-09
2.7185125e-07
4.2973381e-09
2.705154e-07
4.3235911e-09
2.6916982e-07
4.3549849e-09
2.6781429e-07
4.3870638e-09
2.6644792e-07
4.4220899e-09
2.6506815e-07
4.4654202e-09
2.6367341e-07
4.5137207e-09
2.6226332e-07
4.5633242e-09
2.6083605e-07
4.6188664e-09
2.59389e-07
4.6827631e-09
2.5792109e-07
4.7501874e-09
2.564309e-07
4.8221626e-09
2.5491439e-07
4.9072987e-09
2.5343403e-07
4.7901711e-09
2.5202442e-07
4.5611734e-09
2.506766e-07
4.3611857e-09
2.4938568e-07
4.176987e-09
2.4815087e-07
3.9953975e-09
2.4696817e-07
3.8267101e-09
2.458328e-07
3.6735596e-09
2.4474107e-07
3.5322734e-09
2.4369075e-07
3.398255e-09
2.4267946e-07
3.2719374e-09
2.4170395e-07
3.1561401e-09
2.4076122e-07
3.0500679e-09
2.3984948e-07
2.9497791e-09
2.389674e-07
2.8537566e-09
2.3811318e-07
2.7636552e-09
2.3728407e-07
2.682383e-09
2.3647808e-07
2.6075898e-09
2.3569106e-07
2.5462265e-09
2.3492541e-07
2.4770994e-09
2.3416098e-07
2.4734706e-09
2.3342868e-07
2.3696659e-09
2.3252686e-07
2.9167541e-09
1.8120164e-09
2.8986004e-06
1.7329954e-10
2.898514e-06
5.5584067e-10
2.8983754e-06
8.925662e-10
2.8982023e-06
1.1140863e-09
2.8980004e-06
1.2993395e-09
2.897772e-06
1.4693113e-09
2.8975192e-06
1.6266198e-09
2.8972432e-06
1.7757337e-09
2.8969442e-06
1.9233992e-09
2.8966215e-06
2.0759975e-09
2.8962734e-06
2.2393859e-09
2.8958972e-06
2.4202125e-09
2.8954889e-06
2.6269958e-09
2.8950425e-06
2.8724126e-09
2.8945495e-06
3.1727511e-09
2.893996e-06
3.5617473e-09
2.8933642e-06
4.065993e-09
2.892613e-06
4.8345614e-09
2.8917119e-06
5.7994356e-09
2.89046e-06
8.0585293e-09
2.8889021e-06
1.0027963e-08
2.8844739e-06
2.8517853e-08
2.8808579e-06
2.3245605e-08
1.976195e-06
7.2946622e-06
8.5448562e-07
8.1593633e-06
6.2744916e-07
8.9760675e-07
6.1873131e-07
2.8117832e-08
6.1245837e-07
2.0903343e-08
5.9838406e-07
4.9480728e-08
5.8316936e-07
5.3687044e-08
5.6952015e-07
4.8202405e-08
5.5770748e-07
4.1691436e-08
5.4738056e-07
3.6424537e-08
5.3822456e-07
3.2283982e-08
5.3001386e-07
2.894397e-08
5.2251907e-07
2.6413776e-08
5.1557392e-07
2.4471057e-08
5.0911805e-07
2.2741923e-08
5.03105e-07
2.1177283e-08
4.9749843e-07
1.9741368e-08
4.922542e-07
1.8461635e-08
4.8732654e-07
1.7343785e-08
4.8268084e-07
1.6348438e-08
4.7828469e-07
1.5467612e-08
4.7410976e-07
1.4686903e-08
4.7013529e-07
1.3979688e-08
4.6634398e-07
1.3333424e-08
4.62721e-07
1.2739622e-08
4.5924987e-07
1.2204289e-08
4.5591927e-07
1.1708634e-08
4.5271891e-07
1.1249277e-08
4.4963392e-07
1.0842786e-08
4.4665646e-07
1.0463592e-08
4.4378063e-07
1.0105234e-08
4.4099554e-07
9.7855928e-09
4.3829489e-07
9.4880295e-09
4.3567518e-07
9.202565e-09
4.3312812e-07
8.94665e-09
4.3064693e-07
8.7147287e-09
4.2822991e-07
8.488433e-09
4.258731e-07
8.2761523e-09
4.235695e-07
8.0888245e-09
4.2131569e-07
7.9135468e-09
4.1910773e-07
7.751818e-09
4.1693974e-07
7.6108343e-09
4.148099e-07
7.4766142e-09
4.1271844e-07
7.3415568e-09
4.1066489e-07
7.2078022e-09
4.0864653e-07
7.083645e-09
4.0665961e-07
6.9730057e-09
4.0470217e-07
6.869206e-09
4.0277316e-07
6.7689518e-09
4.0087046e-07
6.6760721e-09
3.9899158e-07
6.5921115e-09
3.9713482e-07
6.5142752e-09
3.9529874e-07
6.4413506e-09
3.9348207e-07
6.3727891e-09
3.9168326e-07
6.3096505e-09
3.899007e-07
6.252444e-09
3.8813328e-07
6.1990726e-09
3.8637965e-07
6.1503371e-09
3.8463822e-07
6.1070692e-09
3.8290815e-07
6.0669627e-09
3.811886e-07
6.0298361e-09
3.7947776e-07
5.9990516e-09
3.7777427e-07
5.9728333e-09
3.7607768e-07
5.9482932e-09
3.7438718e-07
5.9267299e-09
3.7270146e-07
5.90973e-09
3.7101903e-07
5.8978593e-09
3.6933891e-07
5.88937e-09
3.6766086e-07
5.881904e-09
3.6598385e-07
5.8779888e-09
3.6430573e-07
5.8816286e-09
3.626251e-07
5.890065e-09
3.6094199e-07
5.8984795e-09
3.5925562e-07
5.9096576e-09
3.5756292e-07
5.9315694e-09
3.5586202e-07
5.9600114e-09
3.5415363e-07
5.9859158e-09
3.5243723e-07
6.0137347e-09
3.5071025e-07
6.0505724e-09
3.489706e-07
6.0946377e-09
3.47218e-07
6.1396604e-09
3.4545131e-07
6.1887802e-09
3.4366721e-07
6.2495275e-09
3.4186366e-07