/*--------------------------------*- C++ -*----------------------------------*\
  =========                 |
  \\      /  F ield         | OpenFOAM: The Open Source CFD Toolbox
   \\    /   O peration     | Website:  https://openfoam.org
    \\  /    A nd           | Version:  12
     \\/     M anipulation  |
\*---------------------------------------------------------------------------*/
FoamFile
{
    format      ascii;
    class       volVectorField;
    location    "1400";
    object      U;
}
// * * * * * * * * * * * * * * * * * * * * * * * * * * * * * * * * * * * * * //

dimensions      [0 1 -1 0 0 0 0];

internalField   nonuniform List<vector> 
13056
(
(1 2.3232981e-10 3.7122954e-24)
(0.99998253 8.4578796e-10 0)
(0.99994189 1.5411596e-09 0)
(0.99988773 2.1820991e-09 0)
(0.99982316 2.8858264e-09 0)
(0.9997491 3.6988655e-09 0)
(0.99966629 4.6388923e-09 0)
(0.99957534 5.7329283e-09 0)
(0.99947654 7.0233414e-09 0)
(0.99936977 8.5637634e-09 0)
(0.99925462 1.0420056e-08 0)
(0.99913035 1.2678057e-08 0)
(0.99899584 1.5454028e-08 0)
(0.99884943 1.8917088e-08 0)
(0.99868865 2.33005e-08 0)
(0.99851008 2.9026631e-08 0)
(0.9983077 3.6550737e-08 0)
(0.9980751 4.7590127e-08 0)
(0.9977908 6.1968107e-08 0)
(0.9974541 9.2517635e-08 0)
(0.99693076 1.2221273e-07 0)
(0.99637679 3.6428277e-07 0)
(0.99389913 3.0559681e-07 -4.722655e-21)
(0.99385677 0.0001221299 1.1694721e-16)
(0.026180633 0.00012478753 0)
(0.012814122 1.2804794e-06 -5.0075276e-17)
(0.012492674 7.6677706e-09 1.4394066e-20)
(0.01251149 5.5313189e-09 6.3623079e-21)
(0.012261648 1.3905104e-08 0)
(0.011940211 1.5093566e-08 0)
(0.011639657 1.3482748e-08 0)
(0.011380309 1.1525979e-08 0)
(0.011155723 9.9541472e-09 0)
(0.010957934 8.7328038e-09 0)
(0.010781471 7.7491341e-09 0)
(0.010622423 6.9951558e-09 0)
(0.010475322 6.4090724e-09 0)
(0.010338844 5.8888241e-09 0)
(0.010211822 5.4206051e-09 0)
(0.010093511 4.9931055e-09 0)
(0.0099831588 4.6127225e-09 0)
(0.0098797024 4.2796855e-09 0)
(0.0097823254 3.9828006e-09 0)
(0.009690419 3.7195512e-09 0)
(0.0096032609 3.4847735e-09 0)
(0.0095204115 3.272391e-09 0)
(0.0094414542 3.0777564e-09 0)
(0.0093661033 2.8987927e-09 0)
(0.0092940334 2.7374716e-09 0)
(0.0092248839 2.5871914e-09 0)
(0.0091585654 2.4478978e-09 0)
(0.0090947435 2.3237199e-09 0)
(0.0090331303 2.2068986e-09 0)
(0.0089737079 2.0967714e-09 0)
(0.0089162523 1.9975916e-09 0)
(0.0088605281 1.904393e-09 0)
(0.0088065213 1.8151954e-09 0)
(0.0087541114 1.734002e-09 0)
(0.0087030668 1.6593291e-09 0)
(0.008653339 1.5865915e-09 0)
(0.0086049217 1.5179285e-09 0)
(0.0085576586 1.4557308e-09 0)
(0.0085114057 1.3968769e-09 0)
(0.0084661692 1.3410657e-09 0)
(0.0084217949 1.2899601e-09 0)
(0.0083781961 1.2414182e-09 0)
(0.0083353719 1.1935775e-09 0)
(0.008293334 1.1465577e-09 0)
(0.0082520647 1.1019969e-09 0)
(0.0082114691 1.0607477e-09 0)
(0.008171478 1.0212851e-09 0)
(0.0081320813 9.8292298e-10 0)
(0.0080932542 9.4628712e-10 0)
(0.0080549376 9.1178783e-10 0)
(0.0080170829 8.7884466e-10 0)
(0.0079796641 8.471269e-10 0)
(0.0079426533 8.1637458e-10 0)
(0.0079060336 7.8691493e-10 0)
(0.007869757 7.5893672e-10 0)
(0.0078337971 7.3184014e-10 0)
(0.0077981366 7.0566882e-10 0)
(0.0077627439 6.8053658e-10 0)
(0.0077275881 6.5628378e-10 0)
(0.0076926605 6.3279034e-10 0)
(0.0076579324 6.1032896e-10 0)
(0.0076233609 5.8857667e-10 0)
(0.0075889405 5.6734621e-10 0)
(0.0075546563 5.4685606e-10 0)
(0.0075204844 5.2705458e-10 0)
(0.0074863959 5.0795199e-10 0)
(0.0074523637 4.8939027e-10 0)
(0.0074183769 4.7122877e-10 0)
(0.0073844325 4.5362816e-10 0)
(0.0073504897 4.3682237e-10 0)
(0.0073165035 4.2052444e-10 0)
(0.0072824668 4.0444204e-10 0)
(0.0072483861 3.8879653e-10 0)
(0.0072142189 3.7400816e-10 0)
(0.0071798837 3.5972146e-10 0)
(0.0071453912 3.4541932e-10 0)
(0.0071107596 3.3140831e-10 0)
(0.0070759446 3.1801146e-10 0)
(0.0070408861 3.0506023e-10 0)
(0.007005564 2.9224998e-10 0)
(0.0069699876 2.7974835e-10 0)
(0.0069340962 2.6783468e-10 0)
(0.0068978161 2.5623379e-10 0)
(0.006861144 2.4474847e-10 0)
(0.006824061 2.3363035e-10 0)
(0.0067864865 2.2292562e-10 0)
(0.0067483673 2.1237439e-10 0)
(0.0067097016 2.0202623e-10 0)
(0.0066704139 1.9219318e-10 0)
(0.0066312631 1.8284917e-10 0)
(0.006593549 1.74106e-10 0)
(0.0065575958 1.66477e-10 0)
(0.0065231118 1.5944119e-10 0)
(0.0064901344 1.5250393e-10 0)
(0.0064585844 1.4606667e-10 0)
(0.0064283317 1.4022282e-10 0)
(0.0063992552 1.3482548e-10 0)
(0.0063712853 1.297059e-10 0)
(0.0063443741 1.2488643e-10 0)
(0.0063184442 1.2046832e-10 0)
(0.006293403 1.1641952e-10 0)
(0.0062691865 1.1258782e-10 0)
(0.0062457656 1.0892184e-10 0)
(0.0062231001 1.0548731e-10 0)
(0.0062011338 1.0238784e-10 0)
(0.00617978 9.9539352e-11 0)
(0.0061590215 9.7194635e-11 0)
(0.0061386558 9.4592945e-11 0)
(0.0061190158 9.4432127e-11 0)
(0.0060986896 3.4182022e-10 0)
(0.0060807383 1.0932893e-10 1.5017011e-22)
(0.006051545 2.6411086e-10 0)
(1 7.0044036e-10 0)
(0.99998253 2.5499531e-09 0)
(0.99994189 4.6464649e-09 0)
(0.99988772 6.5789806e-09 0)
(0.99982315 8.7008835e-09 0)
(0.99974909 1.1152419e-08 0)
(0.99966627 1.3986856e-08 0)
(0.99957531 1.728564e-08 0)
(0.99947649 2.1176491e-08 0)
(0.99936971 2.582109e-08 0)
(0.99925454 3.1417995e-08 0)
(0.99913025 3.822599e-08 0)
(0.99899572 4.659558e-08 0)
(0.99884929 5.7036624e-08 0)
(0.99868849 7.025236e-08 0)
(0.99850991 8.751612e-08 0)
(0.99830752 1.1020039e-07 0)
(0.99807489 1.4348229e-07 0)
(0.99779058 1.8682928e-07 0)
(0.99745386 2.7892688e-07 0)
(0.9969305 3.6843568e-07 0)
(0.99637653 1.0981798e-06 0)
(0.99389888 9.2196607e-07 1.7484736e-20)
(0.99385662 0.00036118466 -1.3575993e-20)
(0.076481771 0.00036832876 0)
(0.038634739 7.2438189e-06 0)
(0.037664677 1.5900721e-07 2.2377908e-20)
(0.037721341 1.183236e-07 0)
(0.036967644 2.9252534e-07 -4.5660085e-21)
(0.035997639 3.1606241e-07 0)
(0.035091757 2.8184342e-07 0)
(0.03431011 2.4124222e-07 0)
(0.033633056 2.0849273e-07 0)
(0.033036746 1.8288618e-07 0)
(0.03250475 1.6226121e-07 0)
(0.032025264 1.4648259e-07 0)
(0.031581791 1.3421124e-07 0)
(0.031170342 1.2332015e-07 0)
(0.030787401 1.1351025e-07 0)
(0.030430721 1.0456123e-07 0)
(0.030098036 9.6597753e-08 0)
(0.029786138 8.962407e-08 0)
(0.029492567 8.3409988e-08 0)
(0.029215489 7.7894342e-08 0)
(0.028952724 7.2982661e-08 0)
(0.028702949 6.8529968e-08 0)
(0.02846491 6.4456533e-08 0)
(0.028237739 6.0714e-08 0)
(0.028020462 5.7326185e-08 0)
(0.027811992 5.4184433e-08 0)
(0.02761205 5.1272066e-08 0)
(0.027419639 4.8662149e-08 0)
(0.027233888 4.6220347e-08 0)
(0.027054737 4.3918421e-08 0)
(0.026881518 4.1834764e-08 0)
(0.026713521 3.9883717e-08 0)
(0.026550699 3.8020006e-08 0)
(0.026392689 3.6318554e-08 0)
(0.026238799 3.4749529e-08 0)
(0.026088879 3.3229936e-08 0)
(0.025942907 3.1795435e-08 0)
(0.025800414 3.0489173e-08 0)
(0.02566097 2.925365e-08 0)
(0.025524591 2.8088335e-08 0)
(0.025390807 2.7020617e-08 0)
(0.025259361 2.6000537e-08 0)
(0.025130255 2.4996701e-08 0)
(0.025003518 2.4014282e-08 0)
(0.024879095 2.3083389e-08 0)
(0.024756704 2.2217158e-08 0)
(0.024636138 2.13893e-08 0)
(0.024517363 2.0586667e-08 0)
(0.024400304 1.9821269e-08 0)
(0.024284784 1.9098131e-08 0)
(0.024170657 1.8406997e-08 0)
(0.024057846 1.774184e-08 0)
(0.023946264 1.7099401e-08 0)
(0.023835859 1.6483566e-08 0)
(0.023726489 1.5895814e-08 0)
(0.023618075 1.5327828e-08 0)
(0.023510565 1.478019e-08 0)
(0.02340386 1.4254823e-08 0)
(0.023297868 1.3746472e-08 0)
(0.023192566 1.3253837e-08 0)
(0.023087866 1.2782849e-08 0)
(0.022983638 1.2328144e-08 0)
(0.022879864 1.1884199e-08 0)
(0.022776501 1.1454047e-08 0)
(0.022673477 1.1039074e-08 0)
(0.022570705 1.0639205e-08 0)
(0.022468103 1.0250961e-08 0)
(0.022365636 9.8704079e-09 0)
(0.022263297 9.5014091e-09 0)
(0.022160965 9.1492262e-09 0)
(0.022058501 8.8083478e-09 0)
(0.021955883 8.4717174e-09 0)
(0.021853134 8.1435881e-09 0)
(0.021750124 7.8336492e-09 0)
(0.021646608 7.5347242e-09 0)
(0.021542617 7.2353821e-09 0)
(0.021438206 6.9416397e-09 0)
(0.021333244 6.6608752e-09 0)
(0.021227547 6.3898222e-09 0)
(0.021121054 6.1216478e-09 0)
(0.021013795 5.8596232e-09 0)
(0.020905587 5.6099496e-09 0)
(0.020796207 5.3671486e-09 0)
(0.020685644 5.1266668e-09 0)
(0.020573843 4.8935997e-09 0)
(0.02046056 4.6694125e-09 0)
(0.020345635 4.4485022e-09 0)
(0.020229062 4.2317012e-09 0)
(0.020110614 4.0256901e-09 0)
(0.019992579 3.8300538e-09 0)
(0.019878875 3.6469132e-09 0)
(0.01977048 3.4870185e-09 0)
(0.019666514 3.3396908e-09 0)
(0.019567091 3.1944392e-09 0)
(0.019471971 3.0595587e-09 0)
(0.019380763 2.9371069e-09 0)
(0.019293101 2.824097e-09 0)
(0.019208774 2.7169021e-09 0)
(0.01912764 2.6159094e-09 0)
(0.019049464 2.523336e-09 0)
(0.018973968 2.4385172e-09 0)
(0.018900958 2.3582989e-09 0)
(0.018830347 2.2815166e-09 0)
(0.018762013 2.2095063e-09 0)
(0.018695788 2.1445626e-09 0)
(0.018631409 2.0847896e-09 0)
(0.018568826 2.03581e-09 0)
(0.018507429 1.9805876e-09 0)
(0.018448216 1.9781402e-09 0)
(0.018386951 1.9242305e-09 0)
(0.01833283 2.3264797e-09 -2.3385954e-22)
(0.018244815 1.477696e-09 4.2404532e-23)
(1 1.1789792e-09 0)
(0.99998253 4.2921074e-09 0)
(0.99994189 7.8210459e-09 0)
(0.99988772 1.1074094e-08 0)
(0.99982315 1.4646054e-08 0)
(0.99974907 1.8772963e-08 0)
(0.99966624 2.3544451e-08 0)
(0.99957527 2.9097576e-08 0)
(0.99947644 3.5647293e-08 0)
(0.99936964 4.3465732e-08 0)
(0.99925445 5.2887097e-08 0)
(0.99913014 6.4346962e-08 0)
(0.99899559 7.8435293e-08 0)
(0.99884915 9.6010269e-08 0)
(0.99868833 1.1825556e-07 0)
(0.99850973 1.4731439e-07 0)
(0.99830731 1.8549688e-07 0)
(0.99807467 2.4151673e-07 0)
(0.99779034 3.1447802e-07 0)
(0.9974536 4.6948923e-07 0)
(0.99693023 6.2018425e-07 0)
(0.99637624 1.8482668e-06 0)
(0.99389863 1.5527854e-06 -9.2399738e-21)
(0.99385653 0.00059119009 5.9289991e-54)
(0.12548478 0.00061002596 -8.1648836e-54)
(0.065034826 1.9773501e-05 0)
(0.063399547 4.6186477e-07 -1.1922561e-20)
(0.063493319 3.4422472e-07 0)
(0.062223945 8.4986458e-07 0)
(0.060590023 9.1770166e-07 0)
(0.059065637 8.1798005e-07 0)
(0.057750358 7.0024004e-07 0)
(0.056610832 6.0526412e-07 0)
(0.055607143 5.3092825e-07 0)
(0.054711734 4.7104213e-07 0)
(0.053904713 4.252391e-07 0)
(0.053158299 3.8961766e-07 0)
(0.052465782 3.5800179e-07 0)
(0.051821248 3.2952234e-07 0)
(0.051220915 3.035442e-07 0)
(0.050660966 2.8042731e-07 0)
(0.050136003 2.6018327e-07 0)
(0.049641882 2.421446e-07 0)
(0.049175522 2.2613219e-07 0)
(0.048733252 2.118746e-07 0)
(0.048312845 1.98947e-07 0)
(0.047912193 1.8712266e-07 0)
(0.047529828 1.7625932e-07 0)
(0.047164119 1.6642167e-07 0)
(0.046813234 1.5730267e-07 0)
(0.046476699 1.4884937e-07 0)
(0.046152841 1.4126987e-07 0)
(0.045840197 1.3418253e-07 0)
(0.045538654 1.2750142e-07 0)
(0.045247096 1.2145035e-07 0)
(0.044964333 1.1578641e-07 0)
(0.044690276 1.1037758e-07 0)
(0.044424317 1.0543765e-07 0)
(0.044165296 1.008809e-07 0)
(0.043912959 9.6470693e-08 0)
(0.04366726 9.2307577e-08 0)
(0.043427417 8.851402e-08 0)
(0.043192713 8.4926049e-08 0)
(0.042963165 8.154438e-08 0)
(0.04273798 7.8445703e-08 0)
(0.042516732 7.548304e-08 0)
(0.042299426 7.2567979e-08 0)
(0.042086108 6.9716868e-08 0)
(0.04187668 6.7015296e-08 0)
(0.041670672 6.4499727e-08 0)
(0.041467738 6.2095703e-08 0)
(0.041267822 5.9765937e-08 0)
(0.04107079 5.7544646e-08 0)
(0.040876345 5.5445129e-08 0)
(0.040684249 5.3438101e-08 0)
(0.040494369 5.1506784e-08 0)
(0.040306558 4.9642366e-08 0)
(0.040120724 4.7854956e-08 0)
(0.039936633 4.6148016e-08 0)
(0.039754154 4.4498785e-08 0)
(0.039573195 4.290917e-08 0)
(0.03939359 4.1384357e-08 0)
(0.039215185 3.9908436e-08 0)
(0.039037942 3.8477944e-08 0)
(0.038861714 3.7110426e-08 0)
(0.038686279 3.5790714e-08 0)
(0.038511606 3.4502142e-08 0)
(0.038337625 3.3253009e-08 0)
(0.038164218 3.2048125e-08 0)
(0.037991234 3.0887365e-08 0)
(0.037818534 2.9760443e-08 0)
(0.037646061 2.8655592e-08 0)
(0.037473806 2.7584164e-08 0)
(0.037301562 2.6561666e-08 0)
(0.037129096 2.5572232e-08 0)
(0.03695637 2.4595028e-08 0)
(0.036783422 2.3642253e-08 0)
(0.036610038 2.2742369e-08 0)
(0.0364358 2.1874667e-08 0)
(0.036260762 2.1005714e-08 0)
(0.036085018 2.015283e-08 0)
(0.035908346 1.9337657e-08 0)
(0.035730438 1.8550828e-08 0)
(0.035551189 1.777233e-08 0)
(0.03537065 1.7011562e-08 0)
(0.035188516 1.6286668e-08 0)
(0.035004407 1.5581844e-08 0)
(0.034818308 1.4883715e-08 0)
(0.034630124 1.4207018e-08 0)
(0.034439447 1.3556168e-08 0)
(0.034246005 1.2914861e-08 0)
(0.034049789 1.2285433e-08 0)
(0.033850418 1.1687335e-08 0)
(0.033651741 1.11194e-08 0)
(0.033460353 1.0587706e-08 0)
(0.033277903 1.0123468e-08 0)
(0.033102909 9.6957615e-09 0)
(0.03293556 9.274092e-09 0)
(0.032775453 8.8824925e-09 0)
(0.032621931 8.5269742e-09 0)
(0.032474378 8.198902e-09 0)
(0.03233244 7.8877105e-09 0)
(0.032195874 7.5944944e-09 0)
(0.032064289 7.3257194e-09 0)
(0.031937214 7.0794711e-09 0)
(0.031814324 6.8465978e-09 0)
(0.03169547 6.6236838e-09 0)
(0.031580451 6.414597e-09 0)
(0.031468982 6.2260285e-09 0)
(0.031360621 6.0524651e-09 0)
(0.031255282 5.9102378e-09 0)
(0.031151942 5.7498125e-09 0)
(0.031052276 5.7426772e-09 0)
(0.030949177 5.4953594e-09 0)
(0.03085808 6.7613518e-09 0)
(0.030709932 4.2112326e-09 0)
(1 1.67509e-09 7.9557764e-24)
(0.99998253 6.0982383e-09 0)
(0.99994189 1.1112268e-08 0)
(0.99988772 1.5734518e-08 0)
(0.99982314 2.0810089e-08 0)
(0.99974906 2.6674306e-08 0)
(0.99966621 3.3454465e-08 0)
(0.99957523 4.1345248e-08 0)
(0.99947638 5.0652027e-08 0)
(0.99936956 6.1761422e-08 0)
(0.99925435 7.5148257e-08 0)
(0.99913003 9.143139e-08 0)
(0.99899545 1.1144904e-07 0)
(0.99884899 1.3642049e-07 0)
(0.99868814 1.680275e-07 0)
(0.99850953 2.0931514e-07 0)
(0.99830709 2.6356562e-07 0)
(0.99807443 3.4315908e-07 0)
(0.99779008 4.4682322e-07 0)
(0.99745332 6.6705904e-07 0)
(0.99692992 8.8120183e-07 0)
(0.99637592 2.6258826e-06 0)
(0.99389836 2.2068402e-06 0)
(0.99385651 0.00081631672 -3.0624831e-54)
(0.17383214 0.0008548916 4.2523366e-54)
(0.092402567 3.9252721e-05 0)
(0.090080683 9.5175634e-07 0)
(0.090207857 7.1052838e-07 0)
(0.0884031 1.751407e-06 0)
(0.086080254 1.8903888e-06 0)
(0.083915298 1.6843457e-06 0)
(0.082047374 1.4420379e-06 0)
(0.080428687 1.2465919e-06 0)
(0.07900286 1.0935008e-06 0)
(0.07773089 9.7014481e-07 0)
(0.076584485 8.7581468e-07 0)
(0.075524158 8.0245513e-07 0)
(0.07454039 7.3734185e-07 0)
(0.073624784 6.7868514e-07 0)
(0.072771967 6.2518278e-07 0)
(0.071976512 5.7757383e-07 0)
(0.071230754 5.3588095e-07 0)
(0.070528805 4.9873013e-07 0)
(0.06986629 4.6575103e-07 0)
(0.069237995 4.363876e-07 0)
(0.068640758 4.0976035e-07 0)
(0.068071585 3.8540844e-07 0)
(0.067528384 3.6303598e-07 0)
(0.067008846 3.4277073e-07 0)
(0.066510371 3.2399136e-07 0)
(0.066032272 3.0658276e-07 0)
(0.065572184 2.9096817e-07 0)
(0.065128032 2.763727e-07 0)
(0.064699642 2.6261425e-07 0)
(0.064285437 2.5014839e-07 0)
(0.063883732 2.3848277e-07 0)
(0.06349439 2.2734497e-07 0)
(0.063116547 2.171697e-07 0)
(0.062748568 2.0778194e-07 0)
(0.062390086 1.9870031e-07 0)
(0.062041024 1.9012777e-07 0)
(0.061700283 1.8231234e-07 0)
(0.061366849 1.7492065e-07 0)
(0.061040739 1.6795756e-07 0)
(0.06072082 1.6157684e-07 0)
(0.060406495 1.5547288e-07 0)
(0.060097775 1.4946754e-07 0)
(0.05979472 1.4359663e-07 0)
(0.059497187 1.3803362e-07 0)
(0.05920451 1.3285121e-07 0)
(0.058916207 1.2789865e-07 0)
(0.05863219 1.2310065e-07 0)
(0.058352267 1.1852661e-07 0)
(0.058076018 1.1420206e-07 0)
(0.057803108 1.1006728e-07 0)
(0.057533349 1.0608897e-07 0)
(0.057266527 1.0224984e-07 0)
(0.05700251 9.8568961e-08 0)
(0.056740969 9.5052297e-08 0)
(0.056481724 9.1654892e-08 0)
(0.056224636 8.8381159e-08 0)
(0.05596947 8.5241097e-08 0)
(0.055716007 8.2200996e-08 0)
(0.055464195 7.9254111e-08 0)
(0.055213828 7.6437179e-08 0)
(0.054964588 7.3719504e-08 0)
(0.054716426 7.1065806e-08 0)
(0.054469248 6.8492471e-08 0)
(0.054222887 6.6010491e-08 0)
(0.053977127 6.3619848e-08 0)
(0.053731768 6.1299021e-08 0)
(0.053486732 5.9023276e-08 0)
(0.053242006 5.681617e-08 0)
(0.052997296 5.4710031e-08 0)
(0.05275227 5.2672358e-08 0)
(0.052506873 5.0659719e-08 0)
(0.052261161 4.869702e-08 0)
(0.052014832 4.6843379e-08 0)
(0.051767289 4.5056337e-08 0)
(0.051518606 4.3266661e-08 0)
(0.051268921 4.1509798e-08 0)
(0.051017919 3.9830661e-08 0)
(0.05076516 3.8210125e-08 0)
(0.050510495 3.6606714e-08 0)
(0.050253997 3.5039635e-08 0)
(0.049995233 3.3546471e-08 0)
(0.049733665 3.2094818e-08 0)
(0.049469266 3.0656901e-08 0)
(0.049201906 2.9262993e-08 0)
(0.048931005 2.7922412e-08 0)
(0.048656174 2.6601533e-08 0)
(0.048377402 2.5305052e-08 0)
(0.048094148 2.4073105e-08 0)
(0.047811879 2.2903348e-08 0)
(0.047539966 2.1808188e-08 0)
(0.047280751 2.0851925e-08 0)
(0.047032129 1.9970989e-08 0)
(0.046794368 1.9102473e-08 0)
(0.046566897 1.829585e-08 0)
(0.046348782 1.7563544e-08 0)
(0.046139147 1.688782e-08 0)
(0.045937488 1.6246865e-08 0)
(0.045743462 1.5642888e-08 0)
(0.045556514 1.508925e-08 0)
(0.045375972 1.4582034e-08 0)
(0.045201377 1.4102394e-08 0)
(0.045032516 1.3643244e-08 0)
(0.044869103 1.3212535e-08 0)
(0.044710733 1.2824085e-08 0)
(0.044556782 1.2466546e-08 0)
(0.044407123 1.2173515e-08 0)
(0.04426031 1.1842982e-08 0)
(0.044118709 1.1827919e-08 0)
(0.043972263 1.1327941e-08 0)
(0.043842836 1.3934256e-08 0)
(0.043632354 8.6717066e-09 0)
(1 2.196162e-09 0)
(0.99998253 7.9952551e-09 0)
(0.99994189 1.4569178e-08 0)
(0.99988772 2.0629732e-08 0)
(0.99982313 2.7284923e-08 0)
(0.99974904 3.4974339e-08 0)
(0.99966618 4.3864798e-08 0)
(0.99957518 5.4211474e-08 0)
(0.99947631 6.6414681e-08 0)
(0.99936947 8.0981275e-08 0)
(0.99925424 9.8533768e-08 0)
(0.99912989 1.1988352e-07 0)
(0.9989953 1.4612948e-07 0)
(0.99884881 1.7887022e-07 0)
(0.99868794 2.2031066e-07 0)
(0.9985093 2.7444307e-07 0)
(0.99830684 3.4557071e-07 0)
(0.99807416 4.4992457e-07 0)
(0.99778979 5.8583726e-07 0)
(0.99745301 8.7457951e-07 0)
(0.99692959 1.1553604e-06 0)
(0.99637557 3.4426046e-06 0)
(0.99389807 2.893888e-06 0)
(0.99385657 0.0010393322 0)
(0.22204956 0.0011032168 0)
(0.12113803 6.5616064e-05 0)
(0.11809594 1.6512062e-06 0)
(0.1182461 1.2360843e-06 1.2637335e-20)
(0.11587839 3.0386233e-06 0)
(0.1128326 3.2783503e-06 0)
(0.10999677 2.919954e-06 0)
(0.10755003 2.5001133e-06 0)
(0.10542922 2.1615152e-06 0)
(0.10356093 1.8960962e-06 0)
(0.10189427 1.6821852e-06 0)
(0.10039213 1.5186342e-06 0)
(0.099002735 1.3914466e-06 0)
(0.09771364 1.2785489e-06 0)
(0.096513847 1.1768419e-06 0)
(0.09539632 1.0840752e-06 0)
(0.094353941 1.0015281e-06 0)
(0.09337667 9.2923778e-07 0)
(0.092456796 8.6482216e-07 0)
(0.091588589 8.0763815e-07 0)
(0.090765215 7.5672484e-07 0)
(0.089982535 7.1055186e-07 0)
(0.08923663 6.6832847e-07 0)
(0.088524745 6.2953723e-07 0)
(0.087843871 5.943925e-07 0)
(0.087190603 5.6183227e-07 0)
(0.086564018 5.3164843e-07 0)
(0.085961042 5.0456729e-07 0)
(0.085378952 4.7926094e-07 0)
(0.084817504 4.5540665e-07 0)
(0.084274647 4.3378626e-07 0)
(0.083748177 4.1355753e-07 0)
(0.083237899 3.9424784e-07 0)
(0.082742685 3.7660221e-07 0)
(0.082260405 3.6031959e-07 0)
(0.081790572 3.4457426e-07 0)
(0.081333072 3.2971208e-07 0)
(0.080886476 3.1615652e-07 0)
(0.080449464 3.0333612e-07 0)
(0.080022049 2.9126466e-07 0)
(0.079602738 2.8020234e-07 0)
(0.079190757 2.6961467e-07 0)
(0.07878613 2.591988e-07 0)
(0.078388927 2.4902036e-07 0)
(0.07799895 2.3937566e-07 0)
(0.077615337 2.3038708e-07 0)
(0.077237461 2.2179709e-07 0)
(0.076865204 2.1347775e-07 0)
(0.076498306 2.0554761e-07 0)
(0.07613622 1.9804804e-07 0)
(0.075778511 1.908763e-07 0)
(0.075424937 1.8397682e-07 0)
(0.075075209 1.7732086e-07 0)
(0.07472915 1.7093872e-07 0)
(0.074386337 1.6483901e-07 0)
(0.074046537 1.5894661e-07 0)
(0.073709563 1.5327015e-07 0)
(0.073375104 1.4782577e-07 0)
(0.073042875 1.4255359e-07 0)
(0.072712812 1.3744243e-07 0)
(0.072384643 1.3255708e-07 0)
(0.072057951 1.2784507e-07 0)
(0.071732666 1.2324373e-07 0)
(0.07140867 1.1878043e-07 0)
(0.071085749 1.1447582e-07 0)
(0.070763615 1.1033036e-07 0)
(0.070442002 1.0630615e-07 0)
(0.070120811 1.0235952e-07 0)
(0.069800027 9.8531583e-08 0)
(0.069479265 9.4879053e-08 0)
(0.069158088 9.1345808e-08 0)
(0.06883642 8.7855732e-08 0)
(0.068514339 8.4451671e-08 0)
(0.068191451 8.123691e-08 0)
(0.067866971 7.8138139e-08 0)
(0.067540993 7.5034701e-08 0)
(0.067213701 7.1987727e-08 0)
(0.066884684 6.9075613e-08 0)
(0.066553362 6.6265472e-08 0)
(0.06621954 6.3484974e-08 0)
(0.065883315 6.0767183e-08 0)
(0.065544119 5.8177619e-08 0)
(0.065201247 5.5660305e-08 0)
(0.064854661 5.3166726e-08 0)
(0.064504194 5.0749261e-08 0)
(0.064149086 4.8424405e-08 0)
(0.063788824 4.6133791e-08 0)
(0.063423394 4.3885374e-08 0)
(0.063052089 4.1748884e-08 0)
(0.062682074 3.9720328e-08 0)
(0.062325632 3.7821064e-08 0)
(0.061985837 3.6162613e-08 0)
(0.061659927 3.463489e-08 0)
(0.061348253 3.3128732e-08 0)
(0.061050067 3.1729822e-08 0)
(0.060764146 3.0459788e-08 0)
(0.06048934 2.928796e-08 0)
(0.060224989 2.8176427e-08 0)
(0.059970643 2.712895e-08 0)
(0.059725576 2.6168762e-08 0)
(0.059488907 2.5289119e-08 0)
(0.059260033 2.4457343e-08 0)
(0.059038675 2.3661059e-08 0)
(0.058824458 2.2914038e-08 0)
(0.058616854 2.2240292e-08 0)
(0.058415043 2.1620176e-08 0)
(0.058218858 2.1111824e-08 0)
(0.058026409 2.0538533e-08 0)
(0.057840786 2.0511506e-08 0)
(0.057648853 1.965255e-08 0)
(0.057479186 2.4173293e-08 -3.0114576e-22)
(0.057203263 1.5035698e-08 5.4606256e-23)
(1 2.7499581e-09 0)
(0.99998253 1.0011426e-08 0)
(0.99994189 1.8243302e-08 0)
(0.99988772 2.5832743e-08 0)
(0.99982312 3.4167179e-08 0)
(0.99974902 4.3796988e-08 0)
(0.99966615 5.4930948e-08 0)
(0.99957513 6.7888485e-08 0)
(0.99947624 8.3170788e-08 0)
(0.99936938 1.0141248e-07 0)
(0.99925412 1.2339304e-07 0)
(0.99912975 1.5012839e-07 0)
(0.99899513 1.8299461e-07 0)
(0.99884861 2.2399337e-07 0)
(0.99868772 2.7588559e-07 0)
(0.99850905 3.4367023e-07 0)
(0.99830657 4.3273573e-07 0)
(0.99807386 5.6340568e-07 0)
(0.99778946 7.3359309e-07 0)
(0.99745266 1.0951429e-06 0)
(0.99692922 1.4467214e-06 0)
(0.99637518 4.3105936e-06 0)
(0.99389775 3.6243016e-06 0)
(0.99385677 0.0012620309 0)
(0.27055465 0.0013584843 0)
(0.15164245 9.9206322e-05 0)
(0.14782005 2.6037417e-06 0)
(0.14796828 1.9559458e-06 0)
(0.14500309 4.7850203e-06 0)
(0.1411939 5.1598871e-06 0)
(0.13765105 4.5940689e-06 0)
(0.1345941 3.9339023e-06 0)
(0.13194353 3.4015709e-06 0)
(0.12960827 2.9839667e-06 0)
(0.12752499 2.6473243e-06 0)
(0.12564726 2.3899771e-06 0)
(0.12391037 2.1898543e-06 0)
(0.1222988 2.0122014e-06 0)
(0.12079881 1.8521512e-06 0)
(0.11940161 1.7061724e-06 0)
(0.11809832 1.5762767e-06 0)
(0.11687637 1.4625188e-06 0)
(0.11572616 1.3611507e-06 0)
(0.11464051 1.2711602e-06 -6.2768841e-33)
(0.11361089 1.1910384e-06 0)
(0.11263213 1.1183708e-06 0)
(0.11169934 1.0519246e-06 0)
(0.11080906 9.9087879e-07 0)
(0.10995755 9.3556124e-07 0)
(0.10914054 8.8432227e-07 0)
(0.10835688 8.3682231e-07 0)
(0.10760274 7.9419361e-07 0)
(0.10687471 7.543688e-07 0)
(0.10617247 7.1683032e-07 0)
(0.10549347 6.8279654e-07 0)
(0.10483497 6.509586e-07 0)
(0.10419671 6.2057299e-07 0)
(0.10357726 5.9279857e-07 0)
(0.102974 5.6716562e-07 0)
(0.10238631 5.4238783e-07 0)
(0.10181401 5.1900067e-07 0)
(0.10125535 4.9766035e-07 0)
(0.10070869 4.774776e-07 0)
(0.10017402 4.5848242e-07 0)
(0.099649467 4.410744e-07 0)
(0.099134082 4.2440529e-07 0)
(0.098627903 4.0800767e-07 0)
(0.098131004 3.9199046e-07 0)
(0.097643128 3.7681299e-07 0)
(0.097163208 3.6266234e-07 0)
(0.096690469 3.4913888e-07 0)
(0.096224755 3.3604556e-07 0)
(0.095765735 3.2356605e-07 0)
(0.095312725 3.1176112e-07 0)
(0.094865193 3.004701e-07 0)
(0.094422834 2.8960913e-07 0)
(0.093985282 2.7913478e-07 0)
(0.093552306 2.6909045e-07 0)
(0.093123391 2.5948708e-07 0)
(0.092698246 2.502107e-07 0)
(0.092276635 2.4127658e-07 0)
(0.091858161 2.3270813e-07 0)
(0.091442471 2.2440898e-07 0)
(0.091029491 2.1636223e-07 0)
(0.090618882 2.0867167e-07 0)
(0.090210114 2.0125583e-07 0)
(0.089803099 1.9401374e-07 0)
(0.089397694 1.869869e-07 0)
(0.088993635 1.8021018e-07 0)
(0.088590557 1.7368522e-07 0)
(0.088188126 1.6735134e-07 0)
(0.087786217 1.6113868e-07 0)
(0.087384816 1.5511227e-07 0)
(0.086983443 1.4936249e-07 0)
(0.086581545 1.4380132e-07 0)
(0.086179026 1.3830771e-07 0)
(0.085775989 1.3294858e-07 0)
(0.085371941 1.278877e-07 0)
(0.084965897 1.2301017e-07 0)
(0.084557973 1.1812512e-07 0)
(0.084148401 1.1332827e-07 0)
(0.08373667 1.0874381e-07 0)
(0.083322053 1.043204e-07 0)
(0.082904299 9.9943562e-08 0)
(0.082483536 9.5664969e-08 0)
(0.082059054 9.1588291e-08 0)
(0.081629968 8.7625743e-08 0)
(0.081196228 8.3700417e-08 0)
(0.080757629 7.9894593e-08 0)
(0.08031322 7.6234739e-08 0)
(0.079862355 7.2628898e-08 0)
(0.07940502 6.9089311e-08 0)
(0.078940328 6.5725927e-08 0)
(0.078477247 6.2532584e-08 0)
(0.078031149 5.9542651e-08 0)
(0.077605882 5.6931712e-08 0)
(0.077197992 5.4526703e-08 0)
(0.076807915 5.2155702e-08 0)
(0.076434716 4.9953384e-08 0)
(0.076076867 4.7953941e-08 0)
(0.075732928 4.6109219e-08 0)
(0.07540207 4.4359411e-08 0)
(0.075083734 4.2710333e-08 0)
(0.074777008 4.1198649e-08 0)
(0.074480795 3.9813831e-08 0)
(0.074194335 3.8504427e-08 0)
(0.073917281 3.7250836e-08 0)
(0.073649165 3.6074703e-08 0)
(0.073389325 3.5013897e-08 0)
(0.073136737 3.4037571e-08 0)
(0.072891188 3.3236981e-08 0)
(0.072650324 3.2334436e-08 0)
(0.07241799 3.229017e-08 0)
(0.072177815 3.0937367e-08 0)
(0.071965452 3.8064987e-08 0)
(0.071620089 2.366187e-08 -3.1138536e-23)
(1 3.3447308e-09 0)
(0.99998253 1.2176796e-08 0)
(0.99994189 2.2189415e-08 0)
(0.99988771 3.1421168e-08 0)
(0.99982312 4.1559604e-08 0)
(0.999749 5.3274055e-08 0)
(0.99966612 6.6818319e-08 0)
(0.99957508 8.2580776e-08 0)
(0.99947616 1.0117092e-07 0)
(0.99936927 1.2336059e-07 0)
(0.99925399 1.500978e-07 0)
(0.99912959 1.826182e-07 0)
(0.99899493 2.2259547e-07 0)
(0.99884839 2.7246422e-07 0)
(0.99868747 3.355825e-07 0)
(0.99850877 4.1803045e-07 0)
(0.99830626 5.26362e-07 0)
(0.99807352 6.8529595e-07 0)
(0.9977891 8.9229525e-07 0)
(0.99745227 1.3320373e-06 0)
(0.9969288 1.7596728e-06 0)
(0.99637475 5.2427072e-06 0)
(0.99389742 4.4090956e-06 0)
(0.99385711 0.001485623 0)
(0.31965511 0.0016226602 0)
(0.18429515 0.00014105467 0)
(0.17956706 3.884101e-06 0)
(0.17965841 2.9242742e-06 -3.2989265e-20)
(0.17605718 7.0920918e-06 1.5312217e-20)
(0.17144442 7.6423309e-06 0)
(0.16715864 6.8017161e-06 0)
(0.16345993 5.8250413e-06 0)
(0.16025157 5.0376071e-06 0)
(0.15742426 4.4193696e-06 0)
(0.15490177 3.9208569e-06 0)
(0.15262789 3.5398262e-06 0)
(0.15052432 3.2435305e-06 0)
(0.14857232 2.9804765e-06 0)
(0.14675528 2.7434757e-06 0)
(0.14506259 2.5273102e-06 0)
(0.14348349 2.3349598e-06 0)
(0.14200283 2.1665012e-06 0)
(0.14060895 2.0163837e-06 0)
(0.13929323 1.8831109e-06 6.7217239e-33)
(0.1380453 1.7644523e-06 0)
(0.13685894 1.6568237e-06 0)
(0.13572822 1.5584165e-06 0)
(0.13464895 1.4680047e-06 0)
(0.13361663 1.3860616e-06 0)
(0.1326261 1.3101743e-06 0)
(0.13167591 1.2398231e-06 0)
(0.13076148 1.1766698e-06 0)
(0.12987867 1.1176842e-06 0)
(0.12902708 1.0620865e-06 0)
(0.12820365 1.0116635e-06 0)
(0.12740505 9.6450081e-07 0)
(0.12663094 9.1949788e-07 0)
(0.12587962 8.7835112e-07 0)
(0.12514792 8.4037085e-07 0)
(0.12443506 8.036711e-07 0)
(0.12374086 7.6903224e-07 0)
(0.12306316 7.3741102e-07 0)
(0.1224 7.0750509e-07 0)
(0.12175138 6.7937147e-07 0)
(0.12111499 6.5358722e-07 0)
(0.12048971 6.2888526e-07 0)
(0.1198756 6.0458697e-07 0)
(0.11927272 5.808623e-07 0)
(0.11868076 5.5838106e-07 0)
(0.11809844 5.3741217e-07 0)
(0.11752482 5.1737199e-07 0)
(0.11695971 4.9797529e-07 0)
(0.11640271 4.7948974e-07 0)
(0.11585297 4.6199882e-07 0)
(0.11530988 4.4526598e-07 0)
(0.11477305 4.2917261e-07 0)
(0.11424204 4.1365695e-07 0)
(0.11371657 3.9877686e-07 0)
(0.11319601 3.8454471e-07 0)
(0.11268002 3.7079787e-07 0)
(0.11216831 3.5756174e-07 0)
(0.11166038 3.4486792e-07 0)
(0.11115582 3.325704e-07 0)
(0.11065455 3.2064515e-07 0)
(0.11015614 3.0924886e-07 0)
(0.10965996 2.9826238e-07 0)
(0.10916588 2.8753258e-07 0)
(0.10867375 2.7711865e-07 0)
(0.10818325 2.6707576e-07 0)
(0.10769393 2.574078e-07 0)
(0.10720538 2.4802325e-07 0)
(0.10671746 2.3881692e-07 0)
(0.10623014 2.2988566e-07 0)
(0.10574284 2.2136509e-07 0)
(0.1052549 2.1312524e-07 0)
(0.10476619 2.0498485e-07 0)
(0.10427684 1.9704233e-07 0)
(0.10378626 1.8954215e-07 0)
(0.10329325 1.8231481e-07 0)
(0.10279793 1.7507602e-07 0)
(0.10230061 1.6796688e-07 0)
(0.10180066 1.611726e-07 0)
(0.10129719 1.5461778e-07 0)
(0.1007899 1.4813179e-07 0)
(0.10027895 1.4179066e-07 0)
(0.09976347 1.3574885e-07 0)
(0.099242389 1.2987674e-07 0)
(0.098715643 1.2405955e-07 0)
(0.098182986 1.1841896e-07 0)
(0.097643264 1.1299496e-07 0)
(0.097095689 1.0765115e-07 0)
(0.096540243 1.0240524e-07 0)
(0.095975852 9.7420476e-08 0)
(0.095413404 9.2687881e-08 0)
(0.09487157 8.8256543e-08 0)
(0.094355031 8.4386732e-08 0)
(0.093859592 8.0822334e-08 0)
(0.093385778 7.7308363e-08 0)
(0.092932459 7.4044186e-08 0)
(0.092497779 7.1080672e-08 0)
(0.092079989 6.8346644e-08 0)
(0.091678082 6.575327e-08 0)
(0.09129138 6.3309014e-08 0)
(0.090918779 6.1068357e-08 0)
(0.090558945 5.9015828e-08 0)
(0.090210952 5.7075162e-08 0)
(0.089874382 5.5217114e-08 0)
(0.089548667 5.3473727e-08 0)
(0.089233005 5.1901219e-08 0)
(0.088926151 5.0454021e-08 0)
(0.088627846 4.9266926e-08 0)
(0.088335238 4.792925e-08 0)
(0.088052978 4.7860791e-08 0)
(0.087761261 4.5853137e-08 -3.6683246e-23)
(0.087503258 5.6432366e-08 0)
(0.087083663 3.5064005e-08 0)
(1 3.9893431e-09 0)
(0.99998253 1.4523639e-08 0)
(0.99994189 2.6466348e-08 0)
(0.99988771 3.7478394e-08 0)
(0.99982311 4.9572603e-08 0)
(0.99974898 6.3547197e-08 0)
(0.99966608 7.9704703e-08 0)
(0.99957502 9.8508181e-08 0)
(0.99947607 1.2068447e-07 0)
(0.99936915 1.4715407e-07 0)
(0.99925384 1.7904766e-07 0)
(0.99912941 2.1783902e-07 0)
(0.99899472 2.6552436e-07 0)
(0.99884814 3.2500751e-07 0)
(0.99868719 4.0029367e-07 0)
(0.99850846 4.9863476e-07 0)
(0.99830592 6.278479e-07 0)
(0.99807315 8.1741507e-07 0)
(0.9977887 1.0643123e-06 0)
(0.99745184 1.5887951e-06 0)
(0.99692834 2.0988779e-06 0)
(0.99637427 6.2527989e-06 0)
(0.99389706 5.2601189e-06 0)
(0.99385763 0.0017108106 -7.7576239e-54)
(0.3695405 0.0018974427 1.1139886e-53)
(0.2194079 0.00019235064 -6.1490759e-19)
(0.21349607 5.6340648e-06 0)
(0.21342031 4.2237305e-06 -3.8042094e-20)
(0.20914599 1.0087073e-05 0)