/*--------------------------------*- C++ -*----------------------------------*\
  =========                 |
  \\      /  F ield         | OpenFOAM: The Open Source CFD Toolbox
   \\    /   O peration     | Website:  https://openfoam.org
    \\  /    A nd           | Version:  12
     \\/     M anipulation  |
\*---------------------------------------------------------------------------*/
FoamFile
{
    format      ascii;
    class       volVectorField;
    location    "1400";
    object      wallShearStress;
}
// * * * * * * * * * * * * * * * * * * * * * * * * * * * * * * * * * * * * * //

dimensions      [0 2 -2 0 0 0 0];

internalField   uniform (0 0 0);

boundaryField
{
    bottom
    {
        type            calculated;
        value           nonuniform List<vector> 
112
(
(-0.005223967 -3.4939621e-05 0)
(-0.0025568742 -5.6716615e-07 7.1386534e-19)
(-0.002492734 -7.0104781e-09 7.424167e-19)
(-0.0024964885 -5.1970798e-09 -2.8001176e-19)
(-0.0024466361 -1.2872194e-08 0)
(-0.002382498 -1.3919659e-08 0)
(-0.0023225267 -1.24215e-08 0)
(-0.0022707775 -1.0629489e-08 0)
(-0.0022259646 -9.1844259e-09 0)
(-0.0021864987 -8.0564523e-09 -8.5864087e-19)
(-0.002151288 -7.1481704e-09 0)
(-0.0021195522 -6.4530302e-09 -6.8771768e-19)
(-0.0020902003 -5.9123993e-09 6.3010645e-19)
(-0.0020629681 -5.4325823e-09 -5.7897666e-19)
(-0.0020376227 -5.0004546e-09 0)
(-0.0020140154 -4.6062053e-09 4.9090422e-19)
(-0.0019919962 -4.2553748e-09 0)
(-0.001971353 -3.9481433e-09 -2.1038895e-19)
(-0.0019519228 -3.6743707e-09 0)
(-0.0019335842 -3.4314069e-09 -3.6570811e-19)
(-0.0019161931 -3.2149987e-09 3.4265209e-19)
(-0.0018996616 -3.0188852e-09 0)
(-0.0018839068 -2.8394148e-09 0)
(-0.0018688717 -2.6745058e-09 0)
(-0.0018544911 -2.5253423e-09 -2.6914091e-19)
(-0.0018406934 -2.3868944e-09 0)
(-0.0018274604 -2.2585583e-09 0)
(-0.0018147257 -2.1436653e-09 0)
(-0.0018024317 -2.0360581e-09 0)
(-0.0017905748 -1.9346127e-09 -2.0620011e-19)
(-0.0017791103 -1.8428825e-09 1.9641225e-19)
(-0.0017679914 -1.7569313e-09 0)
(-0.0017572151 -1.6747874e-09 0)
(-0.0017467574 -1.599848e-09 0)
(-0.0017365722 -1.5307781e-09 1.6314651e-19)
(-0.0017266498 -1.4638023e-09 0)
(-0.0017169888 -1.4005741e-09 0)
(-0.0017075581 -1.3430681e-09 -1.4314712e-19)
(-0.001698329 -1.2886719e-09 0)
(-0.0016893027 -1.2373028e-09 0)
(-0.0016804485 -1.1902414e-09 0)
(-0.0016717489 -1.1453391e-09 1.2207289e-19)
(-0.001663204 -1.1011404e-09 -5.8679201e-20)
(-0.0016548159 -1.057838e-09 1.127478e-19)
(-0.0016465812 -1.016808e-09 0)
(-0.001638481 -9.7867175e-10 0)
(-0.0016305013 -9.422194e-10 -1.5063374e-19)
(-0.0016226403 -9.0685339e-10 0)
(-0.0016148929 -8.7311732e-10 9.3062733e-20)
(-0.0016072473 -8.4126722e-10 0)
(-0.001599694 -8.1083768e-10 0)
(-0.0015922276 -7.8154449e-10 -4.1648868e-20)
(-0.0015848426 -7.5322635e-10 -4.0141387e-20)
(-0.0015775357 -7.2608681e-10 0)
(-0.0015702972 -7.0021324e-10 -7.4631445e-20)
(-0.0015631219 -6.7520019e-10 0)
(-0.0015560064 -6.5106986e-10 0)
(-0.0015489443 -6.2791615e-10 0)
(-0.0015419294 -6.0552646e-10 0)
(-0.0015349601 -5.838334e-10 0)
(-0.0015280306 -5.6309084e-10 0)
(-0.0015211324 -5.4305219e-10 0)
(-0.0015142643 -5.2348915e-10 0)
(-0.0015074234 -5.0454926e-10 0)
(-0.0015006049 -4.8627338e-10 -5.1828865e-20)
(-0.001493803 -4.6865677e-10 0)
(-0.0014870124 -4.5154869e-10 -2.4064623e-20)
(-0.0014802308 -4.3478605e-10 0)
(-0.0014734577 -4.1853627e-10 -2.230483e-20)
(-0.0014666849 -4.0302444e-10 4.2956e-20)
(-0.0014599034 -3.880034e-10 4.1355941e-20)
(-0.0014531119 -3.731725e-10 -1.9887808e-20)
(-0.0014463115 -3.5872316e-10 0)
(-0.001439494 -3.4507214e-10 0)
(-0.0014326429 -3.3190102e-10 3.537614e-20)
(-0.0014257604 -3.1871291e-10 -3.3970886e-20)
(-0.0014188502 -3.0577644e-10 0)
(-0.0014119033 -2.9341061e-10 0)
(-0.0014049079 -2.8146817e-10 -3.0000758e-20)
(-0.0013978599 -2.6965372e-10 0)
(-0.0013907611 -2.581136e-10 0)
(-0.0013835995 -2.4711665e-10 0)
(-0.0013763603 -2.3641941e-10 0)
(-0.0013690429 -2.2582538e-10 0)
(-0.0013616436 -2.1556071e-10 0)
(-0.0013541461 -2.0568515e-10 0)
(-0.00134654 -1.9595312e-10 0)
(-0.0013388248 -1.8640365e-10 1.9868227e-20)
(-0.0013309855 -1.7732939e-10 -1.8900951e-20)
(-0.0013231735 -1.6871093e-10 0)
(-0.0013156482 -1.6064376e-10 0)
(-0.0013084742 -1.5360134e-10 0)
(-0.0013015935 -1.4711137e-10 0)
(-0.0012950133 -1.407125e-10 0)
(-0.0012887179 -1.3477146e-10 0)
(-0.0012826814 -1.2937812e-10 0)
(-0.0012768796 -1.2439953e-10 0)
(-0.0012712987 -1.1967717e-10 -1.2756141e-20)
(-0.0012659289 -1.1522912e-10 0)
(-0.001260755 -1.1115166e-10 0)
(-0.0012557584 -1.0741549e-10 0)
(-0.0012509263 -1.0388155e-10 0)
(-0.001246253 -1.0049925e-10 0)
(-0.0012417304 -9.7328128e-11 0)
(-0.0012373474 -9.4467912e-11 0)
(-0.0012330865 -9.183571e-11 0)
(-0.0012289445 -8.9678485e-11 0)
(-0.0012248808 -8.7250527e-11 0)
(-0.0012209619 -8.7146442e-11 0)
(-0.0012169061 -1.5034277e-10 0)
(-0.0012133242 -1.0224976e-10 -1.098177e-20)
(-0.0012074991 -1.1557074e-10 0)
)
;
    }
    back
    {
        type            empty;
    }
    front
    {
        type            empty;
    }
    inlet
    {
        type            calculated;
        value           uniform (0 0 0);
    }
    outlet
    {
        type            calculated;
        value           uniform (0 0 0);
    }
    top
    {
        type            calculated;
        value           uniform (0 0 0);
    }
    slipsurface
    {
        type            calculated;
        value           uniform (0 0 0);
    }
}


// ************************************************************************* //
