# Probe 0 (1.95 0 0)
# Probe 1 (1.95 1e-10 0)
# Probe 2 (1.95 1e-07 0)
# Time          0               1               2              
100             2.6972987e-06   2.6972987e-06   2.6972987e-06  
200             3.0714918e-05   3.0714918e-05   3.0714918e-05  
300             8.8936964e-05   8.8936964e-05   8.8936964e-05  
400             0.00016130258   0.00016130258   0.00016130258  
500             0.00023454854   0.00023454854   0.00023454854  
600             0.00030022144   0.00030022144   0.00030022144  
700             0.00035539497   0.00035539497   0.00035539497  
800             0.00040258753   0.00040258753   0.00040258753  
900             0.00043998343   0.00043998343   0.00043998343  
1000            0.00046960569   0.00046960569   0.00046960569  
1100            0.00049376526   0.00049376526   0.00049376526  
1200            0.00051287036   0.00051287036   0.00051287036  
1300            0.0005275899    0.0005275899    0.0005275899   
1400            0.00053877758   0.00053877758   0.00053877758  
1500            0.0005471572    0.0005471572    0.0005471572   
1600            0.00055332835   0.00055332835   0.00055332835  
1700            0.00055779085   0.00055779085   0.00055779085  
1800            0.00056094606   0.00056094606   0.00056094606  
1900            0.00056311202   0.00056311202   0.00056311202  
2000            0.00056455616   0.00056455616   0.00056455616  
