# Probe 0 (1.95 0 0)
# Probe 1 (1.95 1e-10 0)
# Probe 2 (1.95 1e-07 0)
# Time          0               1               2              
100             (0.016375663 3.8339745e-14 5.9554207e-25) (0.016375663 3.8339745e-14 5.9554207e-25) (0.016375663 3.8339745e-14 5.9554207e-25)
200             (0.01429655 2.2963424e-11 1.1868175e-23) (0.01429655 2.2963424e-11 1.1868175e-23) (0.01429655 2.2963424e-11 1.1868175e-23)
300             (0.013317619 5.6343775e-11 3.5080867e-23) (0.013317619 5.6343775e-11 3.5080867e-23) (0.013317619 5.6343775e-11 3.5080867e-23)
400             (0.012323908 7.9847875e-11 6.4562517e-23) (0.012323908 7.9847875e-11 6.4562517e-23) (0.012323908 7.9847875e-11 6.4562517e-23)
500             (0.01161746 9.9396775e-11 9.4933424e-23) (0.01161746 9.9396775e-11 9.4933424e-23) (0.01161746 9.9396775e-11 9.4933424e-23)
600             (0.011182299 1.1670166e-10 1.2269043e-22) (0.011182299 1.1670166e-10 1.2269043e-22) (0.011182299 1.1670166e-10 1.2269043e-22)
700             (0.010930833 1.3032445e-10 1.4659548e-22) (0.010930833 1.3032445e-10 1.4659548e-22) (0.010930833 1.3032445e-10 1.4659548e-22)
800             (0.010787481 1.4037529e-10 1.6654998e-22) (0.010787481 1.4037529e-10 1.6654998e-22) (0.010787481 1.4037529e-10 1.6654998e-22)
900             (0.010705293 1.477341e-10 1.8300484e-22) (0.010705293 1.477341e-10 1.8300484e-22) (0.010705293 1.477341e-10 1.8300484e-22)
1000            (0.010658294 1.5318998e-10 1.9609368e-22) (0.010658294 1.5318998e-10 1.9609368e-22) (0.010658294 1.5318998e-10 1.9609368e-22)
1100            (0.01063223 1.5725592e-10 2.0670481e-22) (0.01063223 1.5725592e-10 2.0670481e-22) (0.01063223 1.5725592e-10 2.0670481e-22)
1200            (0.010618847 1.6026883e-10 2.150906e-22) (0.010618847 1.6026883e-10 2.150906e-22) (0.010618847 1.6026883e-10 2.150906e-22)
1300            (0.010613031 1.6245685e-10 2.2139695e-22) (0.010613031 1.6245685e-10 2.2139695e-22) (0.010613031 1.6245685e-10 2.2139695e-22)
1400            (0.01061153 1.640104e-10 2.2616609e-22) (0.01061153 1.640104e-10 2.2616609e-22) (0.01061153 1.640104e-10 2.2616609e-22)
1500            (0.010612286 1.6506593e-10 2.2971435e-22) (0.010612286 1.6506593e-10 2.2971435e-22) (0.010612286 1.6506593e-10 2.2971435e-22)
1600            (0.010614027 1.6575282e-10 2.3230709e-22) (0.010614027 1.6575282e-10 2.3230709e-22) (0.010614027 1.6575282e-10 2.3230709e-22)
1700            (0.010616033 1.6618489e-10 2.3416451e-22) (0.010616033 1.6618489e-10 2.3416451e-22) (0.010616033 1.6618489e-10 2.3416451e-22)
1800            (0.010617938 1.6644035e-10 2.3546255e-22) (0.010617938 1.6644035e-10 2.3546255e-22) (0.010617938 1.6644035e-10 2.3546255e-22)
1900            (0.010619578 1.665759e-10 2.3634179e-22) (0.010619578 1.665759e-10 2.3634179e-22) (0.010619578 1.665759e-10 2.3634179e-22)
2000            (0.010620898 1.6663299e-10 2.36918e-22) (0.010620898 1.6663299e-10 2.36918e-22) (0.010620898 1.6663299e-10 2.36918e-22)
