/*--------------------------------*- C++ -*----------------------------------*\
  =========                 |
  \\      /  F ield         | OpenFOAM: The Open Source CFD Toolbox
   \\    /   O peration     | Website:  https://openfoam.org
    \\  /    A nd           | Version:  12
     \\/     M anipulation  |
\*---------------------------------------------------------------------------*/
FoamFile
{
    format      ascii;
    class       volScalarField;
    location    "900";
    object      nut;
}
// * * * * * * * * * * * * * * * * * * * * * * * * * * * * * * * * * * * * * //

dimensions      [0 2 -1 0 0 0 0];

internalField   nonuniform List<scalar> 
13056
(
1.4727363e-06
1.4728061e-06
1.4730512e-06
1.4734679e-06
1.4740118e-06
1.4746563e-06
1.4753847e-06
1.476184e-06
1.4770436e-06
1.4779553e-06
1.478913e-06
1.4799128e-06
1.4809528e-06
1.482033e-06
1.4831565e-06
1.4843279e-06
1.4855595e-06
1.4868593e-06
1.4882676e-06
1.4897812e-06
1.4915113e-06
1.4935853e-06
1.4953287e-06
1.5006112e-06
2.8193633e-13
8.144837e-14
6.5833682e-14
6.0872749e-14
5.7818836e-14
5.5336989e-14
5.3199441e-14
5.1329217e-14
4.9674173e-14
4.8192024e-14
4.685146e-14
4.5629738e-14
4.4509525e-14
4.3476963e-14
4.2520706e-14
4.1631419e-14
4.0801307e-14
4.0023787e-14
3.9293183e-14
3.8604625e-14
3.7953918e-14
3.7337375e-14
3.675187e-14
3.6194604e-14
3.5663057e-14
3.5155103e-14
3.4668804e-14
3.4202366e-14
3.3754252e-14
3.3323101e-14
3.2907613e-14
3.2506614e-14
3.2119114e-14
3.174419e-14
3.1380934e-14
3.1028542e-14
3.0686339e-14
3.0353679e-14
3.002991e-14
2.9714443e-14
2.9406804e-14
2.9106529e-14
2.8813139e-14
2.8526194e-14
2.8245321e-14
2.7970185e-14
2.7700445e-14
2.7435754e-14
2.7175799e-14
2.6920334e-14
2.6669108e-14
2.6421853e-14
2.6178312e-14
2.5938264e-14
2.5701522e-14
2.546789e-14
2.5237154e-14
2.5009108e-14
2.4783592e-14
2.4560455e-14
2.4339529e-14
2.4120633e-14
2.3903596e-14
2.3688296e-14
2.34746e-14
2.3262352e-14
2.3051391e-14
2.2841576e-14
2.2632793e-14
2.2424916e-14
2.221779e-14
2.2011256e-14
2.1805202e-14
2.159951e-14
2.1394025e-14
2.1188586e-14
2.0983051e-14
2.0777295e-14
2.0571169e-14
2.0364493e-14
2.0157105e-14
1.9948863e-14
1.9739593e-14
1.9529083e-14
1.9317149e-14
1.910361e-14
1.8888239e-14
1.8670768e-14
1.8451034e-14
1.8233541e-14
1.802509e-14
1.7827516e-14
1.7639921e-14
1.7461464e-14
1.7291389e-14
1.7129049e-14
1.6973865e-14
1.6825286e-14
1.6682808e-14
1.6546014e-14
1.6414519e-14
1.6287956e-14
1.6165976e-14
1.6048242e-14
1.5934488e-14
1.5824331e-14
1.5717695e-14
1.5613341e-14
1.5512947e-14
1.5408922e-14
1.5318836e-14
1.516911e-14
1.4727362e-06
1.472806e-06
1.4730511e-06
1.4734678e-06
1.4740117e-06
1.4746563e-06
1.4753848e-06
1.4761841e-06
1.4770438e-06
1.4779555e-06
1.4789133e-06
1.4799132e-06
1.4809532e-06
1.4820336e-06
1.4831571e-06
1.4843285e-06
1.4855602e-06
1.4868599e-06
1.4882682e-06
1.4897817e-06
1.4915116e-06
1.4935856e-06
1.4953281e-06
1.5006203e-06
2.0758746e-11
6.7160949e-12
5.4355664e-12
5.0263361e-12
4.7743486e-12
4.5696706e-12
4.3933817e-12
4.2391071e-12
4.1025517e-12
3.9802426e-12
3.8696053e-12
3.7687672e-12
3.6763004e-12
3.5910629e-12
3.5121199e-12
3.4387021e-12
3.3701667e-12
3.3059711e-12
3.2456471e-12
3.188793e-12
3.135063e-12
3.0841527e-12
3.0358043e-12
2.9897868e-12
2.9458923e-12
2.9039455e-12
2.8637863e-12
2.8252668e-12
2.7882599e-12
2.7526535e-12
2.7183404e-12
2.6852233e-12
2.6532208e-12
2.6222567e-12
2.5922559e-12
2.5631522e-12
2.5348896e-12
2.5074151e-12
2.4806747e-12
2.4546198e-12
2.4292113e-12
2.4044107e-12
2.3801787e-12
2.356479e-12
2.3332806e-12
2.3105559e-12
2.2882768e-12
2.2664146e-12
2.2449435e-12
2.2238431e-12
2.2030928e-12
2.1826704e-12
2.1625547e-12
2.1427274e-12
2.1231732e-12
2.1038757e-12
2.0848174e-12
2.0659811e-12
2.0473539e-12
2.028923e-12
2.0106746e-12
1.992594e-12
1.9746669e-12
1.9568832e-12
1.9392319e-12
1.9217e-12
1.9042746e-12
1.8869437e-12
1.869698e-12
1.8525272e-12
1.8354183e-12
1.8183583e-12
1.8013379e-12
1.7843473e-12
1.7673738e-12
1.7504041e-12
1.7334263e-12
1.7164304e-12
1.6994038e-12
1.6823317e-12
1.6652007e-12
1.6479993e-12
1.6307127e-12
1.6133238e-12
1.5958172e-12
1.578178e-12
1.5603874e-12
1.5424233e-12
1.5242723e-12
1.5063062e-12
1.4890872e-12
1.4727665e-12
1.4572702e-12
1.4425286e-12
1.4284794e-12
1.4150692e-12
1.4022502e-12
1.3899766e-12
1.3782071e-12
1.366907e-12
1.3560447e-12
1.3455898e-12
1.3355135e-12
1.325788e-12
1.3163912e-12
1.3072915e-12
1.2984827e-12
1.2898626e-12
1.2815694e-12
1.2729774e-12
1.2655358e-12
1.2531671e-12
1.4727361e-06
1.4728059e-06
1.4730509e-06
1.4734676e-06
1.4740116e-06
1.4746563e-06
1.4753849e-06
1.4761845e-06
1.4770444e-06
1.4779563e-06
1.4789143e-06
1.4799143e-06
1.4809545e-06
1.482035e-06
1.4831586e-06
1.4843301e-06
1.4855618e-06
1.4868614e-06
1.4882696e-06
1.4897829e-06
1.4915122e-06
1.493586e-06
1.4953255e-06
1.5006247e-06
1.5030723e-10
5.3698976e-11
4.3567909e-11
4.0293076e-11
3.8276933e-11
3.664031e-11
3.5230452e-11
3.3996117e-11
3.2903079e-11
3.1923775e-11
3.103773e-11
3.0230019e-11
2.948925e-11
2.8806307e-11
2.8173727e-11
2.7585364e-11
2.7036084e-11
2.6521548e-11
2.6038012e-11
2.5582263e-11
2.5151534e-11
2.4743391e-11
2.4355769e-11
2.3986821e-11
2.3634882e-11
2.3298548e-11
2.2976537e-11
2.2667665e-11
2.2370916e-11
2.2085388e-11
2.1810225e-11
2.1544649e-11
2.1288005e-11
2.1039684e-11
2.0799084e-11
2.0565675e-11
2.0339008e-11
2.0118657e-11
1.9904191e-11
1.9695222e-11
1.9491433e-11
1.9292517e-11
1.909816e-11
1.890807e-11
1.8721999e-11
1.8539725e-11
1.8361023e-11
1.8185664e-11
1.8013441e-11
1.7844189e-11
1.7677744e-11
1.7513928e-11
1.735257e-11
1.7193526e-11
1.7036669e-11
1.6881871e-11
1.6728991e-11
1.6577891e-11
1.6428467e-11
1.6280616e-11
1.6134229e-11
1.5989187e-11
1.5845375e-11
1.5702712e-11
1.5561111e-11
1.5420468e-11
1.5280677e-11
1.5141644e-11
1.5003293e-11
1.4865542e-11
1.4728288e-11
1.4591425e-11
1.4454878e-11
1.431857e-11
1.4182399e-11
1.4046257e-11
1.391005e-11
1.3773697e-11
1.3637096e-11
1.350013e-11
1.3362692e-11
1.3224686e-11
1.3085998e-11
1.2946487e-11
1.2806032e-11
1.2664512e-11
1.2521776e-11
1.2377649e-11
1.223202e-11
1.2087874e-11
1.1949722e-11
1.1818777e-11
1.1694445e-11
1.1576169e-11
1.1463447e-11
1.1355851e-11
1.1252998e-11
1.1154522e-11
1.106009e-11
1.0969424e-11
1.088227e-11
1.0798384e-11
1.0717537e-11
1.0639503e-11
1.0564108e-11
1.0491096e-11
1.0420418e-11
1.0351257e-11
1.0284716e-11
1.0215791e-11
1.0156083e-11
1.0056838e-11
1.4727359e-06
1.4728056e-06
1.4730505e-06
1.4734672e-06
1.4740113e-06
1.4746563e-06
1.4753852e-06
1.476185e-06
1.4770453e-06
1.4779575e-06
1.4789158e-06
1.4799162e-06
1.4809567e-06
1.4820373e-06
1.4831611e-06
1.4843328e-06
1.4855644e-06
1.4868639e-06
1.4882718e-06
1.4897847e-06
1.4915129e-06
1.4935863e-06
1.4953206e-06
1.5006241e-06
5.5101555e-10
2.1743824e-10
1.7709581e-10
1.6382191e-10
1.5565389e-10
1.4902725e-10
1.4331647e-10
1.3831317e-10
1.3387968e-10
1.2990562e-10
1.2630875e-10
1.2302897e-10
1.2002029e-10
1.172459e-10
1.1467567e-10
1.1228474e-10
1.1005234e-10
1.079609e-10
1.0599528e-10
1.0414244e-10
1.0239117e-10
1.0073162e-10
9.9155397e-11
9.7655017e-11
9.6223734e-11
9.4855835e-11
9.3546125e-11
9.2289806e-11
9.1082741e-11
8.9921274e-11
8.8801932e-11
8.7721554e-11
8.6677475e-11
8.566722e-11
8.4688357e-11
8.3738723e-11
8.2816492e-11
8.1919938e-11
8.1047311e-11
8.019703e-11
7.9367805e-11
7.8558396e-11
7.776752e-11
7.6993995e-11
7.623681e-11
7.5495062e-11
7.4767839e-11
7.4054212e-11
7.3353332e-11
7.2664533e-11
7.1987146e-11
7.1320449e-11
7.0663753e-11
7.0016458e-11
6.937806e-11
6.8748032e-11
6.8125802e-11
6.7510813e-11
6.6902633e-11
6.6300852e-11
6.5705022e-11
6.5114658e-11
6.4529299e-11
6.3948608e-11
6.3372231e-11
6.2799747e-11
6.2230728e-11
6.166479e-11
6.1101623e-11
6.0540891e-11
5.9982174e-11
5.9425046e-11
5.8869202e-11
5.8314322e-11
5.7759994e-11
5.7205781e-11
5.6651298e-11
5.6096211e-11
5.5540116e-11
5.4982529e-11
5.442301e-11
5.386118e-11
5.3296565e-11
5.2728597e-11
5.2156776e-11
5.1580617e-11
5.0999506e-11
5.041272e-11
4.9819816e-11
4.9232948e-11
4.8670472e-11
4.8137339e-11
4.7631126e-11
4.7149564e-11
4.6690615e-11
4.6252535e-11
4.5833762e-11
4.5432805e-11
4.5048314e-11
4.4679155e-11
4.4324293e-11
4.3982739e-11
4.3653554e-11
4.3335824e-11
4.3028835e-11
4.2731553e-11
4.2443774e-11
4.216218e-11
4.1891245e-11
4.161067e-11
4.1367556e-11
4.096343e-11
1.4727355e-06
1.4728051e-06
1.4730499e-06
1.4734667e-06
1.474011e-06
1.4746562e-06
1.4753855e-06
1.4761858e-06
1.4770465e-06
1.4779592e-06
1.478918e-06
1.4799188e-06
1.4809597e-06
1.4820407e-06
1.4831647e-06
1.4843364e-06
1.485568e-06
1.4868674e-06
1.4882748e-06
1.4897871e-06
1.4915137e-06
1.4935865e-06
1.4953133e-06
1.5006185e-06
1.4557741e-09
6.3629662e-10
5.2114856e-10
4.822919e-10
4.5838935e-10
4.3900416e-10
4.2228511e-10
4.0762167e-10
3.946157e-10
3.8294931e-10
3.7238468e-10
3.6274731e-10
3.5390344e-10
3.457458e-10
3.3818647e-10
3.3115294e-10
3.2458453e-10
3.1842982e-10
3.1264446e-10
3.0719034e-10
3.0203458e-10
2.971483e-10
2.9250688e-10
2.8808839e-10
2.8387305e-10
2.7984405e-10
2.7598616e-10
2.7228531e-10
2.6872932e-10
2.6530746e-10
2.6200953e-10
2.5882624e-10
2.5574975e-10
2.5277278e-10
2.498882e-10
2.4708964e-10
2.4437173e-10
2.4172938e-10
2.3915747e-10
2.3665135e-10
2.3420719e-10
2.3182136e-10
2.294901e-10
2.2720993e-10
2.2497785e-10
2.2279122e-10
2.2064735e-10
2.1854351e-10
2.1647721e-10
2.1444647e-10
2.1244932e-10
2.1048366e-10
2.0854744e-10
2.066389e-10
2.0475655e-10
2.0289884e-10
2.0106409e-10
1.9925067e-10
1.9745728e-10
1.9568273e-10
1.9392569e-10
1.9218475e-10
1.9045853e-10
1.8874605e-10
1.8704627e-10
1.8535794e-10
1.836798e-10
1.8201072e-10
1.8034978e-10
1.78696e-10
1.7704814e-10
1.7540494e-10
1.737655e-10
1.7212888e-10
1.7049386e-10
1.6885916e-10
1.6722364e-10
1.6558631e-10
1.6394599e-10
1.6230124e-10
1.6065077e-10
1.5899345e-10
1.573279e-10
1.5565243e-10
1.5396557e-10
1.5226589e-10
1.5055157e-10
1.4882049e-10
1.4707134e-10
1.4533996e-10
1.4368052e-10
1.4210763e-10
1.4061414e-10
1.3919337e-10
1.378393e-10
1.3654678e-10
1.3531121e-10
1.341282e-10
1.3299376e-10
1.3190454e-10
1.3085751e-10
1.2984973e-10
1.2887844e-10
1.2794094e-10
1.2703513e-10
1.2615797e-10
1.2530884e-10
1.2447799e-10
1.2367856e-10
1.2285091e-10
1.2213357e-10
1.2094102e-10
1.4727351e-06
1.4728046e-06
1.4730492e-06
1.4734659e-06
1.4740105e-06
1.4746561e-06
1.4753859e-06
1.4761868e-06
1.4770481e-06
1.4779615e-06
1.4789208e-06
1.4799222e-06
1.4809636e-06
1.4820449e-06
1.4831692e-06
1.4843411e-06
1.4855727e-06
1.4868718e-06
1.4882786e-06
1.48979e-06
1.4915145e-06
1.4935865e-06
1.4953033e-06
1.5006072e-06
3.1730621e-09
1.5420998e-09
1.2731094e-09
1.1791281e-09
1.121259e-09
1.0743178e-09
1.0337764e-09
9.9816241e-10
9.6653003e-10
9.3812639e-10
9.1238516e-10
8.8888868e-10
8.6731556e-10
8.4740759e-10
8.2895279e-10
8.1177613e-10
7.957308e-10
7.8069233e-10
7.6655323e-10
7.53221e-10
7.4061584e-10
7.2866763e-10
7.1731648e-10
7.0650907e-10
6.9619732e-10
6.8634025e-10
6.7690081e-10
6.6784474e-10
6.5914235e-10
6.5076745e-10
6.4269525e-10
6.3490309e-10
6.2737177e-10
6.2008359e-10
6.1302117e-10
6.0616897e-10
5.9951379e-10
5.9304329e-10
5.8674497e-10
5.8060745e-10
5.7462138e-10
5.6877788e-10
5.6306779e-10
5.574826e-10
5.5201499e-10
5.4665847e-10
5.4140651e-10
5.3625244e-10
5.3119014e-10
5.2621478e-10
5.2132156e-10
5.1650531e-10
5.1176107e-10
5.070845e-10
5.0247195e-10
4.9791965e-10
4.9342348e-10
4.8897945e-10
4.8458439e-10
4.8023536e-10
4.7592914e-10
4.7166227e-10
4.6743138e-10
4.6323404e-10
4.5906769e-10
4.5492933e-10
4.5081586e-10
4.4672449e-10
4.4265298e-10
4.3859891e-10
4.3455926e-10
4.3053096e-10
4.2651176e-10
4.2249938e-10
4.1849085e-10
4.14483e-10
4.1047305e-10
4.0645857e-10
4.0243665e-10
3.984038e-10
3.9435683e-10
3.9029298e-10
3.8620884e-10
3.821003e-10
3.7796374e-10
3.7379563e-10
3.6959154e-10
3.6534625e-10
3.6105653e-10
3.5681029e-10
3.5274042e-10
3.4888272e-10
3.452197e-10
3.4173495e-10
3.3841374e-10
3.3524345e-10
3.322128e-10
3.2931103e-10
3.2652835e-10
3.2385657e-10
3.2128821e-10
3.1881612e-10
3.1643352e-10
3.141338e-10
3.1191178e-10
3.0976002e-10
3.0767702e-10
3.0563896e-10
3.0367784e-10
3.0164814e-10
2.9988843e-10
2.9696259e-10
1.4727345e-06
1.4728038e-06
1.4730482e-06
1.4734649e-06
1.4740098e-06
1.4746559e-06
1.4753863e-06
1.476188e-06
1.4770501e-06
1.4779642e-06
1.4789243e-06
1.4799264e-06
1.4809684e-06
1.4820503e-06
1.4831749e-06
1.4843469e-06
1.4855784e-06
1.4868772e-06
1.4882831e-06
1.4897935e-06
1.4915152e-06
1.4935862e-06
1.49529e-06
1.50059e-06
6.0911352e-09
3.3049222e-09
2.7592074e-09
2.55925e-09
2.4356029e-09
2.3351794e-09
2.2482415e-09
2.1716841e-09
2.1035477e-09
2.042273e-09
1.986678e-09
1.9358844e-09
1.8892132e-09
1.8461164e-09
1.8061435e-09
1.7689215e-09
1.7341368e-09
1.7015231e-09
1.6708501e-09
1.6419191e-09
1.6145587e-09
1.5886183e-09
1.5639688e-09
1.5404955e-09
1.5180949e-09
1.4966783e-09
1.4761659e-09
1.456484e-09
1.4375681e-09
1.4193618e-09
1.4018115e-09
1.3848682e-09
1.3684904e-09
1.3526396e-09
1.3372786e-09
1.3223734e-09
1.3078956e-09
1.2938184e-09
1.2801147e-09
1.26676e-09
1.2537339e-09
1.2410171e-09
1.2285898e-09
1.2164337e-09
1.2045327e-09
1.1928729e-09
1.1814399e-09
1.1702195e-09
1.1591983e-09
1.1483658e-09
1.1377116e-09
1.1272245e-09
1.1168937e-09
1.1067098e-09
1.0966648e-09
1.0867506e-09
1.0769582e-09
1.067279e-09
1.057706e-09
1.0482329e-09
1.0388527e-09
1.0295578e-09
1.020341e-09
1.0111969e-09
1.0021199e-09
9.9310362e-10
9.8414123e-10
9.7522667e-10
9.6635504e-10
9.5752109e-10
9.4871828e-10
9.3993991e-10
9.3118105e-10
9.2243674e-10
9.1370052e-10
9.0496551e-10
8.9622562e-10
8.8747555e-10
8.7870896e-10
8.6991828e-10
8.6109652e-10
8.5223765e-10
8.4333425e-10
8.3437738e-10
8.253591e-10
8.1627172e-10
8.0710561e-10
7.9784936e-10
7.8849588e-10
7.792369e-10
7.7036219e-10
7.6194991e-10
7.5396187e-10
7.4636241e-10
7.3911938e-10
7.3220531e-10
7.2559562e-10
7.1926684e-10
7.131977e-10
7.0737029e-10
7.0176835e-10
6.9637628e-10
6.911793e-10
6.8616304e-10
6.813162e-10
6.7662258e-10
6.7207887e-10
6.6763339e-10
6.6335545e-10
6.5892943e-10
6.5509089e-10
6.4870752e-10
1.4727338e-06
1.4728029e-06
1.4730469e-06
1.4734637e-06
1.4740089e-06
1.4746556e-06
1.4753868e-06
1.4761893e-06
1.4770524e-06
1.4779675e-06
1.4789285e-06
1.4799314e-06
1.4809742e-06
1.4820566e-06
1.4831817e-06
1.4843539e-06
1.4855853e-06
1.4868836e-06
1.4882885e-06
1.4897975e-06
1.4915157e-06
1.4935854e-06
1.4952731e-06
1.5005661e-06
1.0674707e-08
6.4872005e-09
5.5022277e-09
5.1164585e-09
4.8753948e-09
4.678964e-09
4.5082342e-09
4.3573308e-09
4.2226216e-09
4.1012048e-09
3.9908529e-09
3.8898938e-09
3.7970234e-09
3.7111841e-09
3.6315027e-09
3.5572535e-09
3.4878248e-09
3.4226947e-09
3.3614113e-09
3.3035843e-09
3.2488761e-09
3.1969895e-09
3.1476697e-09
3.10069e-09
3.0558456e-09
3.0129608e-09
2.9718775e-09
2.9324493e-09
2.8945486e-09
2.8580627e-09
2.8228858e-09
2.7889203e-09
2.7560832e-09
2.7242983e-09
2.6934914e-09
2.6635952e-09
2.6345523e-09
2.6063097e-09
2.5788137e-09
2.552015e-09
2.5258729e-09
2.5003491e-09
2.4754042e-09
2.4510013e-09
2.4271086e-09
2.4036978e-09
2.3807408e-09
2.3582089e-09
2.3360754e-09
2.314319e-09
2.2929191e-09
2.2718535e-09
2.2511005e-09
2.2306412e-09
2.2104596e-09
2.1905394e-09
2.1708629e-09
2.1514127e-09
2.1321747e-09
2.1131362e-09
2.0942833e-09
2.0756009e-09
2.0570744e-09
2.0386929e-09
2.0204455e-09
2.002319e-09
1.9843001e-09
1.9663763e-09
1.9485378e-09
1.9307742e-09
1.9130724e-09
1.8954188e-09
1.8778036e-09
1.8602167e-09
1.8426452e-09
1.8250753e-09
1.8074947e-09
1.7898928e-09
1.7722567e-09
1.7545714e-09
1.7368226e-09
1.7189983e-09
1.7010836e-09
1.6830603e-09
1.6649127e-09
1.646625e-09
1.628178e-09
1.6095486e-09
1.5907226e-09
1.5720859e-09
1.5542217e-09
1.5372876e-09
1.5212068e-09
1.5059077e-09
1.4913255e-09
1.4774051e-09
1.4640969e-09
1.451354e-09
1.4391335e-09
1.4273993e-09
1.4161188e-09
1.4052606e-09
1.394795e-09
1.3846931e-09
1.3749321e-09
1.3654796e-09
1.3563287e-09
1.3473762e-09
1.3387603e-09
1.3298494e-09
1.3221187e-09
1.3092597e-09
1.472733e-06
1.4728018e-06
1.4730454e-06
1.4734621e-06
1.4740077e-06
1.4746551e-06
1.4753873e-06
1.4761909e-06
1.477055e-06
1.4779713e-06
1.4789334e-06
1.4799373e-06
1.4809809e-06
1.4820641e-06
1.4831896e-06
1.484362e-06
1.4855932e-06
1.4868909e-06
1.4882945e-06
1.4898018e-06
1.4915158e-06
1.4935838e-06
1.4952518e-06
1.5005349e-06
1.7448495e-08
1.1891336e-08
1.0310564e-08
9.6283064e-09
9.1926422e-09
8.8351324e-09
8.522325e-09
8.2442482e-09
7.9948856e-09
7.7693621e-09
7.5638578e-09
7.3754583e-09
7.2018601e-09
7.0411774e-09
6.8918429e-09
6.7525469e-09
6.6221788e-09
6.4997872e-09
6.384545e-09
6.2757356e-09
6.1727378e-09
6.0750041e-09
5.9820628e-09
5.893495e-09
5.8089211e-09
5.7280145e-09
5.6504816e-09
5.5760505e-09
5.5044827e-09
5.4355686e-09
5.3691107e-09
5.304927e-09
5.242862e-09
5.1827735e-09
5.1245228e-09
5.0679837e-09
5.0130487e-09
4.9596184e-09
4.9075926e-09
4.8568787e-09
4.8073998e-09
4.7590841e-09
4.7118583e-09
4.6656528e-09
4.6204075e-09
4.5760693e-09
4.5325855e-09
4.4899022e-09
4.4479692e-09
4.4067461e-09
4.3661941e-09
4.3262717e-09
4.286938e-09
4.2481572e-09
4.2098991e-09
4.1721331e-09
4.1348259e-09
4.0979444e-09
4.0614622e-09
4.0253553e-09
3.9895974e-09
3.9541601e-09
3.9190158e-09
3.8841437e-09
3.8495231e-09
3.8151295e-09
3.7809373e-09
3.7469232e-09
3.7130684e-09
3.6793532e-09
3.6457528e-09
3.6122417e-09
3.5788008e-09
3.5454113e-09
3.5120488e-09
3.478687e-09
3.4453025e-09
3.4118751e-09
3.3783806e-09
3.3447901e-09
3.3110769e-09
3.2772177e-09
3.2431843e-09
3.2089425e-09
3.1744618e-09
3.1397126e-09
3.1046581e-09
3.0692548e-09
3.033475e-09
2.9980523e-09
2.9640957e-09
2.9319049e-09
2.9013342e-09
2.8722477e-09
2.8445228e-09
2.8180546e-09
2.7927493e-09
2.7685175e-09
2.745278e-09
2.7229624e-09
2.7015086e-09
2.6808571e-09
2.6609517e-09
2.6417372e-09
2.6231707e-09
2.6051903e-09
2.5877834e-09
2.5707542e-09
2.5543639e-09
2.5374192e-09
2.5227133e-09
2.4982444e-09
1.4727319e-06
1.4728005e-06
1.4730435e-06
1.4734602e-06
1.4740063e-06
1.4746545e-06
1.4753877e-06
1.4761925e-06
1.477058e-06
1.4779756e-06
1.478939e-06
1.4799441e-06
1.4809887e-06
1.4820727e-06
1.4831987e-06
1.4843712e-06
1.4856022e-06
1.4868991e-06
1.4883011e-06
1.4898063e-06
1.4915151e-06
1.4935812e-06
1.4952254e-06
1.5004955e-06
2.6965292e-08
2.0567139e-08
1.8375737e-08
1.7276077e-08
1.6544193e-08
1.5935162e-08
1.5396282e-08
1.4912866e-08
1.4476333e-08
1.4079462e-08
1.3716376e-08
1.3382463e-08
1.3073993e-08
1.2787862e-08
1.2521459e-08
1.2272582e-08
1.2039349e-08
1.1820131e-08
1.1613508e-08
1.1418241e-08
1.1233252e-08
1.1057591e-08
1.0890431e-08
1.0731042e-08
1.0578756e-08
1.0433e-08
1.0293256e-08
1.0159045e-08
1.0029944e-08
9.9055837e-09
9.7856135e-09
9.6697111e-09
9.557599e-09
9.4490252e-09
9.3437433e-09
9.2415285e-09
9.1421882e-09
9.0455456e-09
8.9514227e-09
8.8596535e-09
8.7701001e-09
8.6826344e-09
8.5971256e-09
8.5134491e-09
8.4314969e-09
8.3511735e-09
8.272385e-09
8.1950349e-09
8.1190326e-09
8.0443056e-09
7.9707843e-09
7.8983941e-09
7.827062e-09
7.7567229e-09
7.6873224e-09
7.6188057e-09
7.5511131e-09
7.4841848e-09
7.4179731e-09
7.3524344e-09
7.2875216e-09
7.2231838e-09
7.1593708e-09
7.0960448e-09
7.0331685e-09
6.9706978e-09
6.9085864e-09
6.8467921e-09
6.7852806e-09
6.7240163e-09
6.6629546e-09
6.6020491e-09
6.5412649e-09
6.4805679e-09
6.4199141e-09
6.3592557e-09
6.2985499e-09
6.23776e-09
6.176842e-09
6.1157438e-09
6.0544161e-09
5.9928168e-09
5.9308945e-09
5.868587e-09
5.8058384e-09
5.742595e-09
5.6787897e-09
5.6143428e-09
5.5492041e-09
5.4847086e-09
5.4228767e-09
5.3642546e-09
5.3085779e-09
5.2555999e-09
5.2050978e-09
5.1568811e-09
5.1107794e-09
5.0666305e-09
5.0242868e-09
4.9836237e-09
4.9445286e-09
4.9068934e-09
4.8706158e-09
4.8355958e-09
4.801755e-09
4.7689814e-09
4.7372514e-09
4.7062111e-09
4.6763321e-09
4.6454553e-09
4.6186482e-09
4.5740258e-09
1.4727307e-06
1.4727989e-06
1.4730412e-06
1.4734579e-06
1.4740044e-06
1.4746536e-06
1.4753881e-06
1.4761943e-06
1.4770613e-06
1.4779804e-06
1.4789453e-06
1.4799517e-06
1.4809975e-06
1.4820823e-06
1.4832089e-06
1.4843816e-06
1.4856121e-06
1.4869081e-06
1.4883081e-06
1.4898108e-06
1.4915134e-06
1.4935771e-06
1.495193e-06
1.5004467e-06
3.9752955e-08
3.3747691e-08
3.1338454e-08
2.9766999e-08
2.8636431e-08
2.7670114e-08
2.6798624e-08
2.6005327e-08
2.5281065e-08
2.4617196e-08
2.4006049e-08
2.3441252e-08
2.2917419e-08
2.2429922e-08
2.1974785e-08
2.1548595e-08
2.1148388e-08
2.0771571e-08
2.0415855e-08
2.0079229e-08
1.9759935e-08
1.9456408e-08
1.9167286e-08
1.8891355e-08
1.8627509e-08
1.8374784e-08
1.8132317e-08
1.7899302e-08
1.7675028e-08
1.7458868e-08
1.7250232e-08
1.7048575e-08
1.6853423e-08
1.666435e-08
1.6480936e-08
1.6302798e-08
1.6129607e-08
1.5961061e-08
1.5796857e-08
1.5636709e-08
1.5480381e-08
1.5327654e-08
1.5178303e-08
1.5032115e-08
1.4888902e-08
1.4748502e-08
1.4610752e-08
1.4475486e-08
1.4342549e-08
1.4211814e-08
1.4083161e-08
1.3956463e-08
1.3831592e-08
1.3708437e-08
1.3586902e-08
1.3466892e-08
1.3348305e-08
1.3231038e-08
1.3115006e-08
1.3000134e-08
1.2886341e-08
1.2773537e-08
1.2661637e-08
1.2550573e-08
1.244028e-08
1.2330683e-08
1.22217e-08
1.2113258e-08
1.2005296e-08
1.1897752e-08
1.1790549e-08
1.1683605e-08
1.1576859e-08
1.1470251e-08
1.1363705e-08
1.1257136e-08
1.1150469e-08
1.1043639e-08
1.093657e-08
1.082917e-08
1.0721351e-08
1.0613041e-08
1.0504147e-08
1.0394561e-08
1.0284185e-08
1.0172922e-08
1.0060656e-08
9.9472449e-09
9.8326002e-09
9.7190714e-09
9.6102165e-09
9.5069992e-09
9.4089559e-09
9.3156539e-09
9.2267026e-09
9.1417675e-09
9.0605499e-09
8.9827652e-09
8.908154e-09
8.8364979e-09
8.7675989e-09
8.7012675e-09
8.637324e-09
8.5755929e-09
8.515936e-09
8.4581573e-09
8.4022149e-09
8.3474898e-09
8.294805e-09
8.2403849e-09
8.1931196e-09
8.1144008e-09
1.4727293e-06
1.472797e-06
1.4730386e-06
1.473455e-06
1.4740022e-06
1.4746524e-06
1.4753882e-06
1.4761961e-06
1.4770648e-06
1.4779857e-06
1.4789522e-06
1.4799601e-06
1.4810071e-06
1.4820929e-06
1.4832201e-06
1.4843929e-06
1.4856229e-06
1.4869177e-06
1.4883152e-06
1.4898148e-06
1.4915102e-06
1.493571e-06
1.4951534e-06
1.5003875e-06
5.623708e-08
5.2703874e-08
5.124968e-08
4.939568e-08
4.783821e-08
4.643653e-08
4.5129702e-08
4.3911169e-08
4.2778907e-08
4.1727435e-08
4.0749859e-08
3.9839424e-08
3.8989752e-08
3.819495e-08
3.7449719e-08
3.6749349e-08
3.6089631e-08
3.5466789e-08
3.4877432e-08
3.4318538e-08
3.3787433e-08
3.3281716e-08
3.2799276e-08
3.2338226e-08
3.1896826e-08
3.1473553e-08
3.1067038e-08
3.0676002e-08
3.0299302e-08
2.9935931e-08
2.9584943e-08
2.9245455e-08
2.8916698e-08
2.859798e-08
2.8288622e-08
2.7987997e-08
2.7695564e-08
2.7410831e-08
2.7133302e-08
2.6862509e-08
2.6598059e-08
2.6339592e-08
2.6086741e-08
2.5839151e-08
2.5596513e-08
2.5358555e-08
2.512501e-08
2.4895604e-08
2.4670077e-08
2.4448217e-08
2.4229826e-08
2.4014691e-08
2.3802603e-08
2.359337e-08
2.3386836e-08
2.3182842e-08
2.2981216e-08
2.2781786e-08
2.2584409e-08
2.2388959e-08
2.21953e-08
2.2003284e-08
2.1812763e-08
2.1623624e-08
2.1435759e-08
2.1249038e-08
2.1063327e-08
2.0878499e-08
2.0694452e-08
2.0511081e-08
2.0328256e-08
2.0145838e-08
1.9963721e-08
1.9781804e-08
1.9599957e-08
1.9418038e-08
1.9235918e-08
1.9053484e-08
1.8870608e-08
1.8687131e-08
1.8502907e-08
1.8317805e-08
1.8131673e-08
1.7944324e-08
1.7755586e-08
1.7565297e-08
1.7373255e-08
1.7179219e-08
1.6983034e-08
1.678872e-08
1.6602372e-08
1.6425644e-08
1.6257746e-08
1.6097942e-08
1.5945567e-08
1.5800051e-08
1.5660884e-08
1.5527582e-08
1.5399703e-08
1.5276873e-08
1.5158756e-08
1.5045029e-08
1.4935383e-08
1.4829522e-08
1.4727207e-08
1.4628105e-08
1.4532145e-08
1.4438274e-08
1.4347887e-08
1.4254567e-08
1.4173485e-08
1.4038352e-08
1.4727276e-06
1.4727948e-06
1.4730354e-06
1.4734516e-06
1.4739993e-06
1.4746507e-06
1.4753881e-06
1.4761978e-06
1.4770684e-06
1.4779912e-06
1.4789596e-06
1.4799692e-06
1.4810176e-06
1.4821044e-06
1.4832321e-06
1.4844049e-06
1.4856342e-06
1.4869275e-06
1.4883221e-06
1.4898181e-06
1.4915047e-06
1.4935621e-06
1.4951052e-06
1.5003163e-06
7.6654258e-08
7.8522029e-08
8.0353366e-08
7.8937888e-08
7.7157353e-08
7.5373446e-08
7.3606134e-08
7.1889421e-08
7.0247415e-08
6.8690046e-08
6.7218992e-08
6.5832019e-08
6.4524795e-08
6.3292058e-08
6.2128391e-08
6.1028541e-08
5.9987483e-08
5.9000475e-08
5.8063088e-08
5.7171268e-08
5.6321351e-08
5.5509985e-08
5.4734178e-08
5.3991222e-08
5.3278592e-08
5.2594047e-08
5.1935566e-08
5.1301242e-08
5.0689353e-08
5.009838e-08
4.9526892e-08
4.8973536e-08
4.8437131e-08
4.7916613e-08
4.7410939e-08
4.6919132e-08
4.6440347e-08
4.597382e-08
4.5518779e-08
4.5074488e-08
4.4640322e-08
4.4215719e-08
4.3800102e-08
4.339291e-08
4.2993647e-08
4.2601881e-08
4.2217191e-08
4.1839143e-08
4.1467317e-08
4.1101373e-08
4.0740995e-08
4.0385847e-08
4.0035587e-08
3.9689909e-08
3.9348558e-08
3.9011281e-08
3.8677802e-08
3.8347839e-08
3.8021161e-08
3.7697562e-08
3.7376825e-08
3.7058707e-08
3.6742968e-08
3.6429422e-08
3.6117892e-08
3.5808169e-08
3.5500031e-08
3.519327e-08
3.4887716e-08
3.45832e-08
3.4279505e-08
3.3976405e-08
3.3673721e-08
3.3371288e-08
3.3068892e-08
3.2766295e-08
3.2463283e-08
3.215967e-08
3.185524e-08
3.1549733e-08
3.1242899e-08
3.0934525e-08
3.0624354e-08
3.0312073e-08
2.9997396e-08
2.968005e-08
2.9359697e-08
2.9035933e-08
2.8708495e-08
2.8384095e-08
2.8072913e-08
2.7777723e-08
2.7497219e-08
2.7230179e-08
2.69755e-08
2.6732236e-08
2.6499542e-08
2.6276615e-08
2.606272e-08
2.5857238e-08
2.5659607e-08
2.5469291e-08
2.5285781e-08
2.510858e-08
2.4937293e-08
2.4771366e-08
2.4610679e-08
2.4453488e-08
2.4302103e-08
2.4145879e-08
2.4010091e-08
2.3783581e-08
1.4727256e-06
1.4727921e-06
1.4730316e-06
1.4734476e-06
1.4739958e-06
1.4746485e-06
1.4753876e-06
1.4761992e-06
1.477072e-06
1.4779969e-06
1.4789674e-06
1.4799788e-06
1.4810286e-06
1.4821165e-06
1.4832447e-06
1.4844174e-06
1.4856458e-06
1.4869372e-06
1.4883283e-06
1.4898198e-06
1.4914964e-06
1.4935497e-06
1.4950467e-06
1.5002317e-06
1.009702e-07
1.1184261e-07
1.2069536e-07
1.212895e-07
1.1995412e-07
1.1814496e-07
1.1610716e-07
1.1397273e-07
1.1182712e-07
1.097197e-07
1.0767726e-07
1.0571332e-07
1.0383322e-07
1.0203757e-07
1.0032456e-07
9.8691085e-08
9.7133198e-08
9.5646516e-08
9.4226511e-08
9.2868742e-08
9.1569009e-08
9.0323314e-08
8.9127973e-08
8.7979577e-08
8.6874862e-08
8.5810869e-08
8.4784906e-08
8.379439e-08
8.2836947e-08
8.1910474e-08
8.1012974e-08
8.0142531e-08
7.9297456e-08
7.8476234e-08
7.7677367e-08
7.6899426e-08
7.6141177e-08
7.5401506e-08
7.4679283e-08
7.3973409e-08
7.3282955e-08
7.2607088e-08
7.1944949e-08
7.1295692e-08
7.0658568e-08
7.0032925e-08
6.9418131e-08
6.8813525e-08
6.8218468e-08
6.7632434e-08
6.7054947e-08
6.6485491e-08
6.5923543e-08
6.5368627e-08
6.4820346e-08
6.4278314e-08
6.3742105e-08
6.3211279e-08
6.2685471e-08
6.2164363e-08
6.1647614e-08
6.113485e-08
6.0625687e-08
6.011983e-08
5.9617003e-08
5.9116878e-08
5.8619102e-08
5.8123342e-08
5.7629328e-08
5.713679e-08
5.6645386e-08
5.615475e-08
5.5664596e-08
5.5174656e-08
5.4684587e-08
5.4194009e-08
5.3702571e-08
5.3209971e-08
5.2715862e-08
5.2219822e-08
5.1721444e-08
5.1220377e-08
5.0716204e-08
5.0208417e-08
4.9696545e-08
4.9180139e-08
4.8658648e-08
4.8131409e-08
4.7597988e-08
4.7069317e-08
4.6562006e-08
4.6080603e-08
4.5623001e-08
4.5187231e-08
4.4771512e-08
4.4374315e-08
4.3994277e-08
4.3630099e-08
4.3280592e-08
4.2944752e-08
4.2621674e-08
4.231049e-08
4.2010374e-08
4.1720519e-08
4.1440288e-08
4.1168781e-08
4.0905804e-08
4.0648534e-08
4.0400707e-08
4.0145082e-08
3.9922809e-08
3.9551618e-08
1.4727232e-06
1.4727891e-06
1.4730272e-06
1.4734427e-06
1.4739915e-06
1.4746454e-06
1.4753864e-06
1.4762002e-06
1.4770753e-06
1.4780025e-06
1.4789752e-06
1.4799885e-06
1.4810399e-06
1.4821289e-06
1.4832576e-06
1.4844299e-06
1.485657e-06
1.486946e-06
1.4883329e-06
1.4898192e-06
1.491484e-06
1.4935326e-06
1.4949761e-06
1.5001316e-06
1.2881803e-07
1.5262719e-07
1.7365399e-07
1.788993e-07
1.7936996e-07
1.7838985e-07
1.7665964e-07
1.7449686e-07
1.7209972e-07
1.6959351e-07
1.6705683e-07
1.6453831e-07
1.6206681e-07
1.5965895e-07
1.5732419e-07
1.5506736e-07
1.5289002e-07
1.507915e-07
1.4876973e-07
1.4682189e-07
1.4494477e-07
1.4313495e-07
1.4138899e-07
1.397035e-07
1.3807504e-07
1.3650037e-07
1.3497646e-07
1.3350029e-07
1.3206903e-07
1.3068011e-07
1.2933108e-07
1.2801952e-07
1.2674326e-07
1.2550035e-07
1.2428885e-07
1.2310687e-07
1.2195274e-07
1.2082498e-07
1.1972208e-07
1.1864253e-07
1.1758503e-07
1.1654844e-07
1.155316e-07
1.145333e-07
1.1355248e-07
1.1258823e-07
1.1163966e-07
1.1070583e-07
1.0978582e-07
1.0887887e-07
1.0798429e-07
1.0710136e-07
1.062293e-07
1.0536741e-07
1.0451512e-07
1.0367186e-07
1.0283701e-07
1.0200991e-07
1.0119002e-07
1.0037687e-07
9.9569944e-08
9.8768692e-08
9.797253e-08
9.7181009e-08
9.6393713e-08
9.5610152e-08
9.4829782e-08
9.4052095e-08
9.3276672e-08
9.2503101e-08
9.173086e-08
9.0959379e-08
9.0188209e-08
8.9416934e-08
8.8645026e-08
8.7871885e-08
8.7096959e-08
8.6319772e-08
8.553978e-08
8.4756317e-08
8.3968736e-08
8.3176477e-08
8.2378881e-08
8.1575137e-08
8.0764493e-08
7.994623e-08
7.9119467e-08
7.8283144e-08
7.7436554e-08
7.659705e-08
7.5791045e-08
7.5025828e-08
7.4298102e-08
7.3604793e-08
7.2943107e-08
7.231065e-08
7.1705284e-08
7.1124973e-08
7.056785e-08
7.0032334e-08
6.9517005e-08
6.9020496e-08
6.854151e-08
6.8078774e-08
6.7631282e-08
6.7197618e-08
6.6777475e-08
6.6366406e-08
6.5970295e-08
6.5561925e-08
6.5206675e-08
6.4612607e-08
1.4727205e-06
1.4727856e-06
1.473022e-06
1.4734369e-06
1.4739861e-06
1.4746414e-06
1.4753843e-06
1.4762004e-06
1.477078e-06
1.4780078e-06
1.4789827e-06
1.4799981e-06
1.4810511e-06
1.482141e-06
1.48327e-06
1.4844418e-06
1.4856672e-06
1.4869533e-06
1.4883351e-06
1.4898152e-06
1.4914663e-06
1.4935094e-06
1.4948908e-06
1.5000138e-06
1.5946767e-07
2.0003285e-07
2.3951487e-07
2.5318277e-07
2.5764107e-07
2.5896873e-07
2.5864375e-07
2.5728664e-07
2.5527168e-07
2.5284504e-07
2.5017166e-07
2.4736149e-07
2.4448653e-07
2.4159441e-07
2.387176e-07
2.3587828e-07
2.3309095e-07
2.3036455e-07
2.277042e-07
2.251125e-07
2.2259041e-07
2.2013762e-07
2.1775299e-07
2.1543493e-07
2.1318122e-07
2.1098947e-07
2.0885729e-07
2.0678203e-07
2.0476102e-07
2.0279181e-07
2.0087193e-07
1.9899883e-07
1.9717016e-07
1.9538382e-07
1.9363762e-07
1.9192936e-07
1.902571e-07
1.8861912e-07
1.8701359e-07
1.8543865e-07
1.8389271e-07
1.8237438e-07
1.8088218e-07
1.7941459e-07
1.7797024e-07
1.7654796e-07