/*--------------------------------*- C++ -*----------------------------------*\
  =========                 |
  \\      /  F ield         | OpenFOAM: The Open Source CFD Toolbox
   \\    /   O peration     | Website:  https://openfoam.org
    \\  /    A nd           | Version:  12
     \\/     M anipulation  |
\*---------------------------------------------------------------------------*/
FoamFile
{
    format      ascii;
    class       volScalarField;
    location    "900";
    object      nuTilda;
}
// * * * * * * * * * * * * * * * * * * * * * * * * * * * * * * * * * * * * * //

dimensions      [0 2 -1 0 0 0 0];

internalField   nonuniform List<scalar> 
13056
(
1.9999132e-06
1.9999662e-06
2.000152e-06
2.000468e-06
2.0008805e-06
2.0013694e-06
2.0019219e-06
2.0025282e-06
2.0031803e-06
2.0038719e-06
2.0045985e-06
2.0053571e-06
2.0061463e-06
2.006966e-06
2.0078186e-06
2.0087076e-06
2.0096423e-06
2.0106288e-06
2.0116978e-06
2.0128467e-06
2.01416e-06
2.0157348e-06
2.0170575e-06
2.0210681e-06
2.9974677e-08
2.1975404e-08
2.0836671e-08
2.0432525e-08
2.017129e-08
1.9951255e-08
1.9755732e-08
1.9579768e-08
1.9419992e-08
1.9273482e-08
1.9138028e-08
1.9012026e-08
1.8894249e-08
1.8783703e-08
1.8679555e-08
1.8581113e-08
1.8487787e-08
1.8399074e-08
1.8314528e-08
1.8233761e-08
1.8156435e-08
1.8082246e-08
1.8010936e-08
1.794227e-08
1.7876029e-08
1.7812034e-08
1.7750114e-08
1.7690107e-08
1.7631877e-08
1.7575301e-08
1.7520259e-08
1.7466639e-08
1.7414352e-08
1.7363309e-08
1.7313421e-08
1.726461e-08
1.721681e-08
1.7169959e-08
1.7123988e-08
1.7078838e-08
1.703446e-08
1.6990808e-08
1.6947829e-08
1.6905475e-08
1.6863707e-08
1.6822489e-08
1.6781783e-08
1.6741549e-08
1.6701751e-08
1.666236e-08
1.662335e-08
1.6584685e-08
1.6546335e-08
1.6508273e-08
1.6470475e-08
1.6432917e-08
1.639557e-08
1.6358405e-08
1.6321402e-08
1.6284541e-08
1.6247796e-08
1.6211141e-08
1.617455e-08
1.6138006e-08
1.6101486e-08
1.6064966e-08
1.6028419e-08
1.5991821e-08
1.5955152e-08
1.5918389e-08
1.5881504e-08
1.5844466e-08
1.5807254e-08
1.5769843e-08
1.5732202e-08
1.5694298e-08
1.5656099e-08
1.5617577e-08
1.5578697e-08
1.553942e-08
1.5499705e-08
1.5459517e-08
1.5418813e-08
1.537754e-08
1.5335648e-08
1.529309e-08
1.5249804e-08
1.5205718e-08
1.5160781e-08
1.5115904e-08
1.5072516e-08
1.5031042e-08
1.4991343e-08
1.4953283e-08
1.4916738e-08
1.4881602e-08
1.4847781e-08
1.4815182e-08
1.4783718e-08
1.4753319e-08
1.4723919e-08
1.4695454e-08
1.4667863e-08
1.4641084e-08
1.461507e-08
1.4589745e-08
1.4565104e-08
1.4540868e-08
1.4517437e-08
1.4493038e-08
1.4471809e-08
1.4436316e-08
1.9999132e-06
1.9999661e-06
2.000152e-06
2.000468e-06
2.0008805e-06
2.0013694e-06
2.0019219e-06
2.0025283e-06
2.0031805e-06
2.0038722e-06
2.0045988e-06
2.0053574e-06
2.0061466e-06
2.0069664e-06
2.007819e-06
2.008708e-06
2.0096428e-06
2.0106292e-06
2.0116982e-06
2.0128471e-06
2.0141603e-06
2.0157351e-06
2.0170571e-06
2.021075e-06
8.780954e-08
6.6222579e-08
6.2811122e-08
6.1593905e-08
6.080693e-08
6.0144445e-08
5.9555766e-08
5.9025882e-08
5.8544652e-08
5.8103319e-08
5.7695252e-08
5.7315635e-08
5.6960776e-08
5.6627683e-08
5.6313856e-08
5.6017209e-08
5.5735973e-08
5.5468627e-08
5.5213832e-08
5.4970422e-08
5.4737376e-08
5.4513781e-08
5.429886e-08
5.4091902e-08
5.3892255e-08
5.3699371e-08
5.3512738e-08
5.3331872e-08
5.3156359e-08
5.298583e-08
5.2819923e-08
5.2658303e-08
5.2500696e-08
5.2346839e-08
5.2196464e-08
5.2049333e-08
5.1905251e-08
5.1764026e-08
5.1625456e-08
5.1489357e-08
5.1355586e-08
5.1224001e-08
5.1094445e-08
5.0966774e-08
5.0840869e-08
5.071662e-08
5.0593915e-08
5.0472632e-08
5.0352662e-08
5.0233922e-08
5.0116324e-08
4.9999772e-08
4.9884167e-08
4.9769428e-08
4.9655486e-08
4.9542267e-08
4.9429683e-08
4.9317651e-08
4.9206105e-08
4.9094984e-08
4.8984215e-08
4.8873718e-08
4.8763414e-08
4.8653248e-08
4.8543157e-08
4.8433065e-08
4.8322892e-08
4.8212565e-08
4.8102022e-08
4.7991198e-08
4.7880004e-08
4.7768351e-08
4.7656172e-08
4.7543393e-08
4.7429921e-08
4.7315654e-08
4.7200499e-08
4.7084369e-08
4.6967163e-08
4.6848755e-08
4.672903e-08
4.6607879e-08
4.648517e-08
4.6360746e-08
4.623446e-08
4.6106161e-08
4.5975668e-08
4.5842765e-08
4.5707294e-08
4.5572008e-08
4.5441205e-08
4.5316177e-08
4.5196497e-08
4.5081758e-08
4.4971586e-08
4.4865664e-08
4.4763706e-08
4.4665429e-08
4.4570575e-08
4.4478931e-08
4.4390299e-08
4.4304488e-08
4.422131e-08
4.414058e-08
4.4062155e-08
4.3985809e-08
4.3911523e-08
4.3838462e-08
4.3767825e-08
4.369428e-08
4.3630281e-08
4.3523281e-08
1.9999131e-06
1.999966e-06
2.0001518e-06
2.0004678e-06
2.0008804e-06
2.0013694e-06
2.001922e-06
2.0025286e-06
2.0031809e-06
2.0038727e-06
2.0045995e-06
2.0053583e-06
2.0061476e-06
2.0069675e-06
2.0078202e-06
2.0087092e-06
2.009644e-06
2.0106304e-06
2.0116993e-06
2.012848e-06
2.0141607e-06
2.0157353e-06
2.0170551e-06
2.0210783e-06
1.4407017e-07
1.1136783e-07
1.056945e-07
1.0364917e-07
1.0232716e-07
1.0121506e-07
1.0022678e-07
9.9336895e-08
9.8528416e-08
9.7786776e-08
9.7100916e-08
9.646278e-08
9.5866193e-08
9.5306138e-08
9.4778431e-08
9.4279576e-08
9.3806605e-08
9.3356969e-08
9.2928422e-08
9.2519005e-08
9.2127006e-08
9.175089e-08
9.1389352e-08
9.1041202e-08
9.0705341e-08
9.0380848e-08
9.0066866e-08
8.9762581e-08
8.9467295e-08
8.918039e-08
8.8901256e-08
8.8629331e-08
8.8364154e-08
8.8105284e-08
8.7852269e-08
8.7604711e-08
8.7362278e-08
8.7124651e-08
8.6891489e-08
8.6662483e-08
8.6437393e-08
8.6215977e-08
8.5997976e-08
8.5783146e-08
8.5571283e-08
8.5362208e-08
8.5155729e-08
8.4951642e-08
8.4749762e-08
8.4549951e-08
8.4352062e-08
8.415593e-08
8.3961393e-08
8.3768312e-08
8.3576571e-08
8.3386045e-08
8.3196588e-08
8.3008058e-08
8.2820346e-08
8.2633348e-08
8.2446942e-08
8.2260993e-08
8.2075369e-08
8.1889975e-08
8.1704707e-08
8.1519437e-08
8.133403e-08
8.1148363e-08
8.0962334e-08
8.0775829e-08
8.0588702e-08
8.0400802e-08
8.0212015e-08
8.002222e-08
7.9831257e-08
7.9638956e-08
7.9445159e-08
7.9249723e-08
7.9052473e-08
7.8853202e-08
7.8651713e-08
7.8447824e-08
7.8241312e-08
7.8031913e-08
7.781938e-08
7.760346e-08
7.7383846e-08
7.7160176e-08
7.6932184e-08
7.6704501e-08
7.6484365e-08
7.6273946e-08
7.6072528e-08
7.5879425e-08
7.5694008e-08
7.5515744e-08
7.534415e-08
7.5178751e-08
7.5019113e-08
7.4864877e-08
7.4715712e-08
7.4571293e-08
7.4431306e-08
7.4295437e-08
7.416345e-08
7.4034962e-08
7.390994e-08
7.3786984e-08
7.3668104e-08
7.3544354e-08
7.3436646e-08
7.325656e-08
1.9999129e-06
1.9999658e-06
2.0001515e-06
2.0004675e-06
2.0008802e-06
2.0013693e-06
2.0019222e-06
2.002529e-06
2.0031816e-06
2.0038737e-06
2.0046007e-06
2.0053597e-06
2.0061492e-06
2.0069693e-06
2.0078221e-06
2.0087112e-06
2.009646e-06
2.0106323e-06
2.0117009e-06
2.0128494e-06
2.0141612e-06
2.0157356e-06
2.0170514e-06
2.0210779e-06
1.9943764e-07
1.5801538e-07
1.5010536e-07
1.4720748e-07
1.4533572e-07
1.4376232e-07
1.4236376e-07
1.4110372e-07
1.3995831e-07
1.3890718e-07
1.3793483e-07
1.3702995e-07
1.3618383e-07
1.3538939e-07
1.3464074e-07
1.3393294e-07
1.3326181e-07
1.3262373e-07
1.3201553e-07
1.3143444e-07
1.3087804e-07
1.3034416e-07
1.2983095e-07
1.2933672e-07
1.2885992e-07
1.2839924e-07
1.2795347e-07
1.2752145e-07
1.271022e-07
1.2669484e-07
1.262985e-07
1.2591239e-07
1.2553585e-07
1.2516826e-07
1.2480898e-07
1.2445745e-07
1.2411318e-07
1.2377574e-07
1.2344463e-07
1.2311942e-07
1.2279976e-07
1.2248532e-07
1.2217573e-07
1.2187063e-07
1.2156975e-07
1.2127282e-07
1.2097958e-07
1.2068973e-07
1.2040302e-07
1.2011924e-07
1.1983818e-07
1.1955963e-07
1.1928333e-07
1.190091e-07
1.1873677e-07
1.1846617e-07
1.1819708e-07
1.1792931e-07
1.176627e-07
1.173971e-07
1.1713234e-07
1.1686822e-07
1.1660457e-07
1.1634125e-07
1.160781e-07
1.1581495e-07
1.155516e-07
1.1528788e-07
1.1502364e-07
1.1475873e-07
1.1449294e-07
1.1422604e-07
1.1395789e-07
1.136883e-07
1.1341705e-07
1.131439e-07
1.1286862e-07
1.1259102e-07
1.1231083e-07
1.1202778e-07
1.1174157e-07
1.1145196e-07
1.1115861e-07
1.1086117e-07
1.1055927e-07
1.1025256e-07
1.099406e-07
1.0962289e-07
1.0929902e-07
1.089756e-07
1.086629e-07
1.08364e-07
1.0807788e-07
1.0780358e-07
1.0754019e-07
1.0728696e-07
1.0704321e-07
1.0680826e-07
1.0658149e-07
1.063624e-07
1.061505e-07
1.0594535e-07
1.057465e-07
1.0555349e-07
1.05366e-07
1.0518348e-07
1.0500589e-07
1.0483123e-07
1.0466236e-07
1.0448662e-07
1.0433362e-07
1.0407779e-07
1.9999127e-06
1.9999655e-06
2.0001511e-06
2.0004671e-06
2.0008799e-06
2.0013693e-06
2.0019225e-06
2.0025296e-06
2.0031825e-06
2.003875e-06
2.0046024e-06
2.0053617e-06
2.0061515e-06
2.0069718e-06
2.0078247e-06
2.008714e-06
2.0096487e-06
2.0106349e-06
2.0117032e-06
2.0128512e-06
2.0141618e-06
2.0157357e-06
2.0170459e-06
2.0210736e-06
2.5445572e-07
2.0675948e-07
1.9667286e-07
1.9289248e-07
1.9045233e-07
1.8840243e-07
1.8657933e-07
1.8493537e-07
1.8343978e-07
1.820665e-07
1.8079563e-07
1.7961255e-07
1.78506e-07
1.774668e-07
1.764873e-07
1.7556111e-07
1.7468277e-07
1.7384759e-07
1.7305143e-07
1.722907e-07
1.7156223e-07
1.7086318e-07
1.7019115e-07
1.6954395e-07
1.6891953e-07
1.6831619e-07
1.6773235e-07
1.671665e-07
1.6661735e-07
1.6608376e-07
1.6556458e-07
1.650588e-07
1.6456554e-07
1.6408398e-07
1.636133e-07
1.6315276e-07
1.6270173e-07
1.6225962e-07
1.6182581e-07
1.6139972e-07
1.6098091e-07
1.6056891e-07
1.6016326e-07
1.597635e-07
1.5936926e-07
1.5898019e-07
1.5859594e-07
1.5821614e-07
1.5784044e-07
1.5746858e-07
1.571003e-07
1.5673527e-07
1.5637321e-07
1.5601385e-07
1.5565698e-07
1.5530237e-07
1.5494974e-07
1.5459883e-07
1.5424944e-07
1.5390138e-07
1.5355441e-07
1.5320829e-07
1.5286277e-07
1.5251767e-07
1.521728e-07
1.5182793e-07
1.514828e-07
1.5113718e-07
1.5079088e-07
1.504437e-07
1.5009535e-07
1.4974556e-07
1.4939412e-07
1.4904079e-07
1.4868529e-07
1.483273e-07
1.4796651e-07
1.4760268e-07
1.4723546e-07
1.4686448e-07
1.4648936e-07
1.4610978e-07
1.457253e-07
1.4533545e-07
1.4493977e-07
1.4453777e-07
1.4412889e-07
1.4371246e-07
1.4328798e-07
1.4286407e-07
1.4245421e-07
1.4206244e-07
1.4168743e-07
1.4132789e-07
1.4098267e-07
1.4065076e-07
1.4033126e-07
1.4002331e-07
1.3972608e-07
1.394389e-07
1.3916117e-07
1.3889227e-07
1.3863162e-07
1.3837864e-07
1.3813289e-07
1.3789366e-07
1.3766088e-07
1.3743197e-07
1.3721063e-07
1.3698035e-07
1.3677981e-07
1.3644447e-07
1.9999124e-06
1.999965e-06
2.0001505e-06
2.0004665e-06
2.0008795e-06
2.0013692e-06
2.0019228e-06
2.0025303e-06
2.0031837e-06
2.0038766e-06
2.0046045e-06
2.0053643e-06
2.0061544e-06
2.006975e-06
2.0078282e-06
2.0087175e-06
2.0096522e-06
2.0106383e-06
2.011706e-06
2.0128534e-06
2.0141624e-06
2.0157357e-06
2.0170382e-06
2.0210651e-06
3.0953102e-07
2.5816329e-07
2.4603431e-07
2.4134483e-07
2.3831674e-07
2.3577356e-07
2.3350945e-07
2.3146515e-07
2.2960321e-07
2.2789213e-07
2.2630768e-07
2.2483198e-07
2.2345119e-07
2.2215403e-07
2.2093105e-07
2.1977436e-07
2.1867721e-07
2.1763379e-07
2.1663899e-07
2.1568831e-07
2.1477785e-07
2.1390407e-07
2.1306399e-07
2.1225486e-07
2.1147416e-07
2.1071977e-07
2.0998971e-07
2.0928211e-07
2.0859536e-07
2.0792802e-07
2.0727869e-07
2.0664608e-07
2.0602911e-07
2.0542676e-07
2.0483799e-07
2.0426188e-07
2.0369766e-07
2.0314459e-07
2.0260188e-07
2.0206882e-07
2.0154483e-07
2.0102938e-07
2.0052185e-07
2.0002169e-07
1.9952841e-07
1.990416e-07
1.9856082e-07
1.9808559e-07
1.9761549e-07
1.9715018e-07
1.9668934e-07
1.9623257e-07
1.9577951e-07
1.9532982e-07
1.9488324e-07
1.9443948e-07
1.939982e-07
1.9355907e-07
1.9312183e-07
1.9268625e-07
1.9225203e-07
1.9181887e-07
1.9138646e-07
1.9095458e-07
1.9052298e-07
1.9009136e-07
1.8965942e-07
1.8922687e-07
1.8879347e-07
1.8835894e-07
1.8792297e-07
1.8748518e-07
1.8704533e-07
1.8660311e-07
1.8615817e-07
1.857101e-07
1.8525854e-07
1.8480316e-07
1.8434354e-07
1.8387921e-07
1.834097e-07
1.8293459e-07
1.8245336e-07
1.819654e-07
1.8147013e-07
1.8096696e-07
1.8045518e-07
1.7993394e-07
1.7940262e-07
1.7887201e-07
1.7835899e-07
1.778686e-07
1.7739919e-07
1.7694915e-07
1.7651703e-07
1.7610157e-07
1.7570165e-07
1.7531616e-07
1.7494411e-07
1.7458464e-07
1.7423698e-07
1.7390039e-07
1.7357413e-07
1.7325746e-07
1.7294985e-07
1.7265039e-07
1.7235902e-07
1.7207249e-07
1.7179544e-07
1.7150727e-07
1.7125627e-07
1.7083647e-07
1.9999119e-06
1.9999645e-06
2.0001497e-06
2.0004658e-06
2.000879e-06
2.001369e-06
2.0019231e-06
2.0025312e-06
2.0031852e-06
2.0038787e-06
2.0046071e-06
2.0053674e-06
2.0061581e-06
2.006979e-06
2.0078325e-06
2.0087219e-06
2.0096566e-06
2.0106423e-06
2.0117095e-06
2.012856e-06
2.0141629e-06
2.0157354e-06
2.0170281e-06
2.0210519e-06
3.6493695e-07
3.1272293e-07
2.9882658e-07
2.9322161e-07
2.8959074e-07
2.8653955e-07
2.8381823e-07
2.8135624e-07
2.7911011e-07
2.7704346e-07
2.7512803e-07
2.7334282e-07
2.7167148e-07
2.7010061e-07
2.6861899e-07
2.6721721e-07
2.6588722e-07
2.6462205e-07
2.6341556e-07
2.6226238e-07
2.6115778e-07
2.6009755e-07
2.5907806e-07
2.5809601e-07
2.5714839e-07
2.5623259e-07
2.5534626e-07
2.5448712e-07
2.5365324e-07
2.5284286e-07
2.5205432e-07
2.5128603e-07
2.5053669e-07
2.4980507e-07
2.4908993e-07
2.4839012e-07
2.4770473e-07
2.4703285e-07
2.4637354e-07
2.4572593e-07
2.4508933e-07
2.4446306e-07
2.4384642e-07
2.432387e-07
2.4263934e-07
2.4204782e-07
2.4146361e-07
2.4088614e-07
2.4031488e-07
2.3974944e-07
2.3918941e-07
2.3863433e-07
2.3808374e-07
2.3753725e-07
2.3699452e-07
2.364552e-07
2.3591889e-07
2.353852e-07
2.3485379e-07
2.3432438e-07
2.3379663e-07
2.3327016e-07
2.327446e-07
2.3221966e-07
2.3169507e-07
2.3117045e-07
2.3064544e-07
2.3011967e-07
2.2959286e-07
2.2906469e-07
2.2853474e-07
2.280026e-07
2.2746792e-07
2.2693038e-07
2.2638951e-07
2.2584485e-07
2.2529594e-07
2.2474236e-07
2.2418364e-07
2.2361919e-07
2.2304843e-07
2.2247087e-07
2.2188586e-07
2.2129267e-07
2.2069058e-07
2.2007889e-07
2.1945672e-07
2.1882305e-07
2.1817712e-07
2.1753205e-07
2.1690836e-07
2.1631218e-07
2.157415e-07
2.1519438e-07
2.1466902e-07
2.1416392e-07
2.1367772e-07
2.1320906e-07
2.1275673e-07
2.123197e-07
2.1189703e-07
2.1148781e-07
2.1109115e-07
2.1070616e-07
2.1033217e-07
2.099681e-07
2.0961386e-07
2.0926554e-07
2.089287e-07
2.0857849e-07
2.0827334e-07
2.0776291e-07
1.9999114e-06
1.9999638e-06
2.0001488e-06
2.0004648e-06
2.0008783e-06
2.0013688e-06
2.0019235e-06
2.0025322e-06
2.0031869e-06
2.0038812e-06
2.0046103e-06
2.0053713e-06
2.0061624e-06
2.0069838e-06
2.0078376e-06
2.0087272e-06
2.0096617e-06
2.0106471e-06
2.0117135e-06
2.012859e-06
2.0141633e-06
2.0157348e-06
2.0170152e-06
2.0210338e-06
4.2081816e-07
3.708058e-07
3.5566685e-07
3.4918936e-07
3.4495619e-07
3.4139082e-07
3.3820087e-07
3.3530606e-07
3.3265853e-07
3.302181e-07
3.2795322e-07
3.258401e-07
3.2386009e-07
3.2199781e-07
3.2024032e-07
3.1857672e-07
3.1699766e-07
3.1549504e-07
3.1406167e-07
3.1269124e-07
3.1137825e-07
3.1011773e-07
3.089054e-07
3.0773741e-07
3.0661019e-07
3.0552068e-07
3.0446608e-07
3.0344374e-07
3.0245134e-07
3.0148682e-07
3.005482e-07
2.9963363e-07
2.9874154e-07
2.9787048e-07
2.9701898e-07
2.9618571e-07
2.9536954e-07
2.9456942e-07
2.9378423e-07
2.9301295e-07
2.9225473e-07
2.915088e-07
2.907743e-07
2.9005042e-07
2.8933645e-07
2.886318e-07
2.8793584e-07
2.8724788e-07
2.8656732e-07
2.8589366e-07
2.8522643e-07
2.8456508e-07
2.8390907e-07
2.8325793e-07
2.8261125e-07
2.8196862e-07
2.8132958e-07
2.8069363e-07
2.800604e-07
2.7942953e-07
2.7880064e-07
2.7817325e-07
2.7754694e-07
2.7692137e-07
2.762962e-07
2.7567099e-07
2.750453e-07
2.744187e-07
2.7379085e-07
2.7316137e-07
2.7252976e-07
2.7189554e-07
2.7125829e-07
2.706176e-07
2.6997296e-07
2.6932378e-07
2.6866953e-07
2.6800972e-07
2.6734376e-07
2.6667097e-07
2.6599066e-07
2.6530223e-07
2.6460492e-07
2.6389784e-07
2.6318016e-07
2.6245102e-07
2.6170939e-07
2.6095404e-07
2.6018407e-07
2.5941512e-07
2.5867165e-07
2.5796097e-07
2.5728068e-07
2.5662847e-07
2.560022e-07
2.5540008e-07
2.5482048e-07
2.542618e-07
2.5372258e-07
2.5320159e-07
2.5269773e-07
2.5220989e-07
2.5173702e-07
2.5127807e-07
2.5083224e-07
2.5039823e-07
2.4997594e-07
2.4956073e-07
2.4915919e-07
2.4874187e-07
2.4837813e-07
2.4776956e-07
1.9999108e-06
1.9999629e-06
2.0001476e-06
2.0004636e-06
2.0008774e-06
2.0013685e-06
2.0019238e-06
2.0025334e-06
2.0031889e-06
2.0038841e-06
2.004614e-06
2.0053757e-06
2.0061676e-06
2.0069895e-06
2.0078436e-06
2.0087333e-06
2.0096677e-06
2.0106527e-06
2.011718e-06
2.0128622e-06
2.0141633e-06
2.0157335e-06
2.016999e-06
2.02101e-06
4.7719912e-07
4.3256372e-07
4.1711338e-07
4.0990593e-07
4.0510561e-07
4.0104028e-07
3.9738312e-07
3.9404836e-07
3.9098698e-07
3.8815726e-07
3.8552568e-07
3.8306655e-07
3.8075937e-07
3.7858709e-07
3.7653528e-07
3.7459167e-07
3.7274571e-07
3.7098817e-07
3.6931086e-07
3.6770657e-07
3.6616898e-07
3.6469237e-07
3.6327183e-07
3.6190291e-07
3.6058149e-07
3.5930401e-07
3.5806724e-07
3.5686811e-07
3.5570392e-07
3.5457228e-07
3.534709e-07
3.5239761e-07
3.5135058e-07
3.5032814e-07
3.4932858e-07
3.4835032e-07
3.4739207e-07
3.4645258e-07
3.4553058e-07
3.4462484e-07
3.437344e-07
3.4285833e-07
3.4199564e-07
3.4114537e-07
3.4030672e-07
3.3947897e-07
3.3866139e-07
3.3785319e-07
3.3705364e-07
3.3626218e-07
3.3547823e-07
3.3470117e-07
3.3393037e-07
3.3316525e-07
3.3240537e-07
3.3165022e-07
3.3089927e-07
3.3015193e-07
3.2940777e-07
3.2866637e-07
3.2792727e-07
3.2718994e-07
3.2645385e-07
3.2571861e-07
3.2498382e-07
3.2424899e-07
3.2351357e-07
3.2277708e-07
3.220391e-07
3.2129918e-07
3.2055677e-07
3.1981127e-07
3.1906219e-07
3.1830907e-07
3.1755129e-07
3.1678816e-07
3.1601906e-07
3.1524342e-07
3.1446054e-07
3.1366962e-07
3.1286985e-07
3.1206052e-07
3.1124075e-07
3.1040949e-07
3.0956575e-07
3.0870853e-07
3.0783661e-07
3.0694857e-07
3.0604332e-07
3.0513926e-07
3.0426514e-07
3.0342959e-07
3.0262975e-07
3.0186291e-07
3.0112659e-07
3.0041864e-07
2.9973717e-07
2.9908029e-07
2.9844629e-07
2.9783372e-07
2.9724129e-07
2.966677e-07
2.9611171e-07
2.9557209e-07
2.9504788e-07
2.9453759e-07
2.9404107e-07
2.9355292e-07
2.930808e-07
2.9259035e-07
2.9216271e-07
2.9144706e-07
1.99991e-06
1.9999619e-06
2.0001462e-06
2.0004622e-06
2.0008763e-06
2.001368e-06
2.0019241e-06
2.0025346e-06
2.0031912e-06
2.0038873e-06
2.0046183e-06
2.0053808e-06
2.0061735e-06
2.006996e-06
2.0078505e-06
2.0087403e-06
2.0096745e-06
2.0106589e-06
2.011723e-06
2.0128656e-06
2.0141627e-06
2.0157315e-06
2.016979e-06
2.02098e-06
5.3400211e-07
4.9784041e-07
4.8359655e-07
4.7598289e-07
4.707194e-07
4.6620954e-07
4.621139e-07
4.5835045e-07
4.5487521e-07
4.5164908e-07
4.4863922e-07
4.4581964e-07
4.4316908e-07
4.4066948e-07
4.3830536e-07
4.3606345e-07
4.3393217e-07
4.3190136e-07
4.2996193e-07
4.2810582e-07
4.2632592e-07
4.2461585e-07
4.2297002e-07
4.2138343e-07
4.1985138e-07
4.1836984e-07
4.1693514e-07
4.1554377e-07
4.1419265e-07
4.1287904e-07
4.1160032e-07
4.1035401e-07
4.0913802e-07
4.079504e-07
4.0678921e-07
4.0565263e-07
4.0453917e-07
4.0344739e-07
4.0237584e-07
4.0132309e-07
4.0028803e-07
3.9926959e-07
3.9826664e-07
3.9727806e-07
3.9630293e-07
3.953404e-07
3.9438964e-07
3.9344974e-07
3.9251987e-07
3.9159934e-07
3.9068751e-07
3.8978365e-07
3.8888704e-07
3.8799701e-07
3.8711302e-07
3.8623452e-07
3.8536086e-07
3.8449138e-07
3.8362558e-07
3.8276296e-07
3.8190298e-07
3.8104505e-07
3.8018854e-07
3.7933299e-07
3.7847795e-07
3.7762283e-07
3.7676702e-07
3.7590995e-07
3.7505111e-07
3.7419002e-07
3.73326e-07
3.7245836e-07
3.7158656e-07
3.7071003e-07
3.6982806e-07
3.6893986e-07
3.6804469e-07
3.6714189e-07
3.6623066e-07
3.6531005e-07
3.6437914e-07
3.6343708e-07
3.6248285e-07
3.6151524e-07
3.6053309e-07
3.5953524e-07
3.5852027e-07
3.5748652e-07
3.5643273e-07
3.5538031e-07
3.5436274e-07
3.5339005e-07
3.5245894e-07
3.5156624e-07
3.5070904e-07
3.4988489e-07
3.4909155e-07
3.4832683e-07
3.4758875e-07
3.4687562e-07
3.4618592e-07
3.4551816e-07
3.4487089e-07
3.4424267e-07
3.436324e-07
3.4303834e-07
3.4246031e-07
3.4189207e-07
3.4134246e-07
3.4077176e-07
3.40274e-07
3.3944069e-07
1.9999091e-06
1.9999607e-06
2.0001445e-06
2.0004604e-06
2.0008749e-06
2.0013673e-06
2.0019244e-06
2.002536e-06
2.0031937e-06
2.003891e-06
2.004623e-06
2.0053866e-06
2.0061801e-06
2.0070033e-06
2.0078582e-06
2.0087481e-06
2.009682e-06
2.0106657e-06
2.0117283e-06
2.012869e-06
2.0141614e-06
2.0157283e-06
2.0169543e-06
2.020943e-06
5.9104144e-07
5.6617352e-07
5.5531862e-07
5.4791678e-07
5.4241869e-07
5.3759601e-07
5.3314291e-07
5.2899889e-07
5.2513614e-07
5.2152555e-07
5.1813975e-07
5.1495555e-07
5.1195288e-07
5.0911404e-07
5.0642348e-07
5.0386759e-07
5.014343e-07
4.9911284e-07
4.9689345e-07
4.9476745e-07
4.9272709e-07
4.9076538e-07
4.8887618e-07
4.8705395e-07
4.8529351e-07
4.8359034e-07
4.8194035e-07
4.8033963e-07
4.7878469e-07
4.7727246e-07
4.7580001e-07
4.7436453e-07
4.7296363e-07
4.7159513e-07
4.7025684e-07
4.6894668e-07
4.6766295e-07
4.6640403e-07
4.6516825e-07
4.6395401e-07
4.6276001e-07
4.6158505e-07
4.6042783e-07
4.5928709e-07
4.5816175e-07
4.5705086e-07
4.5595346e-07
4.5486853e-07
4.5379508e-07
4.5273234e-07
4.5167958e-07
4.5063596e-07
4.4960064e-07
4.4857287e-07
4.4755202e-07
4.4653746e-07
4.4552844e-07
4.4452422e-07
4.4352419e-07
4.425278e-07
4.4153442e-07
4.4054337e-07
4.3955394e-07
4.3856558e-07
4.3757777e-07
4.3658985e-07
4.356011e-07
4.3461086e-07
4.3361856e-07
4.3262362e-07
4.3162529e-07
4.3062275e-07
4.2961538e-07
4.2860252e-07
4.2758335e-07
4.2655698e-07
4.2552253e-07
4.2447924e-07
4.2342618e-07
4.2236228e-07
4.2128646e-07
4.2019773e-07
4.1909493e-07
4.1797666e-07
4.1684156e-07
4.156883e-07
4.1451525e-07
4.1332047e-07
4.1210253e-07
4.1088615e-07
4.0971004e-07
4.085858e-07
4.0750961e-07
4.064778e-07
4.0548704e-07
4.0453446e-07
4.0361748e-07
4.027336e-07
4.0188049e-07
4.0105622e-07
4.0025903e-07
3.994872e-07
3.9873906e-07
3.9801294e-07
3.9730756e-07
3.9662093e-07
3.9595283e-07
3.9529611e-07
3.9466087e-07
3.940016e-07
3.934264e-07
3.92463e-07
1.999908e-06
1.9999593e-06
2.0001424e-06
2.0004583e-06
2.0008732e-06
2.0013664e-06
2.0019245e-06
2.0025373e-06
2.0031963e-06
2.0038949e-06
2.0046282e-06
2.0053929e-06
2.0061874e-06
2.0070113e-06
2.0078666e-06
2.0087566e-06
2.0096901e-06
2.0106729e-06
2.0117337e-06
2.012872e-06
2.0141589e-06
2.0157236e-06
2.0169242e-06
2.0208979e-06
6.4800485e-07
6.3687631e-07
6.3214756e-07
6.2598314e-07
6.2068041e-07
6.1580534e-07
6.1116772e-07
6.0675891e-07
6.0258554e-07
5.9864067e-07
5.9491052e-07
5.9138009e-07
5.8803414e-07
5.8485786e-07
5.8183741e-07
5.789602e-07
5.7621464e-07
5.7359005e-07
5.7107661e-07
5.6866536e-07
5.6634828e-07
5.6411801e-07
5.6196805e-07
5.5989247e-07
5.5788572e-07
5.5594288e-07
5.5405952e-07
5.5223136e-07
5.5045458e-07
5.487258e-07
5.4704178e-07
5.4539942e-07
5.4379604e-07
5.4222924e-07
5.4069657e-07
5.3919572e-07
5.3772476e-07
5.3628188e-07
5.3486523e-07
5.33473e-07
5.3210371e-07
5.3075601e-07
5.2942845e-07
5.2811962e-07
5.2682826e-07
5.2555331e-07
5.2429368e-07
5.2304823e-07
5.2181582e-07
5.2059559e-07
5.1938669e-07
5.1818819e-07
5.1699912e-07
5.1581863e-07
5.1464599e-07
5.1348049e-07
5.1232129e-07
5.1116753e-07
5.1001851e-07
5.088736e-07
5.077321e-07
5.0659321e-07
5.0545614e-07
5.0432025e-07
5.0318493e-07
5.0204944e-07
5.0091296e-07
4.9977472e-07
4.9863408e-07
4.9749037e-07
4.9634272e-07
4.9519021e-07
4.940321e-07
4.9286765e-07
4.9169593e-07
4.9051589e-07
4.8932654e-07
4.88127e-07
4.8691622e-07
4.8569294e-07
4.8445593e-07
4.8320406e-07
4.81936e-07
4.8065012e-07
4.7934488e-07
4.7801874e-07
4.7666983e-07
4.7529593e-07
4.7389537e-07
4.724966e-07
4.7114414e-07
4.6985131e-07
4.6861373e-07
4.6742719e-07
4.6628784e-07
4.651924e-07
4.641379e-07
4.6312146e-07
4.6214041e-07
4.6119253e-07
4.6027578e-07
4.593882e-07
4.5852787e-07
4.5769286e-07
4.5688172e-07
4.5609214e-07
4.5532388e-07
4.5456878e-07
4.5383834e-07
4.5308067e-07
4.5241944e-07
4.5131127e-07
1.9999067e-06
1.9999576e-06
2.00014e-06
2.0004557e-06
2.000871e-06
2.0013651e-06
2.0019244e-06
2.0025386e-06
2.003199e-06
2.0038991e-06
2.0046338e-06
2.0053998e-06
2.0061953e-06
2.00702e-06
2.0078757e-06
2.0087657e-06
2.0096987e-06
2.0106803e-06
2.0117388e-06
2.0128744e-06
2.0141547e-06
2.0157169e-06
2.0168876e-06
2.0208438e-06
7.044621e-07
7.0909768e-07
7.1357244e-07
7.1011991e-07
7.0571831e-07
7.0124035e-07
6.9673408e-07
6.9228731e-07
6.8796725e-07
6.83807e-07
6.7981887e-07
6.7600465e-07
6.7235992e-07
6.68877e-07
6.6554696e-07
6.6236055e-07
6.5930844e-07
6.5638143e-07
6.5357064e-07
6.508677e-07
6.4826491e-07
6.4575509e-07
6.4333174e-07
6.4098892e-07
6.3872093e-07
6.3652269e-07
6.3438956e-07
6.3231709e-07
6.3030118e-07
6.2833826e-07
6.2642486e-07
6.2455763e-07
6.2273369e-07
6.2095042e-07
6.1920516e-07
6.174954e-07
6.1581898e-07
6.1417395e-07
6.1255827e-07
6.1096994e-07
6.094073e-07
6.0786886e-07
6.0635304e-07
6.0485823e-07
6.0338305e-07
6.0192629e-07
6.0048677e-07
5.9906318e-07
5.9765428e-07
5.9625905e-07
5.9487656e-07
5.9350578e-07
5.9214561e-07
5.9079507e-07
5.8945336e-07
5.8811967e-07
5.8679305e-07
5.8547253e-07
5.841573e-07
5.8284666e-07
5.8153982e-07
5.8023588e-07
5.7893391e-07
5.776332e-07
5.7633306e-07
5.7503265e-07
5.7373103e-07
5.7242733e-07
5.711208e-07
5.6981068e-07
5.68496e-07
5.671757e-07
5.6584892e-07
5.6451483e-07
5.6317236e-07
5.6182032e-07
5.6045757e-07
5.5908309e-07
5.576957e-07
5.5629396e-07
5.5487645e-07
5.5344188e-07
5.5198872e-07
5.5051512e-07
5.4901931e-07
5.4749953e-07
5.4595363e-07
5.4437908e-07
5.4277396e-07
5.4117087e-07
5.3962085e-07
5.3813917e-07
5.367208e-07
5.3536093e-07
5.3405515e-07
5.3279969e-07
5.3159115e-07
5.3042624e-07
5.2930189e-07
5.2821555e-07
5.2716491e-07
5.2614769e-07
5.2516171e-07
5.2420477e-07
5.2327518e-07
5.2237033e-07
5.2148992e-07
5.2062469e-07
5.1978766e-07
5.1891995e-07
5.1816249e-07
5.1689212e-07
1.9999051e-06
1.9999556e-06
2.0001372e-06
2.0004526e-06
2.0008684e-06
2.0013634e-06
2.001924e-06
2.0025396e-06
2.0032017e-06
2.0039034e-06
2.0046396e-06
2.005407e-06
2.0062036e-06
2.0070291e-06
2.0078852e-06
2.0087752e-06
2.0097074e-06
2.0106876e-06
2.0117434e-06
2.0128756e-06
2.0141483e-06
2.0157074e-06
2.0168432e-06
2.0207794e-06
7.5987814e-07
7.8185923e-07
7.9877529e-07
7.9988228e-07
7.9738952e-07
7.9398445e-07
7.9010957e-07
7.8600473e-07
7.8182913e-07
7.7767816e-07
7.7360656e-07
7.6964482e-07
7.6580792e-07
7.6210163e-07
7.5852672e-07
7.5508104e-07
7.5176041e-07
7.4855934e-07
7.4547164e-07
7.4249094e-07
7.3961103e-07
7.368258e-07
7.3412953e-07
7.3151684e-07
7.2898243e-07
7.2652142e-07
7.2412937e-07
7.2180188e-07
7.1953486e-07
7.1732471e-07
7.1516792e-07
7.1306105e-07
7.1100108e-07
7.0898531e-07
7.0701098e-07
7.050754e-07
7.0317628e-07
7.0131157e-07
6.9947908e-07
6.9767665e-07
6.9590249e-07
6.9415499e-07
6.9243244e-07
6.907331e-07
6.8905544e-07
6.8739814e-07
6.857599e-07
6.8413932e-07
6.8253498e-07
6.8094577e-07
6.7937067e-07
6.7780853e-07
6.7625814e-07
6.7471841e-07
6.7318842e-07
6.7166727e-07
6.7015393e-07
6.6864731e-07
6.6714647e-07
6.6565064e-07
6.6415893e-07
6.6267033e-07
6.611838e-07
6.5969853e-07
6.5821372e-07
6.5672845e-07
6.5524165e-07
6.5375233e-07
6.5225964e-07
6.5076271e-07
6.4926045e-07
6.4775166e-07
6.4623535e-07
6.4471057e-07
6.4317612e-07
6.4163063e-07
6.4007282e-07
6.3850151e-07
6.3691535e-07
6.3531272e-07
6.3369199e-07
6.3205168e-07
6.3039005e-07
6.28705e-07
6.269945e-07
6.2525652e-07
6.2348864e-07
6.2168795e-07
6.1985226e-07
6.1801886e-07
6.1624612e-07
6.1455153e-07
6.1292934e-07
6.1137405e-07
6.0988061e-07
6.0844471e-07
6.0706249e-07
6.0573015e-07
6.0444422e-07
6.0320177e-07
6.0200014e-07
6.0083675e-07
5.997091e-07
5.9861467e-07
5.9755153e-07
5.9651672e-07
5.9550987e-07
5.945205e-07
5.9356332e-07
5.9257172e-07
5.9170591e-07
5.902525e-07
1.9999034e-06
1.9999533e-06
2.0001338e-06
2.0004489e-06
2.0008651e-06
2.0013611e-06
2.0019231e-06
2.0025404e-06
2.0032042e-06
2.0039076e-06
2.0046455e-06
2.0054144e-06
2.0062121e-06
2.0070384e-06
2.0078949e-06
2.0087846e-06
2.0097159e-06
2.0106942e-06
2.0117469e-06
2.0128751e-06
2.0141388e-06
2.0156943e-06
2.0167894e-06
2.0207033e-06
8.1362458e-07
8.5408086e-07
8.8674878e-07
8.9452964e-07
8.952213e-07
8.9377984e-07
8.9122392e-07
8.8800836e-07
8.84417e-07
8.8063071e-07
8.7676472e-07
8.7289199e-07
8.6905727e-07
8.6528775e-07
8.6160017e-07
8.5800446e-07
8.5450555e-07
8.5110485e-07
8.4780145e-07
8.4459308e-07
8.4147672e-07
8.384488e-07
8.3550554e-07
8.3264313e-07
8.2985746e-07
8.2714459e-07
8.2450082e-07
8.2192232e-07
8.1940543e-07
8.1694686e-07
8.1454338e-07
8.1219172e-07
8.0988895e-07
8.0763248e-07
8.0541961e-07
8.0324764e-07
8.0111426e-07
7.9901741e-07
7.9695488e-07
7.9492444e-07
7.929242e-07
7.9095252e-07
7.8900762e-07
7.8708766e-07
7.8519102e-07
7.8331629e-07
7.814621e-07
7.7962696e-07
7.7780934e-07
7.7600802e-07
7.7422192e-07
7.724498e-07
7.7069034e-07
7.6894233e-07
7.6720478e-07
7.654767e-07
7.6375696e-07
7.6204436e-07
7.6033786e-07
7.5863658e-07
7.5693957e-07
7.5524569e-07
7.5355379e-07
7.5186294e-07
7.5017227e-07
7.4848074e-07
7.4678717e-07
7.4509041e-07
7.4338951e-07
7.4168352e-07
7.3997118e-07
7.3825115e-07
7.365223e-07
7.3478355e-07
7.3303356e-07
7.3127077e-07
7.2949371e-07
7.2770105e-07
7.2589127e-07
7.240625e-07
7.2221292e-07
7.2034082e-07
7.1844422e-07
7.1652074e-07
7.1456806e-07
7.1258387e-07
7.1056541e-07
7.0850937e-07
7.0641324e-07
7.043196e-07
7.0229514e-07
7.0035986e-07
6.9850719e-07
6.9673088e-07
6.9502517e-07
6.9338514e-07
6.9180638e-07
6.9028458e-07
6.8881577e-07
6.873966e-07
6.8602405e-07
6.8469518e-07
6.8340712e-07
6.8215701e-07
6.8094265e-07
6.7976067e-07
6.7861064e-07
6.7748073e-07
6.7638748e-07
6.7525577e-07
6.742674e-07
6.7260646e-07
1.9999013e-06
1.9999506e-06
2.0001299e-06
2.0004445e-06
2.000861e-06
2.001358e-06
2.0019215e-06
2.0025405e-06
2.0032062e-06
2.0039116e-06
2.0046512e-06
2.0054216e-06
2.0062205e-06
2.0070476e-06
2.0079043e-06
2.0087936e-06
2.0097235e-06
2.0106997e-06
2.0117485e-06
2.012872e-06
2.0141253e-06
2.0156765e-06
2.0167246e-06
2.0206138e-06
8.6498628e-07
9.2461253e-07
9.7635518e-07
9.9317187e-07
9.9855277e-07
1.0001457e-06
9.9975624e-07
9.9812687e-07
9.9569931e-07
9.9276233e-07
9.8950946e-07
9.8607022e-07
9.8253011e-07
9.7894639e-07
9.7535877e-07
9.7179503e-07
9.6827394e-07
9.6480767e-07
9.6140382e-07
9.5806687e-07
9.547993e-07
9.5160193e-07
9.4847455e-07
9.4541626e-07
9.4242534e-07
9.3949973e-07
9.3663731e-07
9.3383558e-07
9.310919e-07
9.2840385e-07
9.2576895e-07
9.231845e-07
9.2064801e-07
9.1815731e-07
9.1571003e-07
9.133037e-07
9.109362e-07
9.0860563e-07
9.0630994e-07
9.0404696e-07
9.0181483e-07
8.99612e-07
8.9743671e-07
8.9528712e-07
8.9316158e-07
8.9105868e-07
8.8897703e-07
8.869151e-07