/*--------------------------------*- C++ -*----------------------------------*\
  =========                 |
  \\      /  F ield         | OpenFOAM: The Open Source CFD Toolbox
   \\    /   O peration     | Website:  https://openfoam.org
    \\  /    A nd           | Version:  12
     \\/     M anipulation  |
\*---------------------------------------------------------------------------*/
FoamFile
{
    format      ascii;
    class       volScalarField;
    location    "900";
    object      p;
}
// * * * * * * * * * * * * * * * * * * * * * * * * * * * * * * * * * * * * * //

dimensions      [0 2 -2 0 0 0 0];

internalField   nonuniform List<scalar> 
7480
(
0.0087171098
0.0081282635
0.0070201358
0.0064119634
0.0061121677
0.0058666904
0.0056062138
0.0053526405
0.0051125587
0.0048746843
0.0046319044
0.0043833017
0.0041398565
0.0039213376
0.0037511198
0.003640024
0.0035866826
0.0035517715
0.0035273254
0.0035142631
0.0035035448
0.0034929539
0.0034812787
0.003454928
0.003416084
0.0033732007
0.0033304387
0.0032901825
0.0032497924
0.0032099319
0.0031715213
0.0031345479
0.0030995809
0.0030646363
0.0030263503
0.0029852449
0.0029430823
0.0029014232
0.0028616168
0.0028235232
0.0027864667
0.0027504419
0.0027155038
0.0026815941
0.0026483114
0.0026150662
0.0025814037
0.0025476587
0.0025139279
0.0024788858
0.0024411403
0.0024032358
0.0023676166
0.0023346174
0.0023020382
0.0022684781
0.0022331499
0.0021953563
0.0021561815
0.0021169993
0.0020777854
0.0020380789
0.0019979563
0.0019574701
0.0019163931
0.0018747513
0.0018326812
0.0017901058
0.0017469913
0.001703397
0.0016592007
0.0016143604
0.0015689343
0.0015228028
0.0014759739
0.001428458
0.001380117
0.0013309888
0.0012810434
0.0012301008
0.0011783744
0.0011255266
0.001071236
0.0010158418
0.00095826711
0.00089060751
0.00081686368
0.00076201211
0.0007078698
0.00065015915
0.00059209445
0.00053549569
0.00048021552
0.00042550707
0.00037321157
0.0003203205
0.00028390746
0.00022600558
0.00038489381
-0.00027975074
0.0082807497
0.0076994647
0.006834873
0.0063081391
0.0060393423
0.005814505
0.0055723152
0.0053354439
0.0051150183
0.0049027498
0.0046925741
0.0044830297
0.0042823184
0.0041018524
0.0039519103
0.0038382333
0.0037548479
0.0037002183
0.0036593286
0.0036252035
0.0035934335
0.0035601978
0.0035207134
0.0034756159
0.003428652
0.0033815838
0.0033375471
0.003296853
0.0032569244
0.0032178022
0.0031799798
0.0031433464
0.0031080999
0.0030724289
0.0030337451
0.0029926838
0.0029508163
0.0029095054
0.0028699074
0.0028317807
0.0027944835
0.002758107
0.0027227714
0.0026884585
0.0026546927
0.0026208839
0.0025866745
0.0025522175
0.0025176272
0.002481788
0.0024443479
0.0024072469
0.0023724336
0.0023394083
0.002306309
0.0022722181
0.0022365424
0.0021985797
0.0021593118
0.0021200393
0.0020807334
0.0020409389
0.0020007339
0.0019601679
0.0019190101
0.0018772873
0.001835135
0.0017924743
0.0017492729
0.0017055917
0.0016613097
0.0016163855
0.0015708777
0.0015246664
0.00147776
0.001430169
0.0013817567
0.001332563
0.0012825559
0.0012315546
0.001179772
0.0011268697
0.0010725242
0.0010170662
0.00095924909
0.00089012373
0.00081948486
0.00076662869
0.00071216191
0.00065347784
0.00059474265
0.00053765647
0.00048199079
0.00042699018
0.0003744915
0.00032145128
0.00028492542
0.00022701607
0.00038595014
-0.00027898365
0.0079897203
0.0075790511
0.0069020014
0.0063869438
0.0060969199
0.0058590761
0.005610639
0.0053669196
0.0051393215
0.0049197158
0.0047017844
0.0044827369
0.0042706906
0.0040765251
0.0039121369
0.0037863797
0.0036996069
0.0036492926
0.0036200585
0.0035973661
0.0035744839
0.0035485777
0.003517748
0.0034843031
0.0034478156
0.0034081073
0.0033670255
0.0033253402
0.0032834663
0.0032417686
0.0032007774
0.0031605347
0.0031216821
0.0030833588
0.0030433008
0.0030016256
0.0029594927
0.0029180836
0.0028784517
0.0028402663
0.0028028343
0.0027662646
0.0027306884
0.0026961086
0.0026619533
0.0026276369
0.0025929286
0.0025580362
0.0025229845
0.0024868313
0.0024494127
0.0024121596
0.0023769709
0.0023434859
0.0023100505
0.0022757782
0.0022400116
0.0022020217
0.0021627328
0.0021234074
0.0020840193
0.0020441254
0.0020038165
0.0019631457
0.001921884
0.0018800634
0.001837818
0.0017950644
0.0017517703
0.0017079987
0.0016636285
0.001618619
0.0015730286
0.0015267373
0.0014797538
0.0014320882
0.0013836033
0.0013343381
0.0012842617
0.0012331936
0.0011813475
0.0011283842
0.001073982
0.0010184815
0.00096052565
0.00089094436
0.00082372202
0.00077107897
0.00071614452
0.00065693282
0.0005977515
0.00054024338
0.00048419975
0.00042889415
0.00037615771
0.00032291228
0.00028622964
0.00022831823
0.00038716708
-0.00027802313
0.0077640332
0.0074468285
0.0068507566
0.0063462753
0.0060458281
0.0058103932
0.0055700471
0.0053330241
0.0051112291
0.0048983987
0.0046883569
0.0044786992
0.0042773038
0.0040942322
0.0039403815
0.00382315
0.0037420976
0.0036919743
0.0036583208
0.0036281636
0.0035971344
0.0035641158
0.0035283235
0.0034909635
0.0034510292
0.003409304
0.0033668243
0.0033242853
0.0032834366
0.0032440985
0.0032060406
0.0031689365
0.0031321006
0.0030944022
0.003054644
0.0030128223
0.0029699757
0.0029274501
0.0028866814
0.0028476506
0.0028096817
0.0027727427
0.0027368793
0.0027021243
0.002667842
0.0026333503
0.0025984049
0.0025633287
0.0025280008
0.0024915482
0.0024538455
0.0024162433
0.0023806936
0.0023469222
0.0023133095
0.0022789172
0.0022430686
0.0022050617
0.0021657756
0.0021264178
0.0020869625
0.0020469883
0.002006602
0.001965853
0.0019245107
0.001882616
0.0018402982
0.001797468
0.0017540954
0.0017102453
0.0016657966
0.0016207096
0.001575043
0.0015286761
0.0014816183
0.0014338801
0.001385322
0.0013359836
0.001285835
0.0012346963
0.0011827825
0.0011297532
0.0010752904
0.0010197363
0.00096176988
0.00089337258
0.00082724544
0.00077408233
0.00071881919
0.00065937308
0.0005999497
0.00054219926
0.00048594465
0.00043045112
0.0003775421
0.00032414587
0.00028734951
0.0002293282
0.00038821359
-0.00027721473
0.007557642
0.0072962619
0.0067813097
0.0063227334
0.006032111
0.0058053584
0.0055737094
0.0053416933
0.0051224828
0.0049120838
0.0047050058
0.0044992173
0.0043015833
0.0041211755
0.0039674152
0.0038470675
0.0037601148
0.0037019424
0.0036609589
0.0036260841
0.0035929817
0.0035597537
0.0035247914
0.0034881906
0.0034491281
0.003408241
0.0033662874
0.0033241292
0.0032834344
0.0032440062
0.0032057996
0.0031688831
0.0031320868
0.0030943527
0.0030554318
0.0030152018
0.0029743735
0.0029338118
0.0028941123
0.0028553602
0.0028173605
0.0027799859
0.0027433721
0.0027078931
0.0026731169
0.0026383132
0.0026031325
0.0025678959
0.0025324278
0.0024958233
0.002457971
0.0024202307
0.0023844974
0.0023505009
0.0023166794
0.0022821083
0.0022461288
0.0022080736
0.0021687704
0.0021293654
0.0020898416
0.0020497961
0.0020093446
0.0019685258
0.0019271113
0.0018851548
0.001842774
0.0017998727
0.001756427
0.0017125037
0.0016679811
0.0016228202
0.0015770803
0.0015306398
0.0014835093
0.0014356991
0.0013870693
0.0013376603
0.0012874422
0.0012362348
0.0011842548
0.0011311602
0.0010766345
0.0010210176
0.00096305136
0.00089569306
0.00083021885
0.00077689922
0.00072144557
0.0006617969
0.00060214028
0.00054415887
0.00048769987
0.0004320156
0.00037893191
0.00032539394
0.00028848307
0.00023031608
0.00038923246
-0.00027632087
0.0073686738
0.0071507456
0.0067135031
0.0063004112
0.0060145552
0.0057877443
0.0055593663
0.0053301421
0.0051127278
0.0049052997
0.0047012102
0.0045006246
0.0043082632
0.0041323576
0.0039815712
0.003862163
0.0037744891
0.0037143835
0.0036717819
0.0036362435
0.0036027534
0.0035689583
0.0035332663
0.00349571
0.0034558864
0.0034143711
0.0033718975
0.0033293529
0.0032881081
0.0032480828
0.0032092326
0.003171496
0.0031337454
0.0030951828
0.0030557079
0.0030151796
0.0029743373
0.0029339678
0.0028943074
0.0028558101
0.0028187092
0.0027826724
0.0027474209
0.0027127168
0.0026781812
0.0026433776
0.0026079192
0.0025722404
0.0025363984
0.0024995606
0.0024615873
0.0024237958
0.0023879686
0.0023538074
0.0023198167
0.0022851111
0.00224904
0.0022109498
0.0021716297
0.0021321881
0.0020926163
0.0020525172
0.0020120153
0.0019711399
0.001929666
0.0018876598
0.0018452268
0.001802265
0.0017587565
0.0017147701
0.0016701827
0.0016249564
0.0015791509
0.0015326439
0.0014854471
0.0014375707
0.0013888745
0.0013394002
0.0012891172
0.0012378452
0.001185803
0.0011326463
0.0010780598
0.0010223792
0.00096439288
0.00089773287
0.00083297723
0.00077978772
0.00072427487
0.00066446633
0.00060457948
0.00054634678
0.00048964686
0.00043374468
0.00038047142
0.00032677437
0.00028972311
0.00023139816
0.00039026971
-0.00027523145
0.0071961327
0.00701219
0.0066408005
0.0062686251
0.0059899322
0.0057654408
0.0055438177
0.0053212575
0.0051085791
0.0049060914
0.0047059804
0.0045109402
0.0043238285
0.0041522013
0.0040040637
0.0038850791
0.0037957853
0.0037323661
0.0036859848
0.0036470986
0.0036106667
0.0035744232
0.0035369855
0.0034982301
0.0034577865
0.0034159838
0.0033734447
0.003330949
0.0032896459
0.0032495815
0.0032106703
0.0031727899
0.0031349869
0.0030965245
0.0030571987
0.0030168299
0.0029760403
0.0029355064
0.0028955203
0.0028566885
0.0028193052
0.0027831104
0.0027478061
0.0027129742
0.0026785622
0.0026444188
0.0026100551
0.0025752381
0.0025397542
0.0025031284
0.0024651712
0.002427204
0.0023911004
0.0023566678
0.0023224731
0.0022876481
0.0022515344
0.0022134552
0.0021741542
0.002134713
0.0020951292
0.0020550058
0.0020144797
0.0019735739
0.0019320633
0.0018900234
0.0018475543
0.00180455
0.0017609956
0.0017169617
0.0016723235
0.0016270449
0.0015811861
0.0015346235
0.0014873706
0.0014394373
0.0013906831
0.001341151
0.0012908098
0.0012394792
0.0011873805
0.0011341667
0.0010795237
0.0010237821
0.00096576617
0.00089967451
0.00083563859
0.00078262455
0.00072711742
0.00066720485
0.0006071186
0.00054864453
0.00049170147
0.00043557655
0.00038210708
0.0003282426
0.00029103405
0.00023254305
0.00039127963
-0.00027393177
0.0070379881
0.0068802233
0.0065637625
0.0062303353
0.0059630326
0.0057428218
0.0055280708
0.0053118487
0.0051033219
0.0049039942
0.0047081463
0.0045175411
0.0043349593
0.0041671784
0.0040214487
0.0039028674
0.00381212
0.0037458046
0.0036962188
0.0036547751
0.0036164961
0.0035790323
0.0035409509
0.0035018428
0.0034612862
0.0034194663
0.0033769517
0.0033344694
0.0032930339
0.0032527888
0.0032136316
0.0031754222
0.0031373432
0.0030986734
0.0030591757
0.0030187271
0.0029778847
0.0029373083
0.0028973441
0.00285853
0.0028210821
0.0027847177
0.0027491032
0.0027138816
0.0026791198
0.0026447277
0.0026103093
0.0025753868
0.0025398342
0.0025036283
0.0024665425
0.0024294048
0.0023936721
0.0023593204
0.0023250136
0.0022899639
0.0022536827
0.0022155522
0.0021762476
0.0021368149
0.00209725
0.0020571377
0.0020166233
0.0019757231
0.001934206
0.0018921574
0.0018496761
0.0018066515
0.0017630719
0.0017190098
0.0016743385
0.0016290239
0.0015831271
0.0015365229
0.0014892268
0.0014412487
0.001392447
0.0013428671
0.0012924766
0.0012410952
0.0011889475
0.0011356831
0.0010809892
0.001025191
0.00096714658
0.00090159271
0.00083822002
0.00078535072
0.00072987471
0.00066990007
0.00060964795
0.00055095504
0.00049378338
0.0004374443
0.00038378156
0.00032975128
0.0002923771
0.00023371264
0.00039221378
-0.00027240771
0.0068923075
0.0067549242
0.006484308
0.0061870609
0.0059334728
0.0057183098
0.0055099714
0.0053001969
0.0050963431
0.004900893
0.0047098932
0.0045240452
0.0043463135
0.0041826882
0.004039657
0.0039218326
0.003830019
0.0037612295
0.0037087404
0.0036648326
0.0036246162
0.0035856382
0.0035464378
0.0035064509
0.003465273
0.0034230262
0.0033802271
0.0033375435
0.003295858
0.0032553597
0.0032159342
0.0031774186
0.0031390924
0.0031002612
0.0030606785
0.0030202573
0.0029794802
0.0029389672
0.0028990667
0.0028602443
0.0028227089
0.0027862292
0.0027505024
0.0027152198
0.002680404
0.0026459109
0.0026113072
0.0025761123
0.0025402992
0.0025039356
0.002466869
0.0024297457
0.0023939345
0.002359742
0.0023259647
0.002291421
0.0022553991
0.0022174485
0.0021781705
0.0021386565
0.0020990276
0.0020588906
0.0020183823
0.0019775085
0.001936014
0.0018939869
0.0018515232
0.0018085056
0.0017649257
0.0017208586
0.0016761754
0.0016308441
0.0015849274
0.0015382981
0.0014909743
0.0014429657
0.0013941297
0.001344514
0.0012940853
0.001242663
0.0011904758
0.0011371693
0.001082432
0.0010265836
0.00096851585
0.00090348406
0.00084072111
0.00078796734
0.00073253324
0.00067252455
0.00061213416
0.00055324494
0.00049586145
0.00043931989
0.00038547041
0.00033127958
0.00029373399
0.00023488897
0.00039303593
-0.00027062831
0.006757306
0.0066361252
0.0064036661
0.0061393915
0.0059008212
0.0056917675
0.0054899908
0.0052871113
0.0050885932
0.0048974804
0.0047112448
0.0045300846
0.0043569883
0.0041972801
0.0040567676
0.0039396502
0.0038468186
0.003775684
0.0037203791
0.0036739929
0.0036317971
0.0035912839
0.0035509868
0.00351023
0.0034685906
0.0034261067
0.0033832071
0.0033404823
0.0032986904
0.0032580444
0.003218432
0.0031796742
0.0031411355
0.0031021632
0.003062505
0.003022095
0.002981352
0.002940856
0.0029009594
0.0028620854
0.002824448
0.0027878543
0.002752016
0.0027166392
0.002681705
0.0026470705
0.0026123397
0.0025770797
0.0025412543
0.0025048857
0.0024678006
0.0024305677
0.0023945205
0.0023600682
0.0023261496
0.0022914671
0.0022553817
0.0022177494
0.002179041
0.0021399632
0.0021005361
0.002060474
0.0020199275
0.0019790098
0.0019374995
0.0018954809
0.0018530449
0.0018100557
0.0017665012
0.0017224555
0.0016777848
0.0016324596
0.0015865441
0.0015399088
0.001492575
0.0014445523
0.0013956971
0.0013460599
0.0012956061
0.0012441549
0.0011919397
0.0011386012
0.0010838297
0.0010279396
0.00096985568
0.00090532947
0.0008431353
0.00079047555
0.00073508898
0.0006750675
0.00061456271
0.00055549855
0.00049792017
0.00044118881
0.0003871606
0.00033281575
0.00029509359
0.00023606083
0.00039371434
-0.00026855339
0.0066315458
0.0065235245
0.006322771
0.0060880767
0.0058652291
0.005663418
0.005468413
0.0052726052
0.0050797865
0.0048932505
0.0047117213
0.0045352893
0.0043667801
0.0042109608
0.0040730309
0.0039568073
0.0038632294
0.0037900773
0.0037322385
0.0036835473
0.0036394893
0.0035975272
0.0035561787
0.0035146719
0.0034725454
0.0034297634
0.0033866764
0.0033438109
0.0033018256
0.0032609489
0.0032210798
0.0031820283
0.0031432318
0.0031040817
0.0030643193
0.003023892
0.002983166
0.0029426813
0.0029027917
0.002863884
0.0028261655
0.00278947
0.0027535212
0.0027180412
0.0026829881
0.0026482282
0.0026133951
0.0025780792
0.0025422132
0.0025058085
0.0024687367
0.002431544
0.0023954743
0.0023609067
0.0023268023
0.0022918838
0.0022555933
0.0022178779
0.0021791742
0.0021400646
0.002100704
0.0020610201
0.0020208793
0.0019801921
0.0019388
0.0018967867
0.0018543272
0.001811327
0.0017677839
0.0017237658
0.0016791247
0.0016338276
0.0015879358
0.0015413158
0.0014939922
0.0014459739
0.0013971165
0.0013474737
0.0012970094
0.0012455429
0.0011933127
0.0011399541
0.0010851593
0.0010292379
0.00097114642
0.00090710903
0.00084544793
0.00079286356
0.00073752858
0.00067751334
0.0006169168
0.00055769922
0.00049994389
0.00044303682
0.00038883927
0.00033434815
0.0002964448
0.00023721657
0.00039421596
-0.00026613674
0.0065138645
0.0064167268
0.0062423323
0.0060338805
0.0058269137
0.0056332984
0.0054452658
0.0052566002
0.0050697932
0.0048881416
0.0047114067
0.0045397766
0.0043758296
0.0042238576
0.004088524
0.0039732966
0.0038791435
0.0038041903
0.0037439968
0.0036930831
0.003647186
0.0036037676
0.0035613302
0.0035190306
0.0034763705
0.0034332542
0.0033899598
0.0033469496
0.0033047912
0.003263712
0.0032236195
0.0031843147
0.0031452943
0.0031059932
0.0030661493
0.0030257186
0.0029850228
0.0029445615
0.0029046856
0.0028657488
0.0028279493
0.002791147
0.0027550823
0.0027194953
0.0026843261
0.0026494441
0.0026145046
0.0025791174
0.0025431962
0.0025067548
0.0024697053
0.0024325548
0.0023964429
0.0023617356
0.0023274757
0.0022924578
0.002256134
0.0022184182
0.002179665
0.0021404231
0.0021009306
0.0020612063
0.0020210198
0.0019803181
0.0019391648
0.0018975104
0.0018553058
0.0018124238
0.0017688991
0.0017248685
0.0016802223
0.0016349404
0.0015890777
0.0015424872
0.0014951926
0.0014471984
0.0013983568
0.0013487259
0.0012982674
0.0012468003
0.0011945696
0.0011412039
0.0010863979
0.0010304573
0.00097236787
0.00090880191
0.00084763825
0.00079511196
0.00073983283
0.00067984259
0.00061917695
0.00055982827
0.00050191538
0.00044484842
0.00039049243
0.0003358642
0.00029777577
0.00023834402
0.00039448191
-0.00026332854
0.0064032934
0.0063152977
0.0061628692
0.0059775051
0.0057861318
0.005601444
0.0054206179
0.0052391448
0.0050586105
0.0048821337
0.0047102848
0.0045434733
0.0043840405
0.0042358626
0.0041031338
0.0039890075
0.0038944666
0.0038179526
0.0037556235
0.003702624
0.0036549658
0.0036101384
0.003566633
0.0035235533
0.0034803647
0.0034369157
0.0033934131
0.0033502533
0.0033079218
0.0032666353
0.0032263116
0.0031867482
0.0031474934
0.0031080264
0.0030680857
0.0030276328
0.0029869511
0.0029465003
0.0029066247
0.0028676499
0.0028297644
0.0027928521
0.0027566706
0.0027209753
0.0026856898
0.0026506842
0.002615635
0.0025801733
0.0025442003
0.0025077289
0.0024707004
0.0024335823
0.0023974202
0.0023625753
0.002328172
0.00229306
0.0022566861
0.002218956
0.0021802041
0.0021409648
0.0021014734
0.0020617055
0.0020214106
0.0019805812
0.0019393622
0.0018976746
0.00185545
0.0018127267
0.0017695017
0.0017257021
0.0016811622
0.0016359007
0.0015900339
0.0015434454
0.0014961699
0.0014482062
0.0013993933
0.0013497904
0.0012993544
0.0012479022
0.0011956865
0.0011423277
0.0010875236
0.0010315771
0.00097350021
0.00091038678
0.00084968319
0.00079719833
0.00074198008
0.00068203403
0.0006213225
0.0005618661
0.00050381657
0.0004466072
0.0003921053
0.00033735062
0.00029907388
0.00023942934
0.00039447695
-0.00026007892
0.0062990172
0.0062188053
0.0060847474
0.0059195755
0.0057431843
0.0055679262
0.0053945458
0.0052202935
0.0050462153
0.0048751572
0.0047082894
0.004546308
0.0043913617
0.00424695
0.0041168531
0.0040039424
0.0039092033
0.0038313623
0.0037671094
0.0037121583
0.0036628101
0.0036166088
0.0035720419
0.0035281753
0.0034844406
0.0034406357
0.0033969004
0.003353568
0.0033110506
0.0032695492
0.0032289913
0.0031891745
0.0031496904
0.0031100606
0.0030700266
0.0030295517
0.0029888855
0.0029484484
0.0029085754
0.0028695672
0.002831602
0.0027945846
0.0027582896
0.0027224863
0.002687085
0.0026519563
0.0026167975
0.0025812611
0.0025452367
0.0025087345
0.0024717208
0.0024346288
0.0023984179
0.0023634415
0.0023288965
0.0022936833
0.0022572507
0.0022195058
0.0021807628
0.0021415258
0.0021020202
0.0020622206
0.0020219081
0.0019810776
0.0019398348
0.0018980697
0.0018557306
0.0018129342
0.0017696771
0.001725857
0.0016814515
0.0016364449
0.0015907699
0.0015442684
0.0014970057
0.0014490434
0.0014002413
0.0013506605
0.0013002539
0.0012488285
0.0011966421
0.0011433046
0.0010885161
0.0010325781
0.00097452488
0.00091184339
0.00085156024
0.00079910005
0.00074394797
0.00068406575
0.00062333214
0.00056379243
0.00050562863
0.00044829599
0.0003936623
0.00033879333
0.00030032586
0.00024045774
0.00039415401
-0.00025632701
0.006200346
0.0061268395
0.0060082113
0.0058606318
0.0056983964
0.0055328429
0.0053671183
0.0052000981
0.005032595
0.0048671596
0.0047053768
0.0045482415
0.0043977617
0.0042570959
0.0041296579
0.0040180691
0.0039233109
0.0038443645
0.003778395
0.0037216329
0.0036706755
0.0036231456
0.0035775359
0.0035328867
0.0034886002
0.0034444288
0.0034004499
0.0033569356
0.0033142319
0.0032725189
0.0032317313
0.0031916694
0.0031519618
0.00311217
0.0030720412
0.0030315383
0.0029908812
0.0029504531
0.0029105773
0.0028715325
0.0028334863
0.0027963619
0.002759951
0.0027240359
0.0026885165
0.0026532638
0.0026179943
0.0025823804
0.0025463028
0.0025097682
0.0024727649
0.0024356951
0.0023994364
0.0023643303
0.002329642
0.0022943251
0.0022578342
0.002220076
0.0021813408
0.0021421002
0.0021025758
0.0020627501
0.0020224249
0.0019815834
0.0019403161
0.0018985313
0.0018561884
0.0018133761
0.0017700546
0.0017261307
0.001681658
0.001636619
0.0015909316
0.0015445779
0.0014975321
0.0014497081
0.0014009726
0.0013513994
0.001300997
0.0012495862
0.0011974288
0.0011441199
0.0010893584
0.0010334433
0.00097542511
0.00091315367
0.0008532494
0.00080079631
0.00074571511
0.00068591629
0.00062518468
0.00056558677
0.0005073322
0.0004498969
0.00039514705
0.00034017745
0.00030151763
0.00024141435
0.00039345724
-0.00025200403
0.006106692
0.0060390202
0.005933413
0.00580113
0.0056520978
0.0054963171
0.0053384041
0.0051786153
0.005017755
0.0048581034
0.004701506
0.0045492331
0.0044032007
0.0042662655
0.0041415166
0.0040313549
0.0039367532
0.0038569193
0.003789441
0.0037310175
0.0036785415
0.0036297355
0.0035831076
0.0035376834
0.0034928408
0.0034482917
0.0034040561
0.0033603474
0.0033174513
0.0032755241
0.0032345061
0.0031942025
0.0031542736
0.0031143185
0.0030740924
0.0030335563
0.0029929034
0.002952482
0.0029126008
0.0028735192
0.0028353942
0.0027981646
0.002761639
0.002725612
0.0026899752
0.0026545997
0.00261922
0.0025835274
0.0025473959
0.0025108288
0.002473833
0.0024367814
0.0024004748
0.0023652407
0.0023304093
0.0022949881
0.0022584386
0.0022206651
0.0021819346
0.0021426892
0.0021031478
0.0020632981
0.0020229567
0.0019820989
0.0019408088
0.0018990097
0.0018566583
0.0018138271
0.0017704845
0.0017265525
0.001682063
0.001636964
0.001591184
0.0015447801
0.0014977012
0.0014498821
0.0014013103
0.0013519211
0.0013016139
0.0012502386
0.0011980924
0.0011447924
0.0010900505
0.0010341635
0.00097618824
0.00091430269
0.00085473413
0.00080226957
0.0007472628
0.0006875661
0.00062686011
0.0005672292
0.00050890803
0.00045139172
0.00039654258
0.00034148736
0.00030263428
0.00024228289
0.0003923512
-0.00024704486
0.0060175509
0.0059550004
0.0058604367
0.0057414466
0.0056046081
0.0054584924
0.005308477
0.0051559043
0.0050017123
0.0048479611
0.0046966382
0.0045492441
0.0044076424
0.0042744286
0.0041524034
0.0040437729
0.0039494986
0.0038689883
0.0038002056
0.003740274
0.0036863766
0.0036363523
0.0035887363
0.0035425485
0.0034971488
0.0034522137
0.0034077105
0.0033637975
0.0033207047
0.0032785637
0.0032373176
0.0031967782
0.0031566333
0.0031165167
0.003076193
0.0030356203
0.0029949678
0.0029545506
0.0029146617
0.0028755425
0.0028373397
0.0028000056
0.0027633653
0.0027272249
0.00269147
0.0026559716
0.0026204808
0.0025847074
0.0025485205
0.0025119198
0.0024749274
0.0024378894
0.0024015341
0.002366174
0.0023312001
0.0022956735
0.002259064
0.0022212726
0.0021825449
0.0021432945
0.0021037363
0.002063862
0.0020235027
0.0019826288
0.001941318
0.0018995034
0.0018571386
0.0018142884
0.0017709292
0.0017269863
0.0016824789
0.0016373611
0.0015915732
0.0015451481
0.0014980069
0.0014501071
0.0014014962
0.001352082
0.001301823
0.0012506104
0.0011986095
0.0011453723
0.0010906442
0.0010347664
0.00097682245
0.0009152868
0.00085600463
0.00080350718
0.00074857618
0.00068899877
0.0006283409
0.00056870153
0.00051033784
0.00045276266
0.00039783194
0.00034270711
0.00030366041
0.00024304621
0.00039077026
-0.00024138214
0.0059324881
0.0058744667
0.0057893179
0.0056818868
0.0055562272
0.0054195275
0.0052774182
0.0051320266
0.0049844929
0.0048367161
0.0046907401
0.0045482405
0.0044110548
0.0042815575
0.0041622933
0.0040552954
0.0039615136
0.0038805309
0.003810645
0.0037493628
0.0036941485
0.0036429706
0.0035944029
0.0035474685
0.003501515
0.0034561886
0.0034114094
0.0033672834
0.0033239903
0.0032816359
0.0032401641
0.0031993941
0.0031590378
0.0031187606
0.003078338
0.0030377244
0.0029970676
0.0029566515
0.0029167519
0.002877594
0.0028393145
0.002801877
0.0027651223
0.0027288678
0.0026929947
0.0026573738
0.002621772
0.0025859164
0.0025496732
0.0025130384
0.002476046
0.0024390172
0.0024026129
0.0023671291
0.0023320135
0.0022963808
0.00225971
0.0022218987
0.0021831722
0.0021439164
0.0021043409
0.0020644415
0.0020240637
0.001983174
0.0019418424
0.0019000106
0.0018576321
0.0018147644
0.0017713881
0.0017274306
0.0016829047
0.0016377717
0.001591973
0.00154553
0.0014983735
0.0014504657
0.0014018256
0.0013523452
0.0013020224
0.001250774
0.0011987752
0.0011456465
0.0010910642
0.0010352715
0.00097737371
0.00091614081
0.00085707676
0.00080451125
0.00074964877
0.00069020312
0.00062961319
0.00056998831
0.00051160543
0.00045399331
0.00039899892
0.00034382105
0.00030458059
0.00024368639
0.00038865578
-0.00023494664
0.0058511271
0.0057971374
0.0057200575
0.0056226936
0.0055072277
0.0053795893
0.0052453164
0.0051070455
0.0049661306
0.0048243628
0.0046837855
0.0045461928
0.0044134096
0.0042876262
0.0041711616
0.0040658958
0.0039727657
0.0038915082
0.0038207168
0.0037582442
0.0037018239
0.0036495637
0.0036000866
0.0035524273
0.0035059271
0.0034602071
0.0034151452
0.0033707994
0.003327303
0.0032847361
0.0032430416
0.0032020463
0.0031614839
0.0031210481
0.0030805258
0.0030398681
0.002999203
0.0029587853
0.0029188729
0.0028796757
0.0028413207
0.0028037813
0.0027669129
0.0027305438
0.0026945523
0.0026588096
0.0026230967
0.0025871575
0.0025508568
0.0025141866
0.0024771906
0.0024401666
0.0024037127
0.0023681072
0.002332851
0.002297111
0.0022603777
0.0022225445
0.0021838173
0.0021445553
0.002104962
0.0020650375
0.0020246406
0.0019837344
0.0019423817
0.0019005322
0.0018581397
0.0018152545
0.0017718601
0.0017278872
0.0016833441
0.0016381953
0.0015923825
0.0015459222
0.0014987528
0.001450834
0.0014021766
0.0013526844
0.0013023504
0.0012510577
0.0011989968
0.001145832
0.0010912245
0.0010354788
0.00097772628
0.00091686073
0.00085799556
0.00080532329
0.0007505014
0.00069118379
0.00063067177
0.0005710791
0.00051269769
0.00045506944
0.00040002892
0.00034481458
0.00030537997
0.00024418589
0.00038595438
-0.0002276718
0.00577314
0.0057227602
0.0056526325
0.0055640567
0.0054578525
0.0053388468
0.0052122677
0.0050810272
0.0049466652
0.0048109055
0.0046757557
0.0045430763
0.0044146821
0.0042926115
0.0041789859
0.0040755485
0.0039832234
0.0039018819
0.0038303785
0.0037668775
0.0037093679
0.0036561027
0.0036057645
0.0035574072
0.0035103715
0.0034642589
0.0034189102
0.0033743396
0.003330638
0.0032878603
0.003245947
0.0032047324
0.0031639692
0.0031233772
0.0030827548
0.0030420501
0.0030013727
0.0029609506
0.0029210231
0.0028817858
0.0028433566
0.0028057165
0.0027687352
0.0027322511
0.0026961411
0.0026602772
0.0026244534
0.0025884292
0.0025520698
0.0025153633
0.0024783602
0.0024413366
0.0024048325
0.0023691076
0.0023337118
0.002297864
0.0022610668
0.0022232098
0.0021844801
0.002145211
0.0021055996
0.00206565
0.0020252333
0.0019843102
0.0019429362
0.0019010685
0.0018586617
0.0018157585
0.0017723456
0.0017283571
0.0016837966
0.001638631
0.0015928038
0.001546327
0.0014991437
0.0014512112
0.0014025378
0.001353035
0.0013026878
0.0012513875
0.0011993095
0.0011461195
0.0010914735
0.0010356836
0.00097791339
0.00091728057
0.00085863425
0.00080592206
0.0007511663
0.00069197854
0.00063153769
0.00057197959
0.00051361017
0.0004559814
0.00040091
0.00034567485
0.00030604471
0.00024452851
0.0003826191
-0.00021949931
0.0056982407
0.0056511094
0.005587004
0.005506122
0.0054083131
0.0052974653
0.0051783742
0.0050540411
0.0049261417
0.0047963573
0.0046666397
0.0045388715
0.0044148518
0.0042964932
0.0041857455
0.0040842297
0.0039928567
0.0039116146
0.0038395881
0.0037752215
0.0037167442
0.0036625573
0.003611412
0.0035623887
0.0035148332
0.0034683324
0.0034226958
0.0033778974
0.0033339899
0.0032910039
0.0032488763
0.0032074483
0.0031664902
0.0031257449
0.0030850226
0.0030442683
0.003003575
0.0029631457
0.0029232013
0.0028839232
0.0028454209
0.0028076818
0.0027705885
0.0027339895
0.0026977614
0.0026617769
0.0026258424
0.0025897323
0.002553313
0.002516569
0.0024795555
0.0024425281
0.0024059728
0.0023701308
0.0023345967
0.0022986405
0.0022617783
0.0022238954
0.0021851611
0.0021458842
0.0021062543
0.0020662795
0.0020258423
0.0019849017
0.0019435064
0.00190162
0.0018591982
0.0018162768
0.001772845
0.0017288405
0.0016842623
0.0016390794
0.0015932376
0.0015467441
0.0014995459
0.0014515998
0.0014029109
0.0013533956
0.0013030345
0.0012517278
0.0011996287
0.0011464241
0.0010917858
0.0010359849
0.00097822484
0.00091769922
0.00085913307
0.00080622267
0.00075151795
0.00069254828
0.00063223086
0.000572723
0.00051436353
0.00045673499
0.00040163847
0.00034639316
0.00030656317
0.00024469639
0.00037861869
-0.00021038727
0.005626178
0.0055819835
0.0055231228
0.005448999
0.0053587905
0.0052556023
0.0051437414
0.0050261596
0.0049046092
0.0047807395
0.0046564349
0.0045335648
0.0044139025
0.0042992543
0.0041914217
0.0040919169
0.0040016366
0.0039206702
0.0038483046
0.0037832351
0.0037239154
0.0036688958
0.0036170031
0.003567351
0.0035192957
0.003472415
0.0034264918
0.003381465
0.0033373522
0.0032941614
0.0032518247
0.0032101902
0.0031690434
0.0031281483
0.0030873264
0.0030465204
0.0030058081
0.0029653691
0.0029254059
0.0028860866
0.0028475126
0.0028096762
0.0027724721
0.0027357583
0.0026994124
0.0026633083
0.0026272634
0.0025910665
0.0025545861
0.0025178034
0.0024807762
0.0024437407
0.0024071334
0.0023711764
0.0023355057
0.0022994406
0.0022625121
0.0022246014
0.0021858606
0.0021465749
0.0021069262
0.002066926
0.0020264677
0.0019855091
0.0019440924
0.0019021869
0.0018597494
0.0018168097
0.0017733586
0.0017293376
0.0016847413
0.0016395409
0.0015936839
0.0015471734
0.0014999599
0.0014519999
0.0014032953
0.0013537669
0.0013033924
0.001252078
0.0011999572
0.0011467398
0.0010921093
0.0010362914
0.00097860257
0.00091818025
0.0008596544
0.00080655277
0.00075176517
0.0006928687
0.00063264456
0.00057326056
0.00051496936
0.00045735879
0.00040223428
0.0003469759
0.00030693504
0.00024466163
0.00037395049
-0.00020031858
0.0055567309
0.0055152021
0.0054609332
0.0053927676
0.0053094374
0.0052134043
0.0051084758
0.0049974578
0.0048821205
0.0047640798
0.0046451461
0.0045271486
0.0044118225
0.0043008815
0.0041959989
0.0040985896
0.0040095358
0.0039290137
0.0038564876
0.0037908767
0.0037308435
0.0036750851
0.00362251
0.0035722714
0.003523741
0.0034764925
0.0034302873
0.0033850336
0.0033407178
0.0032973268
0.0032547873
0.0032129532
0.0031716246
0.0031305837
0.0030896633
0.0030488041
0.0030080698
0.0029676187
0.0029276352
0.0028882744
0.00284963
0.0028116981
0.0027743846
0.0027375567
0.0027010935
0.0026648708
0.0026287161
0.0025924317