/*--------------------------------*- C++ -*----------------------------------*\
  =========                 |
  \\      /  F ield         | OpenFOAM: The Open Source CFD Toolbox
   \\    /   O peration     | Website:  https://openfoam.org
    \\  /    A nd           | Version:  12
     \\/     M anipulation  |
\*---------------------------------------------------------------------------*/
FoamFile
{
    format      ascii;
    class       surfaceScalarField;
    location    "900";
    object      phi;
}
// * * * * * * * * * * * * * * * * * * * * * * * * * * * * * * * * * * * * * //

dimensions      [0 3 -1 0 0 0 0];

internalField   nonuniform List<scalar> 
25880
(
2.0046371e-06
1.7050164e-11
2.0045882e-06
4.8848969e-11
2.0045182e-06
7.0005861e-11
2.0044379e-06
8.0352036e-11
2.0043482e-06
8.966324e-11
2.0042487e-06
9.9537105e-11
2.004139e-06
1.0970619e-10
2.0040187e-06
1.2031504e-10
2.0038869e-06
1.3180014e-10
2.0037423e-06
1.445888e-10
2.0035832e-06
1.5909724e-10
2.0034073e-06
1.7586165e-10
2.0032117e-06
1.9562459e-10
2.0029921e-06
2.1958345e-10
2.0027429e-06
2.4924405e-10
2.0024548e-06
2.8810257e-10
2.0021165e-06
3.3827437e-10
2.0017002e-06
4.1624612e-10
2.0011894e-06
5.1084889e-10
2.0004489e-06
7.4054508e-10
1.9995142e-06
9.3463428e-10
1.9968936e-06
2.6206437e-09
1.9949336e-06
1.9599672e-09
1.0264153e-06
9.6851828e-07
4.3216281e-08
9.8319904e-07
2.7426985e-08
1.5789296e-08
2.5394886e-08
2.0320994e-09
2.4577489e-08
8.1739684e-10
2.3994389e-08
5.8309975e-10
2.3495013e-08
4.9937617e-10
2.3053166e-08
4.4184723e-10
2.2658046e-08
3.951199e-10
2.2301064e-08
3.5698209e-10
2.1975229e-08
3.2583457e-10
2.167543e-08
2.9979891e-10
2.1397908e-08
2.7752267e-10
2.1139728e-08
2.5818022e-10
2.089849e-08
2.4123787e-10
2.0672203e-08
2.2628718e-10
2.0459203e-08
2.1299973e-10
2.0258084e-08
2.0111922e-10
2.0067632e-08
1.9045111e-10
1.9886793e-08
1.8083966e-10
1.9714651e-08
1.7214199e-10
1.9550401e-08
1.6425026e-10
1.9393343e-08
1.5705727e-10
1.9242868e-08
1.5047523e-10
1.9098414e-08
1.444541e-10
1.8959494e-08
1.3891997e-10
1.882568e-08
1.3381356e-10
1.8696569e-08
1.2911135e-10
1.85718e-08
1.2476866e-10
1.8451064e-08
1.2073658e-10
1.8334067e-08
1.1699664e-10
1.8220533e-08
1.1353386e-10
1.8110225e-08
1.1030843e-10
1.8002932e-08
1.07293e-10
1.7898445e-08
1.0448738e-10
1.7796566e-08
1.0187873e-10
1.769713e-08
9.9435503e-11
1.7599989e-08
9.7141085e-11
1.7504989e-08
9.5000011e-11
1.7411982e-08
9.3006689e-11
1.7320847e-08
9.113514e-11
1.7231476e-08
8.9371571e-11
1.7143753e-08
8.7722565e-11
1.7057567e-08
8.6186275e-11
1.6972819e-08
8.4747465e-11
1.6889427e-08
8.3392389e-11
1.6807307e-08
8.2120108e-11
1.6726372e-08
8.093502e-11
1.6646538e-08
7.9834158e-11
1.6567736e-08
7.8801565e-11
1.6489906e-08
7.7829884e-11
1.641298e-08
7.6926464e-11
1.6336887e-08
7.6092768e-11
1.6261565e-08
7.5321652e-11
1.6186963e-08
7.4602667e-11
1.6113029e-08
7.3934096e-11
1.6039706e-08
7.3322479e-11
1.5966936e-08
7.2769925e-11
1.5894669e-08
7.2267276e-11
1.5822862e-08
7.1806802e-11
1.575147e-08
7.1392282e-11
1.5680441e-08
7.1029162e-11
1.5609722e-08
7.0718592e-11
1.5539271e-08
7.0450863e-11
1.5469051e-08
7.0220763e-11
1.5399014e-08
7.003621e-11
1.5329112e-08
6.9901962e-11
1.5259297e-08
6.9815731e-11
1.5189526e-08
6.9770285e-11
1.5119762e-08
6.9764222e-11
1.5049956e-08
6.9806395e-11
1.4980053e-08
6.9902894e-11
1.4910007e-08
7.0045809e-11
1.4839777e-08
7.0229568e-11
1.4769314e-08
7.0463435e-11
1.4698558e-08
7.0755606e-11
1.4627454e-08
7.1104327e-11
1.455595e-08
7.1503721e-11
1.4483993e-08
7.1957144e-11
1.4411517e-08
7.2475914e-11
1.4338455e-08
7.3062795e-11
1.4264743e-08
7.3711836e-11
1.4190315e-08
7.4427369e-11
1.4115091e-08
7.5224054e-11
1.4038987e-08
7.6104488e-11
1.3961922e-08
7.7064785e-11
1.3883807e-08
7.8115445e-11
1.3804532e-08
7.9274842e-11
1.3723998e-08
8.0533522e-11
1.3642068e-08
8.1929885e-11
1.3562101e-08
7.9967299e-11
1.3485933e-08
7.6167747e-11
1.3413278e-08
7.2654833e-11
1.3343863e-08
6.9415176e-11
1.3277433e-08
6.6430194e-11
1.3213764e-08
6.3669084e-11
1.315266e-08
6.1104042e-11
1.3093937e-08
5.8722918e-11
1.3037422e-08
5.6514964e-11
1.2982964e-08
5.4457775e-11
1.2930432e-08
5.2532013e-11
1.2879701e-08
5.0731022e-11
1.2830651e-08
4.9050442e-11
1.2783164e-08
4.7487051e-11
1.2737137e-08
4.6026281e-11
1.2692457e-08
4.4680092e-11
1.2649045e-08
4.3411924e-11
1.2606645e-08
4.2400319e-11
1.2565359e-08
4.1286252e-11
1.2523973e-08
4.1386337e-11
1.2484502e-08
3.9470102e-11
1.2435846e-08
4.8656302e-11
3.0832939e-11
2.0345107e-06
3.4366999e-11
2.0344611e-06
9.8482539e-11
2.03439e-06
1.4116191e-10
2.0343083e-06
1.6203946e-10
2.0342171e-06
1.8082062e-10
2.0341159e-06
2.007318e-10
2.0340044e-06
2.2123634e-10
2.0338821e-06
2.4262589e-10
2.0337481e-06
2.6578022e-10
2.0336011e-06
2.9156085e-10
2.0334394e-06
3.2080676e-10
2.0332607e-06
3.5459875e-10
2.0330619e-06
3.9443338e-10
2.0328387e-06
4.427239e-10
2.0325855e-06
5.0250491e-10
2.0322927e-06
5.8082249e-10
2.0319491e-06
6.8193865e-10
2.0315262e-06
8.3907948e-10
2.0310074e-06
1.0297311e-09
2.0302553e-06
1.4926231e-09
2.0293062e-06
1.8837325e-09
2.0266455e-06
5.2813122e-09
2.0246537e-06
3.9518036e-09
1.0978376e-06
1.8953344e-06
1.2971312e-07
1.9513235e-06
8.3922202e-08
6.1580215e-08
7.770644e-08
8.2478618e-09
7.520365e-08
3.3201867e-09
7.3417858e-08
2.3688921e-09
7.1889603e-08
2.0276314e-09
7.0537685e-08
1.7937651e-09
6.9328723e-08
1.6040815e-09
6.8236439e-08
1.4492663e-09
6.7239475e-08
1.3227981e-09
6.6322189e-08
1.217085e-09
6.5473068e-08
1.1266437e-09
6.4683128e-08
1.0481203e-09
6.3945025e-08
9.7934138e-10
6.3252664e-08
9.1864744e-10
6.2600959e-08
8.6470543e-10
6.1985603e-08
8.1647534e-10
6.1402886e-08
7.7316797e-10
6.0849577e-08
7.3414886e-10
6.0322878e-08
6.9884102e-10
5.9820325e-08
6.6680319e-10
5.9339779e-08
6.3760273e-10
5.8879371e-08
6.1088371e-10
5.8437386e-08
5.8643896e-10
5.8012333e-08
5.6397282e-10
5.7602902e-08
5.432442e-10
5.720786e-08
5.2415408e-10
5.6826104e-08
5.0652416e-10
5.6456684e-08
4.9015639e-10
5.6098707e-08
4.7497395e-10
5.5751326e-08
4.6091519e-10
5.5413813e-08
4.478215e-10
5.5085524e-08
4.3558109e-10
5.4765821e-08
4.2419086e-10
5.44541e-08
4.1359979e-10
5.4149854e-08
4.0368164e-10
5.3852627e-08
3.9436803e-10
5.3561951e-08
3.856757e-10
5.3277375e-08
3.7758261e-10
5.2998525e-08
3.6998511e-10
5.272507e-08
3.6282658e-10
5.2456661e-08
3.561319e-10
5.2192953e-08
3.4989454e-10
5.1933647e-08
3.4405334e-10
5.1678486e-08
3.3855282e-10
5.1427218e-08
3.3338802e-10
5.1179577e-08
3.285767e-10
5.0935304e-08
3.2410699e-10
5.069419e-08
3.1991532e-10
5.0456049e-08
3.1597128e-10
5.0220672e-08
3.1230349e-10
4.9987846e-08
3.0891866e-10
4.975738e-08
3.0578796e-10
4.9529113e-08
3.0286953e-10
4.9302891e-08
3.0015569e-10
4.9078541e-08
2.9767259e-10
4.8855882e-08
2.95429e-10
4.8634761e-08
2.9338844e-10
4.8415048e-08
2.9151958e-10
4.8196603e-08
2.8983682e-10
4.797927e-08
2.8836257e-10
4.7762887e-08
2.871014e-10
4.7547323e-08
2.860147e-10
4.7332463e-08
2.8508107e-10
4.7118168e-08
2.8433176e-10
4.6904283e-08
2.8378661e-10
4.6690662e-08
2.834364e-10
4.647718e-08
2.8325221e-10
4.6263717e-08
2.8322789e-10
4.6050124e-08
2.8339907e-10
4.5836236e-08
2.8379054e-10
4.5621911e-08
2.8437088e-10
4.5407023e-08
2.8511733e-10
4.519142e-08
2.8606676e-10
4.4974923e-08
2.8725276e-10
4.4757359e-08
2.8866847e-10
4.4538572e-08
2.902902e-10
4.4318398e-08
2.9213117e-10
4.4096637e-08
2.9423714e-10
4.387308e-08
2.9661969e-10
4.3647537e-08
2.9925489e-10
4.3419805e-08
3.0215999e-10
4.3189634e-08
3.0539421e-10
4.295677e-08
3.0896859e-10
4.2720968e-08
3.1286745e-10
4.248195e-08
3.1713296e-10
4.2239385e-08
3.2183972e-10
4.1992969e-08
3.2694975e-10
4.174228e-08
3.3261919e-10
4.1497595e-08
3.2465152e-10
4.1264537e-08
3.0922585e-10
4.1042228e-08
2.9496419e-10
4.0829831e-08
2.8181185e-10
4.0626568e-08
2.6969332e-10
4.0431753e-08
2.5848382e-10
4.0244787e-08
2.4807039e-10
4.0065107e-08
2.3840345e-10
3.9892182e-08
2.2943942e-10
3.9725552e-08
2.2108763e-10
3.9564815e-08
2.1326949e-10
3.9409588e-08
2.0595772e-10
3.9259504e-08
1.9913473e-10
3.9114204e-08
1.9278738e-10
3.8973373e-08
1.8685668e-10
3.8836662e-08
1.8139114e-10
3.8703832e-08
1.7624164e-10
3.8574099e-08
1.7213394e-10
3.8447779e-08
1.6760594e-10
3.8321151e-08
1.6801472e-10
3.8200456e-08
1.6016467e-10
3.8051292e-08
1.9782012e-10
1.2473788e-10
2.0947032e-06
5.2210312e-11
2.0946521e-06
1.4964877e-10
2.0945787e-06
2.1454486e-10
2.0944944e-06
2.4630092e-10
2.0944004e-06
2.7485514e-10
2.094296e-06
3.0511925e-10
2.094181e-06
3.3628195e-10
2.0940548e-06
3.6878679e-10
2.0939166e-06
4.039704e-10
2.093765e-06
4.4314178e-10
2.0935983e-06
4.8757574e-10
2.0934139e-06
5.3891418e-10
2.0932089e-06
5.9943046e-10
2.0929789e-06
6.7279033e-10
2.0927178e-06
7.6360297e-10
2.092416e-06
8.8257136e-10
2.0920618e-06
1.0361672e-09
2.091626e-06
1.2748599e-09
2.0910913e-06
1.5644421e-09
2.0903164e-06
2.2675236e-09
2.0893386e-06
2.8615027e-09
2.0865981e-06
8.0218438e-09
2.0845453e-06
6.0046158e-09
1.1868474e-06
2.7930323e-06
2.213541e-07
2.9168168e-06
1.4543748e-07
1.3749684e-07
1.3466497e-07
1.9020376e-08
1.3032545e-07
7.659701e-09
1.2722869e-07
5.4656505e-09
1.2458006e-07
4.6762649e-09
1.2223746e-07
4.136369e-09
1.2014257e-07
3.6989687e-09
1.1824983e-07
3.3420037e-09
1.1652228e-07
3.0503471e-09
1.1493282e-07
2.8065507e-09
1.1346147e-07
2.5979869e-09
1.1209267e-07
2.4169182e-09
1.1081369e-07
2.2583216e-09
1.0961397e-07
2.1183673e-09
1.084847e-07
1.9939818e-09
1.0741841e-07
1.882768e-09
1.0640867e-07
1.7829065e-09
1.0544988e-07
1.6929316e-09
1.0453721e-07
1.6115164e-09
1.0366637e-07
1.5376393e-09
1.0283367e-07
1.4703059e-09
1.0203586e-07
1.408696e-09
1.0126997e-07
1.3523265e-09
1.0053342e-07
1.3005217e-09
9.982394e-08
1.2527251e-09
9.9139391e-08
1.2087033e-09
9.8477866e-08
1.1680494e-09
9.7837714e-08
1.1303079e-09
9.721739e-08
1.0952985e-09
9.6615427e-08
1.0628781e-09
9.6030563e-08
1.0326854e-09
9.5461682e-08
1.0044615e-09
9.4907678e-08
9.7819553e-10
9.4367506e-08
9.5377164e-10
9.3840286e-08
9.3090161e-10
9.3325227e-08
9.094264e-10
9.2821521e-08
8.8938174e-10
9.2328386e-08
8.7071796e-10
9.1845172e-08
8.5319902e-10
9.1371305e-08
8.366933e-10
9.0906182e-08
8.2125525e-10
9.0449205e-08
8.0687119e-10
8.9999857e-08
7.9340144e-10
8.9557692e-08
7.807185e-10
8.9122271e-08
7.6880908e-10
8.8693133e-08
7.5771391e-10
8.8269834e-08
7.4740603e-10
8.7852009e-08
7.3774071e-10
8.7439333e-08
7.28647e-10
8.7031448e-08
7.2018898e-10
8.6627983e-08
7.123831e-10
8.6228608e-08
7.0516353e-10
8.5833043e-08
6.9843447e-10
8.5441021e-08
6.9217705e-10
8.5052243e-08
6.8645092e-10
8.4666395e-08
6.812767e-10
8.4283213e-08
6.7657137e-10
8.3902469e-08
6.722627e-10
8.3523924e-08
6.6838256e-10
8.3147303e-08
6.6498283e-10
8.2772331e-08
6.6207416e-10
8.2398777e-08
6.5956872e-10
8.2026441e-08
6.5741667e-10
8.1655084e-08
6.5568883e-10
8.1284439e-08
6.5443156e-10
8.0914251e-08
6.5362392e-10
8.0544304e-08
6.531998e-10
8.0174387e-08
6.5314439e-10
7.9804247e-08
6.5353923e-10
7.9433596e-08
6.5444166e-10
7.9062187e-08
6.5578035e-10
7.8689801e-08
6.5750257e-10
7.8316176e-08
6.596922e-10
7.7941002e-08
6.6242709e-10
7.7563978e-08
6.6569193e-10
7.7184836e-08
6.6943239e-10
7.6803289e-08
6.7367825e-10
7.6418991e-08
6.7853474e-10
7.6031582e-08
6.8402914e-10
7.564073e-08
6.9010666e-10
7.5246084e-08
6.9680651e-10
7.4847213e-08
7.0426483e-10
7.4443674e-08
7.1250783e-10
7.4035042e-08
7.2149947e-10
7.3620838e-08
7.3133637e-10
7.3200488e-08
7.4219048e-10
7.2773462e-08
7.5397494e-10
7.2339031e-08
7.6705009e-10
7.1915007e-08
7.4867612e-10
7.151113e-08
7.1310291e-10
7.1125879e-08
6.8021445e-10
7.0757807e-08
6.4988412e-10
7.0405563e-08
6.2193762e-10
7.0067959e-08
5.9608769e-10
6.9743956e-08
5.7207365e-10
6.9432578e-08
5.4978079e-10
6.9132909e-08
5.2910868e-10
6.8844148e-08
5.0984871e-10
6.8565598e-08
4.9181954e-10
6.8296598e-08
4.7495777e-10
6.803651e-08
4.5922304e-10
6.7784712e-08
4.4458499e-10
6.7540661e-08
4.3090781e-10
6.7303749e-08
4.1830312e-10
6.7073564e-08
4.064265e-10
6.6848747e-08
3.9695104e-10
6.662985e-08
3.8650332e-10
6.6410425e-08
3.8743926e-10
6.620133e-08
3.6925961e-10
6.5942642e-08
4.5650811e-10
2.8717509e-10
2.1861116e-06
7.0848532e-11
2.1860581e-06
2.03122e-10
2.1859814e-06
2.9127115e-10
2.1858933e-06
3.3442198e-10
2.1857949e-06
3.7320254e-10
2.1856857e-06
4.1429311e-10
2.1855654e-06
4.5659875e-10
2.1854335e-06
5.0072209e-10
2.185289e-06
5.4847703e-10
2.1851305e-06
6.016402e-10
2.1849561e-06
6.6194178e-10
2.1847634e-06
7.3160977e-10
2.1845491e-06
8.1372876e-10
2.1843086e-06
9.1327245e-10
2.1840358e-06
1.036494e-09
2.1837204e-06
1.197915e-09
2.1833503e-06
1.406313e-09
2.182895e-06
1.7301629e-09
2.1823364e-06
2.1230387e-09
2.181527e-06
3.0768991e-09
2.1805059e-06
3.8826249e-09
2.1776445e-06
1.0883222e-08
2.1754998e-06
8.1493435e-09
1.2970697e-06
3.6714624e-06
3.2325278e-07
3.8906337e-06
2.1562816e-07
2.4512145e-07
1.996622e-07
3.4986334e-08
1.9322391e-07
1.4097991e-08
1.8863023e-07
1.0059332e-08
1.8470357e-07
8.6029261e-09
1.8123123e-07
7.6087083e-09
1.7812607e-07
6.8041266e-09
1.7532049e-07
6.1475915e-09
1.7275976e-07
5.6110777e-09
1.7040371e-07
5.1625919e-09
1.6822276e-07
4.7789402e-09
1.661938e-07
4.445884e-09
1.6429795e-07
4.1541665e-09
1.6251958e-07
3.8967368e-09
1.6084562e-07
3.6679426e-09
1.5926501e-07
3.4633768e-09
1.5776823e-07
3.279693e-09
1.5634696e-07
3.1141925e-09
1.5499404e-07
2.9644386e-09
1.5370313e-07
2.8285467e-09
1.5246875e-07
2.7046929e-09
1.5128607e-07
2.5913689e-09
1.5015072e-07
2.4876782e-09
1.4905886e-07
2.392387e-09
1.4800711e-07
2.3044712e-09
1.4699232e-07
2.2234935e-09
1.4601166e-07
2.1487116e-09
1.4506268e-07
2.0792904e-09
1.4414308e-07
2.0148926e-09
1.4325071e-07
1.9552538e-09
1.4238368e-07
1.8997161e-09
1.4154034e-07
1.8478019e-09
1.4071905e-07
1.7994854e-09
1.3991826e-07
1.754556e-09
1.3913667e-07
1.7124883e-09
1.3837311e-07
1.6729875e-09
1.3762638e-07
1.6361149e-09
1.3689532e-07
1.6017809e-09
1.3617896e-07
1.569556e-09
1.3547646e-07
1.5391964e-09
1.3478692e-07
1.5107979e-09
1.3410945e-07
1.4843369e-09
1.3344329e-07
1.4595593e-09
1.3278778e-07
1.4362309e-09
1.3214226e-07
1.4143245e-09
1.3150606e-07
1.3939143e-09
1.3087852e-07
1.3749517e-09
1.3025908e-07
1.3571734e-09
1.2964728e-07
1.3404475e-09
1.2904258e-07
1.3248888e-09
1.2844444e-07
1.3105291e-09
1.2785235e-07
1.2972485e-09
1.2726592e-07
1.2848718e-09
1.2668473e-07
1.2733626e-09
1.2610835e-07
1.2628293e-09
1.2553632e-07
1.2533106e-09
1.2496823e-07
1.2446557e-09
1.2440376e-07
1.2367317e-09
1.2384255e-07
1.229595e-09
1.2328419e-07
1.2233412e-09
1.2272828e-07
1.2179904e-09
1.2217446e-07
1.2133828e-09
1.2162245e-07
1.209426e-09
1.210719e-07
1.2062482e-09
1.2052239e-07
1.2039357e-09
1.1997356e-07
1.2024505e-09
1.1942509e-07
1.2016719e-09
1.1887667e-07
1.2015717e-09
1.1832791e-07
1.2022988e-09
1.1777839e-07
1.2039591e-09
1.1722775e-07
1.2064231e-09
1.1667565e-07
1.2095934e-09
1.1612172e-07
1.2136225e-09
1.155655e-07
1.2186542e-09
1.1500653e-07
1.2246613e-09
1.1444442e-07
1.2315442e-09
1.1387874e-07
1.2393566e-09
1.1330898e-07
1.2482915e-09
1.1273461e-07
1.2584002e-09
1.1215513e-07
1.2695825e-09
1.1157003e-07
1.2819095e-09
1.1097866e-07
1.2956311e-09
1.1038038e-07
1.3107966e-09
1.0977454e-07
1.3273401e-09
1.0916043e-07
1.3454381e-09
1.0853722e-07
1.365407e-09
1.079041e-07
1.3870881e-09
1.0726001e-07
1.4111446e-09
1.0663134e-07
1.3773431e-09
1.0603255e-07
1.3118992e-09
1.0546137e-07
1.251395e-09
1.0491565e-07
1.195597e-09
1.0439341e-07
1.144184e-09
1.0389287e-07
1.0966284e-09
1.0341249e-07
1.0524505e-09
1.0295083e-07
1.0114384e-09
1.0250653e-07
9.7340768e-10
1.0207841e-07
9.3797524e-10
1.0166542e-07
9.0480729e-10
1.0126659e-07
8.7378652e-10
1.0088097e-07
8.4483886e-10
1.0050765e-07
8.1790842e-10
1.0014581e-07
7.927458e-10
9.9794559e-08
7.6955564e-10
9.9453282e-08
7.4770419e-10
9.9119967e-08
7.3026584e-10
9.8795431e-08
7.110393e-10
9.8470134e-08
7.1273648e-10
9.8160177e-08
6.7921585e-10
9.7776519e-08
8.4016605e-10
5.278387e-10
2.310098e-06
9.0562866e-11
2.3100414e-06
2.5971524e-10
2.3099601e-06
3.7251536e-10
2.3098668e-06
4.277566e-10
2.3097626e-06
4.7737535e-10
2.309647e-06
5.2993218e-10
2.3095195e-06
5.8403599e-10
2.3093798e-06
6.4045825e-10
2.3092268e-06
7.0151769e-10
2.3090589e-06
7.6948584e-10
2.3088743e-06
8.4657471e-10
2.3086703e-06
9.3563228e-10
2.3084434e-06
1.0406009e-09
2.3081888e-06
1.1678375e-09
2.3079e-06
1.3253331e-09
2.3075663e-06
1.5316472e-09
2.3071746e-06
1.7979931e-09
2.3066929e-06
2.2118842e-09
2.3061019e-06
2.7139658e-09
2.3052459e-06
3.9329536e-09
2.304166e-06
4.9624643e-09
2.301141e-06
1.390829e-08
2.2988719e-06
1.0418397e-08
1.4323818e-06
4.5379525e-06
4.4079284e-07
4.8822226e-06
2.9863435e-07
3.8727995e-07
2.7654013e-07
5.7080558e-08
2.6761453e-07
2.3023591e-08
2.6125087e-07
1.6422991e-08
2.5581466e-07
1.4039133e-08
2.5100829e-07
1.2415074e-08
2.4671012e-07
1.1102301e-08
2.4282645e-07
1.003126e-08
2.3928167e-07
9.1558551e-09
2.3602021e-07
8.4240503e-09
2.3300109e-07
7.798066e-09
2.3019231e-07
7.2546625e-09
2.2756777e-07
6.7787095e-09
2.2510581e-07
6.3586929e-09
2.2278836e-07
5.9853928e-09
2.2060011e-07
5.651623e-09
2.1852788e-07
5.3519236e-09
2.1656019e-07
5.0818882e-09
2.1468708e-07
4.8375465e-09
2.1289981e-07
4.6158172e-09
2.1119077e-07
4.413731e-09
2.0955331e-07
4.2288275e-09
2.0798136e-07
4.0596336e-09
2.064696e-07
3.9041487e-09
2.0501336e-07
3.7607013e-09
2.0360829e-07
3.6285667e-09
2.0225046e-07
3.5065425e-09
2.0093648e-07
3.3932705e-09
1.9966318e-07
3.2881917e-09
1.9842756e-07
3.190873e-09
1.9722703e-07
3.1002514e-09
1.9605928e-07
3.0155452e-09
1.9492207e-07
2.9367033e-09
1.9381324e-07
2.8633859e-09
1.9273098e-07
2.7947437e-09
1.9167368e-07
2.7302919e-09
1.9063967e-07
2.6701233e-09
1.8962735e-07
2.6140946e-09
1.886354e-07
2.5615126e-09
1.8766262e-07
2.5119768e-09
1.8670778e-07
2.4656364e-09
1.8576966e-07
2.4224556e-09
1.848472e-07
2.3820241e-09
1.8393947e-07
2.3439602e-09
1.8304557e-07
2.3082157e-09
1.8216458e-07
2.2749097e-09
1.8129557e-07
2.2439652e-09
1.8043778e-07
2.2149569e-09
1.7959056e-07
2.1876673e-09
1.7875317e-07
2.1622794e-09
1.7792485e-07
2.1388466e-09
1.7710493e-07
2.1171758e-09
1.7629282e-07
2.0969824e-09
1.7548797e-07
2.0782047e-09
1.7468979e-07
2.0610173e-09
1.7389761e-07
2.0454846e-09
1.7311091e-07
2.0313634e-09
1.723292e-07
2.0184367e-09
1.71552e-07
2.0067936e-09
1.7077875e-07
1.9965899e-09
1.7000888e-07
1.9878592e-09
1.6924192e-07
1.9803437e-09
1.6847746e-07
1.9738914e-09
1.67715e-07
1.9687086e-09
1.66954e-07
1.9649367e-09
1.6619393e-07
1.9625157e-09
1.6543435e-07
1.9612496e-09
1.6467483e-07
1.9610908e-09
1.6391485e-07
1.9622805e-09
1.6315382e-07
1.9649924e-09
1.6239122e-07
1.9690178e-09
1.6162662e-07
1.9741971e-09
1.6085947e-07
1.9807765e-09
1.6008913e-07
1.9889914e-09
1.5931499e-07
1.9987989e-09
1.585365e-07
2.0100371e-09
1.5775306e-07
2.0227921e-09
1.5696398e-07
2.037378e-09
1.561685e-07
2.0538798e-09
1.5536594e-07
2.0721352e-09
1.545556e-07
2.0922589e-09
1.5373657e-07
2.1146575e-09
1.5290795e-07
2.1394134e-09
1.5206887e-07
2.1664194e-09
1.5121835e-07
2.1959621e-09
1.503552e-07
2.2285575e-09
1.4947834e-07
2.2639487e-09
1.4858626e-07
2.3032188e-09
1.4771555e-07
2.2480532e-09
1.4688621e-07
2.1412405e-09
1.4609512e-07
2.0424908e-09
1.4533929e-07
1.9514217e-09
1.4461597e-07
1.8675092e-09
1.439227e-07
1.7898927e-09
1.4325736e-07
1.7177892e-09
1.4261795e-07
1.6508519e-09
1.4200258e-07
1.58878e-09
1.414096e-07
1.5309493e-09
1.408376e-07
1.4768148e-09
1.402852e-07
1.4261841e-09
1.397511e-07
1.3789364e-09
1.3923403e-07
1.3349806e-09
1.3873286e-07
1.2939102e-09
1.3824636e-07
1.2560581e-09
1.3777368e-07
1.2203902e-09
1.3731203e-07
1.1919163e-09
1.3686254e-07
1.1605297e-09
1.3641202e-07
1.1632481e-09
1.3598278e-07
1.1084637e-09
1.354513e-07
1.3716406e-09
8.6106056e-10
2.4685101e-06
1.116517e-10
2.4684495e-06
3.2029346e-10
2.4683625e-06
4.5952992e-10
2.4682625e-06
5.2775023e-10
2.4681509e-06
5.8898884e-10
2.468027e-06
6.5382921e-10
2.4678905e-06
7.2056817e-10
2.4677408e-06
7.9015842e-10
2.4675768e-06
8.6545888e-10
2.467397e-06
9.4927071e-10
2.4671993e-06
1.0443216e-09
2.4669808e-06
1.1541227e-09
2.4667379e-06
1.2835338e-09
2.4664653e-06
1.4403908e-09
2.4661561e-06
1.6345428e-09
2.4657989e-06
1.8888673e-09
2.4653797e-06
2.2171796e-09
2.4648642e-06
2.7273508e-09
2.464232e-06
3.3461909e-09
2.4633163e-06
4.8486348e-09
2.4621615e-06
6.1173114e-09
2.4589274e-06
1.7142395e-08
2.4564996e-06
1.2846151e-08
1.5970203e-06
5.3974318e-06
5.7982622e-07
5.8994167e-06
3.9927368e-07
5.6783248e-07
3.6977913e-07
8.6575106e-08
3.5783046e-07
3.4972265e-08
3.4932446e-07
2.4928988e-08
3.4206328e-07
2.1300321e-08
3.3564447e-07
1.8833883e-08
3.299041e-07
1.6842667e-08
3.2471695e-07
1.5218415e-08
3.1998222e-07
1.3890578e-08
3.1562578e-07
1.2780492e-08
3.1159289e-07
1.1830961e-08
3.0784082e-07
1.1006726e-08
3.0433473e-07
1.0284799e-08
3.0104573e-07
9.6477007e-09
2.9794967e-07
9.0814515e-09
2.9502613e-07
8.5751592e-09
2.9225751e-07
8.120543e-09
2.8962848e-07
7.7109162e-09
2.8712577e-07
7.3402643e-09
2.8473768e-07
7.0039021e-09
2.8245407e-07
6.6973392e-09
2.8026606e-07
6.416843e-09
2.7816553e-07
6.1601644e-09
2.7614539e-07
5.9242869e-09
2.7419942e-07
5.7066747e-09
2.7232177e-07
5.5062121e-09
2.7050723e-07
5.3210875e-09
2.6875125e-07
5.149248e-09
2.6704961e-07
4.9898324e-09
2.653983e-07
4.8421817e-09
2.6379385e-07
4.7046984e-09
2.622332e-07
4.5761938e-09
2.6071333e-07
4.4565765e-09
2.5923138e-07
4.3453369e-09
2.5778492e-07
4.2411984e-09
2.563718e-07
4.1434202e-09
2.5498979e-07
4.0521321e-09
2.5363676e-07
3.9671212e-09
2.5231093e-07
3.8873474e-09
2.510107e-07
3.8121987e-09
2.4973445e-07
3.7418912e-09
2.4848053e-07
3.6763742e-09
2.4724752e-07
3.6150322e-09
2.460342e-07
3.5572869e-09
2.4483935e-07
3.5030588e-09
2.4366174e-07
3.4525261e-09
2.4250013e-07
3.4055755e-09
2.4135351e-07
3.3615681e-09
2.4022101e-07
3.3201705e-09
2.3910164e-07
3.2816539e-09
2.3799438e-07
3.2461014e-09
2.3689833e-07
3.2132244e-09
2.3581272e-07
3.182593e-09
2.3473682e-07
3.1541094e-09
2.336698e-07
3.1280356e-09
2.3261081e-07
3.104471e-09
2.3155913e-07
3.0830514e-09
2.3051412e-07
3.0634473e-09
2.2947512e-07
3.0457889e-09
2.284414e-07
3.0303124e-09
2.2741219e-07
3.0170706e-09
2.2638685e-07
3.0056764e-09
2.2536485e-07
2.9958974e-09
2.2434551e-07
2.9880419e-09
2.2332812e-07
2.9823262e-09
2.2231198e-07
2.9786615e-09
2.2129648e-07
2.9767522e-09
2.2028104e-07
2.9765237e-09
2.1926498e-07
2.9783394e-09
2.1824751e-07
2.9824639e-09
2.1722795e-07
2.9885848e-09
2.1620568e-07
2.9964589e-09
2.1518e-07
3.0064559e-09
2.1415006e-07
3.0189336e-09
2.1311503e-07
3.03383e-09
2.1207417e-07
3.0508999e-09
2.1102669e-07
3.0702714e-09
2.0997165e-07
3.0924202e-09
2.0890805e-07
3.1174777e-09
2.0783499e-07
3.145199e-09
2.0675149e-07
3.1757558e-09
2.0565638e-07
3.209764e-09
2.0454844e-07
3.2473514e-09
2.0342651e-07
3.288356e-09
2.0228926e-07
3.3332103e-09
2.0113512e-07
3.3826973e-09
1.9996264e-07
3.4364302e-09
1.987698e-07
3.4960533e-09
1.9760553e-07
3.4123301e-09
1.9649656e-07
3.2502083e-09
1.9543872e-07
3.1003253e-09
1.9442805e-07
2.9620996e-09
1.9346082e-07
2.834735e-09
1.9253379e-07
2.7169272e-09
1.9164409e-07
2.6074871e-09
1.9078905e-07
2.5058868e-09
1.8996616e-07
2.4116703e-09
1.8917322e-07
2.3238921e-09
1.8840831e-07
2.2417244e-09
1.8766962e-07
2.1648737e-09
1.869554e-07
2.0931568e-09
1.8626395e-07
2.0264356e-09
1.8559376e-07
1.9640944e-09
1.8494318e-07
1.9066359e-09
1.8431108e-07
1.8524922e-09
1.8369375e-07
1.8092527e-09
1.8309267e-07
1.7616055e-09
1.8249028e-07
1.7656415e-09
1.8191633e-07
1.6824142e-09
1.8120553e-07
2.0824356e-09
1.3066015e-09
2.6637086e-06
1.3443533e-10
2.6636431e-06
3.8578782e-10
2.663549e-06
5.5366661e-10
2.6634408e-06
6.3596512e-10
2.6633199e-06
7.0978942e-10
2.6631859e-06
7.8792243e-10
2.6630381e-06
8.6832963e-10
2.6628761e-06
9.5216036e-10
2.6626987e-06
1.0428572e-09
2.6625042e-06
1.143794e-09
2.6622902e-06
1.2582556e-09
2.6620539e-06
1.39047e-09
2.6617911e-06
1.5462875e-09
2.6614964e-06
1.7351415e-09
2.661162e-06
1.9688874e-09
2.6607758e-06
2.2750653e-09
2.6603227e-06
2.670298e-09
2.6597656e-06
3.28444e-09
2.6590825e-06
4.0293482e-09
2.6580933e-06
5.8378391e-09
2.6568459e-06
7.3646373e-09
2.6533543e-06
2.0634074e-08
2.6507309e-06
1.5469518e-08
1.7956394e-06
6.2525233e-06
7.4681413e-07
6.948242e-06
5.2322639e-07
7.9142022e-07
4.8467544e-07
1.2512606e-07
4.6899979e-07
5.0647909e-08
4.5786655e-07
3.6062234e-08
4.4837025e-07
3.0796615e-08
4.399769e-07
2.7227239e-08
4.3247001e-07
2.4349553e-08
4.2568575e-07
2.200268e-08
4.1949267e-07
2.0083655e-08
4.1379397e-07
1.8479197e-08
4.085181e-07
1.7106822e-08
4.0360926e-07
1.5915569e-08
3.990219e-07
1.4872162e-08
3.9471828e-07
1.3951321e-08
3.9066688e-07
1.3132851e-08
3.8684101e-07
1.2401026e-08
3.8321767e-07
1.174388e-08
3.7977684e-07
1.1151748e-08
3.7650116e-07
1.0615943e-08
3.7337538e-07
1.0129691e-08
3.703862e-07
9.6865116e-09
3.6752203e-07
9.2810116e-09
3.6477228e-07
8.9099205e-09
3.6212766e-07
8.568905e-09
3.5958004e-07
8.2542994e-09
3.5712178e-07
7.9644673e-09
3.5474606e-07
7.6968088e-09
3.5244694e-07
7.4483673e-09
3.5021889e-07
7.2178781e-09
3.4805669e-07
7.0043864e-09
3.4595578e-07
6.8056049e-09
3.4391217e-07
6.619811e-09
3.4192189e-07
6.4468523e-09
3.3998123e-07
6.2860009e-09
3.3808699e-07
6.1354288e-09
3.3623636e-07
5.9940571e-09
3.3442643e-07
5.862057e-09
3.3265443e-07
5.7391277e-09
3.3091799e-07
5.6237826e-09
3.2921506e-07
5.5151305e-09
3.2754348e-07
5.4134684e-09
3.2590113e-07
5.3187283e-09
3.2428613e-07
5.2300312e-09
3.2269687e-07
5.1465417e-09
3.211318e-07
5.0681356e-09
3.1958926e-07
4.9950667e-09
3.1806766e-07
4.9271768e-09
3.1656567e-07
4.863551e-09
3.1508214e-07
4.803703e-09
3.1361578e-07
4.7480143e-09
3.1216527e-07
4.6966091e-09
3.1072942e-07
4.6490762e-09
3.0930722e-07
4.6047966e-09
3.078977e-07
4.5636236e-09
3.0649981e-07
4.5259305e-09
3.0511241e-07
4.4918645e-09
3.0373456e-07
4.4609058e-09
3.0236543e-07
4.4325771e-09
3.0100416e-07
4.4070603e-09
2.9964978e-07
4.3846957e-09
2.9830128e-07
4.3655633e-09
2.9695785e-07
4.3491086e-09
2.9561875e-07
4.3349932e-09
2.9428314e-07
4.3236561e-09
2.9295005e-07
4.3154123e-09
2.9161858e-07
4.3101375e-09
2.9028792e-07
4.3074063e-09
2.8895734e-07
4.3071076e-09
2.8762592e-07
4.3097627e-09
2.8629262e-07
4.3157566e-09
2.8495657e-07
4.3246436e-09
2.8361695e-07
4.3360702e-09
2.8227284e-07
4.3505653e-09
2.8092313e-07
4.368648e-09
2.7956673e-07
4.3902327e-09
2.7820266e-07
4.4149659e-09
2.768299e-07
4.4430293e-09
2.7544721e-07
4.4751091e-09
2.7405329e-07
4.5113992e-09
2.7264694e-07
4.5515476e-09
2.712269e-07
4.5957996e-09
2.6979162e-07
4.6450442e-09
2.683395e-07
4.6994705e-09
2.6686901e-07
4.7588453e-09
2.6537843e-07
4.8237906e-09
2.6386569e-07
4.8954394e-09
2.6232888e-07
4.9732368e-09
2.6076537e-07
5.0595632e-09
2.5923927e-07
4.9384314e-09
2.5778565e-07
4.7038325e-09
2.5639903e-07
4.4869438e-09
2.5507421e-07
4.2869223e-09
2.5380633e-07
4.1026151e-09
2.5259112e-07
3.9321376e-09
2.5142483e-07
3.7737683e-09
2.5030398e-07
3.6267414e-09
2.4922525e-07
3.4903974e-09
2.4818577e-07
3.3633712e-09
2.4718303e-07
3.2444643e-09
2.4621466e-07
3.1332495e-09
2.4527835e-07
3.0294622e-09
2.4437189e-07
2.932903e-09
2.434933e-07
2.8426823e-09
2.4264041e-07
2.7595243e-09
2.4181174e-07
2.6811629e-09
2.4100243e-07
2.618557e-09
2.4021444e-07
2.5495966e-09
2.3942479e-07
2.5552937e-09
2.3867243e-07
2.434779e-09
2.3774051e-07
3.0143537e-09
1.8906857e-09
2.8986024e-06
1.5926115e-10
2.898531e-06
4.5721145e-10
2.8984283e-06
6.5640031e-10
2.8983101e-06
7.5410839e-10
2.8981782e-06
8.4168628e-10
2.8980318e-06
9.3433065e-10
2.8978705e-06
1.0296531e-09
2.8976937e-06
1.1290184e-09
2.8975e-06
1.2365052e-09
2.8972877e-06
1.3561117e-09
2.8970542e-06
1.4917306e-09
2.8967963e-06
1.6483705e-09
2.8965096e-06
1.832961e-09
2.8961881e-06
2.0566754e-09
2.8958234e-06
2.3335536e-09
2.8954023e-06
2.6962142e-09
2.8949083e-06
3.1643339e-09
2.894301e-06
3.8917088e-09
2.8935564e-06
4.7738957e-09
2.8924786e-06
6.9156351e-09
2.8911199e-06
8.7233706e-09
2.8873182e-06
2.4435786e-08
2.8844592e-06
1.8328538e-08
2.0333202e-06
7.1036623e-06
9.4888781e-07
8.0326744e-06
6.7717294e-07
1.0631351e-06
6.2747916e-07
1.7481984e-07
6.0718637e-07
7.0940697e-08
5.9281773e-07
5.0430879e-08
5.8057327e-07
4.3041076e-08
5.6975221e-07
3.8048296e-08
5.6007248e-07
3.4029284e-08
5.513228e-07
3.0752358e-08
5.4333432e-07
2.8072139e-08
5.3598251e-07
2.5831008e-08
5.2917528e-07
2.3914046e-08
5.2284077e-07
2.2250079e-08
5.1692037e-07
2.0792567e-08
5.1136551e-07
1.9506179e-08
5.0613563e-07
1.836273e-08
5.0119638e-07
1.7340279e-08
4.9651814e-07
1.6422121e-08
4.9207513e-07
1.5594757e-08
4.87845e-07
1.484607e-08
4.838081e-07
1.4166587e-08
4.7994734e-07
1.3547274e-08
4.7624775e-07
1.2980602e-08
4.7269569e-07
1.2461977e-08
4.6927922e-07
1.1985381e-08
4.6598782e-07
1.1545694e-08
4.6281169e-07
1.1140598e-08
4.5974202e-07
1.0766486e-08
4.5677114e-07
1.0419243e-08
4.5389194e-07
1.0097076e-08
4.5109768e-07
9.7986464e-09
4.483825e-07
9.5207907e-09
4.4574121e-07
9.2610953e-09
4.4316875e-07
9.0193184e-09
4.4066029e-07
8.7944563e-09
4.3821174e-07
8.5839796e-09
4.3581943e-07
8.3863688e-09
4.3347965e-07
8.20184e-09
4.3118879e-07
8.0299832e-09
4.2894383e-07
7.8687452e-09
4.2674209e-07
7.7168712e-09
4.245808e-07
7.5747541e-09
4.2245722e-07
7.4423068e-09
4.2036894e-07
7.3183169e-09
4.1831386e-07
7.2016171e-09
4.1628998e-07
7.0920208e-09
4.1429517e-07
6.9898769e-09
4.1232737e-07
6.8949729e-09
4.1038488e-07
6.8060434e-09
4.0846618e-07
6.722401e-09
4.0656963e-07
6.6445648e-09
4.0469352e-07
6.5727137e-09
4.0283632e-07
6.5062826e-09
4.0099671e-07
6.4444095e-09
3.9917345e-07
6.386881e-09
3.9736517e-07
6.3342121e-09
3.9557042e-07
6.286613e-09
3.9378796e-07
6.2433674e-09
3.9201673e-07
6.203807e-09
3.9025561e-07
6.1681758e-09
3.8850336e-07
6.1369489e-09
3.8675868e-07
6.110243e-09
3.850205e-07
6.0872912e-09
3.8328787e-07
6.0676163e-09
3.8155971e-07
6.0518225e-09
3.7983476e-07
6.0403536e-09
3.7811186e-07
6.0330419e-09
3.7638997e-07
6.0292956e-09
3.7466812e-07
6.0289546e-09
3.7294514e-07
6.0327418e-09
3.712197e-07
6.0411997e-09
3.6949063e-07
6.0537132e-09
3.6775692e-07
6.069786e-09
3.6601733e-07
6.0901492e-09
3.6427045e-07
6.1155314e-09
3.6251486e-07
6.1458192e-09
3.6074931e-07
6.1805196e-09
3.5897246e-07
6.2198815e-09
3.571827e-07
6.2648628e-09
3.5537836e-07
6.3157403e-09
3.5355788e-07
6.3720253e-09
3.5171963e-07
6.4340558e-09
3.498616e-07
6.5030738e-09