/*--------------------------------*- C++ -*----------------------------------*\
  =========                 |
  \\      /  F ield         | OpenFOAM: The Open Source CFD Toolbox
   \\    /   O peration     | Website:  https://openfoam.org
    \\  /    A nd           | Version:  12
     \\/     M anipulation  |
\*---------------------------------------------------------------------------*/
FoamFile
{
    format      ascii;
    class       volVectorField;
    location    "900";
    object      wallShearStress;
}
// * * * * * * * * * * * * * * * * * * * * * * * * * * * * * * * * * * * * * //

dimensions      [0 2 -2 0 0 0 0];

internalField   uniform (0 0 0);

boundaryField
{
    bottom
    {
        type            calculated;
        value           nonuniform List<vector> 
112
(
(-0.0057088219 -3.5169002e-05 0)
(-0.0028813052 -3.843311e-07 -1.8583134e-17)
(-0.0025774022 -8.3772767e-08 -5.1647907e-19)
(-0.0024778113 -1.8558358e-08 -9.913215e-19)
(-0.0024146192 -1.3124089e-08 0)
(-0.0023617572 -1.1142089e-08 0)
(-0.0023152393 -9.7695285e-09 0)
(-0.0022738207 -8.6531828e-09 0)
(-0.0022365957 -7.741418e-09 0)
(-0.0022027667 -6.9951294e-09 -7.4567905e-19)
(-0.002171741 -6.3699739e-09 0)
(-0.0021430933 -5.8343388e-09 -6.2189967e-19)
(-0.0021165011 -5.368827e-09 5.7227756e-19)
(-0.0020917029 -4.9607183e-09 -5.2877525e-19)
(-0.0020684827 -4.6002385e-09 0)
(-0.0020466602 -4.2795541e-09 4.5616563e-19)
(-0.0020260846 -3.9925222e-09 0)
(-0.0020066268 -3.7344571e-09 -1.9903052e-19)
(-0.0019881743 -3.5015428e-09 0)
(-0.0019706296 -3.2903674e-09 -3.5072539e-19)
(-0.0019539082 -3.0983235e-09 3.3025378e-19)
(-0.0019379344 -2.9228656e-09 0)
(-0.0019226446 -2.7619183e-09 0)
(-0.0019079808 -2.6141919e-09 0)
(-0.0018938896 -2.477963e-09 -2.6412895e-19)
(-0.0018803272 -2.3518628e-09 0)
(-0.0018672523 -2.2352105e-09 0)
(-0.0018546259 -2.126947e-09 0)
(-0.0018424154 -2.0260015e-09 0)
(-0.0018305916 -1.9318652e-09 -2.0592124e-19)
(-0.0018191254 -1.8440875e-09 1.9656348e-19)
(-0.0018079908 -1.7618229e-09 0)
(-0.0017971666 -1.6844788e-09 0)
(-0.0017866322 -1.6119131e-09 0)
(-0.0017763665 -1.5437754e-09 1.64553e-19)
(-0.0017663513 -1.4794446e-09 0)
(-0.0017565718 -1.4185621e-09 0)
(-0.0017470133 -1.3610947e-09 -1.4508187e-19)
(-0.0017376599 -1.3068478e-09 0)
(-0.0017284982 -1.2553468e-09 0)
(-0.0017195173 -1.2063201e-09 0)
(-0.0017107065 -1.1597829e-09 1.2362369e-19)
(-0.0017020539 -1.1156243e-09 -5.9458098e-20)
(-0.0016935488 -1.0735629e-09 1.1443268e-19)
(-0.0016851826 -1.033356e-09 0)
(-0.0016769472 -9.9493727e-10 0)
(-0.0016688342 -9.5829811e-10 -1.5322026e-19)
(-0.0016608346 -9.2333799e-10 0)
(-0.0016529406 -8.8980944e-10 9.4846288e-20)
(-0.0016451466 -8.5758597e-10 0)
(-0.0016374459 -8.267066e-10 0)
(-0.0016298316 -7.9713487e-10 -4.2484028e-20)
(-0.0016222969 -7.6874663e-10 -4.0970924e-20)
(-0.001614836 -7.4139061e-10 0)
(-0.0016074443 -7.150159e-10 -7.621513e-20)
(-0.0016001164 -6.8965146e-10 0)
(-0.0015928464 -6.6527624e-10 0)
(-0.0015856284 -6.4176424e-10 0)
(-0.0015784583 -6.1901522e-10 0)
(-0.0015713319 -5.9703632e-10 0)
(-0.0015642442 -5.7584035e-10 0)
(-0.0015571899 -5.5540247e-10 0)
(-0.0015501639 -5.3561315e-10 0)
(-0.0015431628 -5.1640771e-10 0)
(-0.0015361825 -4.9782116e-10 -5.3063748e-20)
(-0.001529218 -4.798592e-10 0)
(-0.0015222642 -4.6247529e-10 -2.464795e-20)
(-0.0015153166 -4.4559306e-10 0)
(-0.0015083717 -4.2918357e-10 -2.2873785e-20)
(-0.0015014252 -4.1327956e-10 4.4052262e-20)
(-0.0014944717 -3.9788874e-10 4.2411545e-20)
(-0.0014875057 -3.8293698e-10 -2.0408918e-20)
(-0.0014805235 -3.6837227e-10 0)
(-0.0014735206 -3.5422401e-10 0)
(-0.0014664915 -3.4050797e-10 3.6295274e-20)
(-0.0014594302 -3.2718664e-10 -3.4875316e-20)
(-0.0014523313 -3.1420903e-10 0)
(-0.0014451901 -3.0157004e-10 0)
(-0.0014380005 -2.8929251e-10 -3.0836124e-20)
(-0.0014307556 -2.7735985e-10 0)
(-0.0014234486 -2.6572425e-10 0)
(-0.0014160739 -2.5437919e-10 0)
(-0.0014086239 -2.4334996e-10 0)
(-0.0014010899 -2.3261591e-10 0)
(-0.0013934638 -2.2213833e-10 0)
(-0.0013857377 -2.1192257e-10 0)
(-0.0013779015 -2.0198967e-10 0)
(-0.0013699435 -1.9228465e-10 2.0495883e-20)
(-0.0013618556 -1.8286848e-10 -1.9492273e-20)
(-0.0013538027 -1.739703e-10 0)
(-0.0013460395 -1.6570442e-10 0)
(-0.0013386398 -1.5806223e-10 0)
(-0.0013315759 -1.5101439e-10 0)
(-0.0013248211 -1.4452045e-10 0)
(-0.0013183514 -1.385136e-10 0)
(-0.0013121463 -1.3293335e-10 0)
(-0.0013061873 -1.2775325e-10 0)
(-0.0013004562 -1.2294991e-10 -1.3105369e-20)
(-0.0012949367 -1.1847451e-10 0)
(-0.0012896151 -1.1428505e-10 0)
(-0.001284479 -1.1036713e-10 0)
(-0.001279516 -1.0671111e-10 0)
(-0.0012747144 -1.0331015e-10 0)
(-0.0012700626 -1.0013245e-10 0)
(-0.0012655518 -9.7204136e-11 0)
(-0.001261168 -9.4445912e-11 0)
(-0.0012569097 -9.2246463e-11 0)
(-0.001252727 -8.9825261e-11 0)
(-0.0012486913 -9.0039682e-11 0)
(-0.0012444866 -1.5449354e-10 0)
(-0.0012408419 -1.05701e-10 -1.1351902e-20)
(-0.0012347624 -1.2061482e-10 0)
)
;
    }
    back
    {
        type            empty;
    }
    front
    {
        type            empty;
    }
    inlet
    {
        type            calculated;
        value           uniform (0 0 0);
    }
    outlet
    {
        type            calculated;
        value           uniform (0 0 0);
    }
    top
    {
        type            calculated;
        value           uniform (0 0 0);
    }
    slipsurface
    {
        type            calculated;
        value           uniform (0 0 0);
    }
}


// ************************************************************************* //
