/*--------------------------------*- C++ -*----------------------------------*\
  =========                 |
  \\      /  F ield         | OpenFOAM: The Open Source CFD Toolbox
   \\    /   O peration     | Website:  https://openfoam.org
    \\  /    A nd           | Version:  12
     \\/     M anipulation  |
\*---------------------------------------------------------------------------*/
FoamFile
{
    format      ascii;
    class       volScalarField;
    location    "400";
    object      epsilon;
}
// * * * * * * * * * * * * * * * * * * * * * * * * * * * * * * * * * * * * * //

dimensions      [0 2 -3 0 0 0 0];

internalField   nonuniform List<scalar> 
13056
(
0.0047653115
0.0046173
0.0045704624
0.0045574997
0.0045521911
0.0045490754
0.0045470679
0.0045457997
0.0045450618
0.0045447224
0.0045446978
0.0045449351
0.0045454013
0.004546077
0.0045469531
0.0045480289
0.0045493195
0.0045508458
0.0045527053
0.0045550023
0.0045576026
0.0045686855
0.0045180687
0.0057506064
66.855637
81.76644
72.660526
65.086697
59.485328
55.127745
51.625816
48.774121
46.411147
44.417222
42.708264
41.223993
39.919883
38.763212
37.728532
36.795578
35.948844
35.175891
34.466542
33.812471
33.206738
32.643586
32.118128
31.626214
31.164349
30.729497
30.319024
29.930663
29.562418
29.21253
28.879449
28.561802
28.258366
27.968046
27.689857
27.422913
27.166415
26.919638
26.68192
26.452656
26.231298
26.017337
25.810309
25.609783
25.415359
25.226669
25.043369
24.865139
24.691678
24.522706
24.357958
24.197185
24.040154
23.886642
23.736438
23.589342
23.445163
23.303718
23.164836
23.028346
22.894089
22.76191
22.631659
22.503192
22.376369
22.251053
22.127111
22.004416
21.882838
21.762256
21.642547
21.52359
21.405268
21.287464
21.170061
21.052946
20.936004
20.819122
20.702185
20.58508
20.467694
20.349913
20.231621
20.112703
19.993043
19.872525
19.751033
19.628462
19.504793
19.382253
19.26452
19.152761
19.046567
18.94551
18.849194
18.757284
18.669492
18.585564
18.50527
18.428397
18.354744
18.284122
18.216352
18.151263
18.088697
18.028475
17.970509
17.914397
17.860725
17.80679
17.761047
17.684561
0.0047611491
0.0046130756
0.0045661442
0.0045531342
0.0045478047
0.004544676
0.0045426594
0.0045413843
0.0045406412
0.0045402977
0.0045402699
0.0045405047
0.004540969
0.0045416434
0.0045425189
0.0045435946
0.004544886
0.0045464141
0.0045482769
0.0045505793
0.004553187
0.0045643279
0.0045133334
0.0057393876
38.41341
44.220353
38.754247
34.505305
31.421284
29.040545
27.136108
25.590854
24.314308
23.239913
22.321102
21.524621
20.82599
20.207266
19.654533
19.156745
18.705455
18.293904
17.916568
17.568935
17.247248
16.948397
16.669743
16.409047
16.164428
15.93425
15.717095
15.511747
15.317132
15.132306
14.956437
14.78879
14.628711
14.475611
14.328964
14.188296
14.053179
13.923227
13.798086
13.677433
13.560974
13.44844
13.339583
13.234171
13.131994
13.032854
12.936569
12.842968
12.751891
12.66319
12.576724
12.49236
12.409976
12.329451
12.250676
12.173543
12.097952
12.023806
11.951014
11.879486
11.809138
11.739888
11.671657
11.604369
11.53795
11.472328
11.407433
11.343198
11.279556
11.216441
11.153791
11.091541
11.029629
10.967996
10.90658
10.84532
10.784158
10.723034
10.66189
10.600664
10.5393
10.477736
10.415914
10.353773
10.291253
10.228294
10.164837
10.100826
10.036252
9.9722791
9.9108296
9.8525105
9.7971068
9.744393
9.694162
9.6462373
9.6004681
9.5567213
9.514876
9.4748201
9.4364486
9.3996621
9.3643671
9.3304732
9.2978981
9.2665482
9.2363766
9.2071745
9.1792461
9.151184
9.1273888
9.0876075
0.0047446455
0.0045958611
0.0045485007
0.0045353093
0.0045298945
0.0045267126
0.0045246583
0.004523355
0.0045225904
0.0045222301
0.004522189
0.0045224134
0.0045228696
0.0045235378
0.004524409
0.0045254825
0.0045267739
0.0045283046
0.0045301738
0.004532488
0.0045351076
0.0045463828
0.0044945523
0.0057145867
35.639409
36.95073
31.610462
27.87679
25.248883
23.241912
21.645005
20.354488
19.292162
18.40086
17.640714
16.98337
16.408023
15.899467
15.445954
15.038184
14.669058
14.3329
14.025085
13.741841
13.480033
13.237068
13.010751
12.79922
12.600914
12.414474
12.238727
12.072665
11.9154
11.766153
11.624236
11.489042
11.360032
11.236721
11.118676
11.005507
10.896863
10.792425
10.691902
10.59503
10.501569
10.411296
10.324009
10.239519
10.157653
10.07825
10.001161
9.9262461
9.8533755
9.7824273
9.7132873
9.6458483
9.5800089
9.5156732
9.4527505
9.3911549
9.3308045
9.2716211
9.2135306
9.1564611
9.100344
9.0451135
8.9907062
8.9370607
8.8841175
8.8318191
8.7801095
8.7289342
8.6782401
8.627975
8.5780879
8.5285287
8.4792482
8.4301976
8.3813288
8.3325944
8.283947
8.2353398
8.186726
8.138059
8.0892922
8.0403789
7.9912723
7.9419251
7.8922902
7.8423205
7.7919698
7.7411952
7.6899901
7.6392816
7.5905951
7.5444102
7.5005534
7.458843
7.4191127
7.3812213
7.3450478
7.3104855
7.2774374
7.2458137
7.2155302
7.1865073
7.15867
7.1319461
7.1062697
7.0815663
7.0577982
7.0348001
7.0128114
6.9907213
6.9719978
6.9407059
0.0047155251
0.0045653738
0.0045172329
0.0045037193
0.0044981517
0.0044948742
0.0044927521
0.0044913984
0.004490595
0.0044902046
0.0044901396
0.004490345
0.0044907863
0.0044914432
0.0044923062
0.0044933749
0.0044946652
0.0044961989
0.0044980772
0.0045004092
0.0045030438
0.004514514
0.0044614223
0.005676325
36.118711
34.501498
28.985152
25.42807
22.989195
21.139294
19.669547
18.482418
17.505718
16.686681
15.988481
15.384947
14.856877
14.39025
13.974248
13.600307
13.261888
12.953768
12.67169
12.412183
12.172364
11.94985
11.742621
11.548967
11.367452
11.196828
11.036017
10.884092
10.740238
10.603738
10.47396
10.350347
10.232404
10.119684
10.011791
9.9083646
9.8090838
9.713655
9.6218117
9.5333111
9.4479319
9.3654709
9.285741
9.2085695
9.1337971
9.0612765
8.9908705
8.9224513
8.8558993
8.7911029
8.7279574
8.6663645
8.6062311
8.5474695
8.4899966
8.4337335
8.3786055
8.324541
8.2714721
8.219333
8.1680612
8.1175965
8.0678809
8.0188584
7.9704748
7.9226776
7.8754157
7.8286394
7.7823005
7.7363513
7.6907455
7.6454375
7.6003826
7.5555364
7.5108554
7.4662962
7.4218162
7.3773728
7.3329236
7.2884263
7.2438388
7.1991188
7.154224
7.1091116
7.063739
7.0180638
6.9720441
6.9256416
6.8788501
6.8325218
6.788054
6.7458838
6.705851
6.6677877
6.6315408
6.5969805
6.5639954
6.5324875
6.5023674
6.4735525
6.4459652
6.4195322
6.3941847
6.3698561
6.346486
6.324006
6.3023812
6.2814609
6.2614629
6.2413739
6.2243521
6.1959125
0.0046733774
0.0045211833
0.0044718844
0.0044578968
0.0044521031
0.0044486842
0.0044464618
0.0044450333
0.0044441727
0.0044437374
0.004443637
0.0044438142
0.0044442331
0.0044448726
0.0044457231
0.0044467838
0.0044480713
0.0044496082
0.0044514975
0.0044538526
0.0044565042
0.004468231
0.0044134432
0.0056234078
36.05847
32.780548
27.196717
23.796139
21.518503
19.801212
18.437603
17.335664
16.428641
15.667742
15.01886
14.45775
13.966618
13.532475
13.145305
12.797171
12.482014
12.194989
11.932151
11.69028
11.466703
11.259211
11.065927
10.885266
10.715895
10.556656
10.406545
10.264703
10.130373
10.002887
9.8816587
9.7661698
9.655959
9.5506125
9.4497591
9.3530658
9.2602323
9.1709857
9.0850776
9.0022818
8.9223922
8.8452194
8.7705891
8.6983402
8.6283242
8.5604036
8.4944507
8.4303462
8.3679784
8.3072433
8.2480433
8.1902864
8.1338861
8.0787604
8.0248316
7.9720262
7.9202746
7.8695098
7.8196685
7.7706893
7.7225137
7.6750857
7.6283512
7.5822578
7.5367549
7.4917934
7.4473257
7.4033056
7.3596876
7.3164276
7.2734821
7.2308086
7.1883651
7.1461105
7.1040039
7.0620048
7.0200732
6.9781693
6.9362536
6.8942864
6.8522283
6.8100396
6.7676807
6.7251116
6.6822921
6.6391826
6.5957438
6.5519399
6.5077646
6.4640272
6.4220507
6.3822479
6.3444667
6.3085479
6.2743466
6.2417398
6.2106225
6.1809018
6.1524932
6.1253182
6.0993036
6.0743799
6.0504817
6.0275463
6.0055164
5.9843272
5.9639458
5.9442296
5.9253845
5.906453
5.8904147
5.8636237
0.0046177029
0.0044627582
0.0044118888
0.0043972596
0.0043911584
0.0043875472
0.0043851883
0.004383658
0.0043827193
0.004382223
0.0043820741
0.0043822125
0.0043826006
0.0043832161
0.0043840487
0.0043850976
0.00438638
0.0043879193
0.0043898209
0.0043922035
0.004394872
0.0044069176
0.0043499855
0.005554265
35.10289
31.14831
25.603042
22.358445
20.232267
18.639278
17.375383
16.353553
15.512058
14.805822
14.203299
13.682061
13.22564
12.822014
12.461921
12.138018
11.844693
11.577459
11.332664
11.107326
10.898966
10.705541
10.525311
10.356805
10.19879
10.050189
9.9100727
9.7776433
9.6521981
9.5331176
9.4198568
9.3119345
9.2089219
9.1104347
9.0161275
8.925691
8.8388458
8.7553381
8.6749367
8.5974312
8.5226296
8.4503559
8.3804474
8.3127543
8.2471382
8.183471
8.1216338
8.0615154
8.0030117
7.9460257
7.8904664
7.8362483
7.7832904
7.7315163
7.6808537
7.631234
7.5825921
7.5348657
7.4879957
7.4419248
7.3965984
7.3519642
7.3079718
7.2645721
7.2217181
7.1793637
7.1374646
7.0959775
7.0548601
7.0140709
6.9735693
6.9333156
6.8932706
6.8533955
6.8136523
6.7740029
6.7344098
6.6948358
6.6552436
6.6155961
6.5758562
6.5359867
6.4959502
6.455709
6.4152254
6.3744619
6.3333815
6.2919506
6.2501624
6.2087872
6.1690797
6.1314305
6.0956954
6.0617233
6.0293769
5.9985401
5.9691133
5.9410085
5.9141457
5.8884507
5.8638537
5.8402891
5.8176951
5.7960119
5.7751855
5.7551544
5.7358876
5.7172499
5.6994364
5.6815398
5.6663796
5.6410593
0.0045479726
0.0043895211
0.0043366282
0.0043211694
0.0043146688
0.0043108076
0.0043082713
0.0043066085
0.0043055681
0.004304992
0.0043047797
0.0043048673
0.0043052147
0.0043057982
0.0043066066
0.0043076389
0.0043089129
0.0043104527
0.0043123667
0.0043147802
0.0043174631
0.0043298893
0.0042703533
0.0054671773
33.44731
29.529084
24.096772
21.003177
19.017589
17.540168
16.369381
15.422566
14.642542
13.987664
13.428759
12.94509
12.521417
12.146617
11.812135
11.511175
11.238542
10.990085
10.762422
10.552795
10.35891
10.178874
10.011077
9.8541579
9.7069715
9.568523
9.4379503
9.3145131
9.1975605
9.0865181
8.9808802
8.8802003
8.7840809
8.692165
8.6041321
8.5196947
8.4385938
8.3605935
8.2854789
8.2130545
8.143142
8.0755777
8.0102106
7.9469011
7.8855206
7.8259501
7.768079
7.7118038
7.6570277
7.6036605
7.5516174
7.5008189
7.4511898
7.402659
7.355159
7.3086261
7.2629997
7.2182219
7.1742374
7.1309931
7.0884382
7.0465239
7.0052032
6.9644305
6.9241619
6.8843545
6.8449671
6.8059591
6.7672912
6.7289248
6.6908218
6.6529453
6.6152585
6.5777255
6.5403103
6.5029776
6.4656923
6.4284194
6.3911241
6.3537715
6.3163269
6.2787554
6.2410216
6.2030905
6.1649262
6.1264935
6.0877576
6.0486869
6.0092743
5.9702503
5.932801
5.8972947
5.8635949
5.8315587
5.8010568
5.7719792
5.7442321
5.7177325
5.6924046
5.6681782
5.6449876
5.6227708
5.6014692
5.5810267
5.5613919
5.5425072
5.524343
5.5067717
5.4899778
5.4731039
5.4588102
5.4349407
0.004463691
0.0043009208
0.004245503
0.0042290007
0.0042219954
0.0042178182
0.0042150572
0.0042132267
0.0042120574
0.00421138
0.004211087
0.0042111096
0.0042114047
0.0042119466
0.0042127231
0.0042137326
0.0042149935
0.0042165309
0.0042184558
0.0042209019
0.0042235933
0.0042364597
0.0041738591
0.0053603595
31.310853
27.92712
22.659694
19.709295
17.852899
16.482076
15.39757
14.52046
13.797653
13.190644
12.672447
12.223883
11.830848
11.483048
11.172578
10.893153
10.639959
10.409157
10.197617
10.002787
9.8225435
9.6551358
9.499074
9.3530965
9.2161438
9.0872944
8.9657498
8.8508238
8.7419137
8.638487
8.5400748
8.4462632
8.3566836
8.2710051
8.1889301
8.1101921
8.0345507
7.961787
7.8917015
7.8241128
7.7588553
7.6957771
7.6347379
7.5756082
7.5182684
7.4626082
7.4085247
7.3559218
7.3047096
7.2548043
7.2061273
7.1586045
7.1121662
7.0667463
7.022282
6.9787143
6.9359869
6.8940458
6.8528399
6.8123196
6.7724378
6.7331491
6.6944099
6.6561778
6.6184119
6.5810725
6.5441209
6.5075197
6.4712322
6.4352223
6.3994548
6.363895
6.3285089
6.2932628
6.2581233
6.2230573
6.188032
6.1530148
6.1179731
6.0828743
6.0476857
6.0123746
5.9769081
5.941253
5.9053757
5.8692431
5.8328224
5.7960838
5.7590203
5.7223221
5.6871068
5.6537202
5.6220334
5.591912
5.5632341
5.5358962
5.5098099
5.4848969
5.4610857
5.4383104
5.4165088
5.3956226
5.3755968
5.3563783
5.3379191
5.3201647
5.3030874
5.2865668
5.2707772
5.2549103
5.241469
5.2190261
0.0043644678
0.0041965089
0.0041380085
0.0041202183
0.0041125864
0.0041080166
0.0041049766
0.0041029373
0.0041016073
0.0041008035
0.0041004094
0.0041003504
0.0041005795
0.0041010683
0.0041018032
0.0041027821
0.0041040235
0.0041055537
0.004107486
0.0041099641
0.0041126541
0.0041260154
0.0040599086
0.0052320359
28.859238
26.35211
21.287962
18.471964
16.733708
15.460903
14.456136
13.643622
12.973918
12.411385
11.931049
11.515171
11.150688
10.828071
10.540019
10.280714
10.045696
9.8314119
9.6349666
9.4539984
9.2865422
9.130978
8.9859273
8.8502215
8.7228802
8.6030503
8.4899917
8.3830692
8.2817247
8.1854645
8.0938543
8.0065104
7.9230914
7.8432903
7.7668314
7.6934675
7.6229757
7.5551531
7.4898145
7.4267917
7.3659311
7.3070918
7.2501437
7.1949665
7.1414495
7.08949
7.0389928
6.9898687
6.9420344
6.8954118
6.8499283
6.8055151
6.7621074
6.719644
6.6780667
6.6373206
6.5973536
6.5581155
6.519559
6.481638
6.4443088
6.4075294
6.3712592
6.3354589
6.3000905
6.265117
6.2305028
6.196213
6.1622133
6.1284704
6.0949514
6.0616242
6.028457
5.9954184
5.9624773
5.9296029
5.8967646
5.863932
5.8310745
5.7981617
5.765163
5.7320479
5.6987853
5.6653442
5.6316932
5.5978009
5.5636366
5.5291723
5.4944007
5.4599726
5.4269378
5.39562
5.3658979
5.337645
5.310747
5.2851064
5.2606402
5.2372745
5.2149423
5.1935813
5.1731333
5.1535434
5.13476
5.1167333
5.0994181
5.0827634
5.0667433
5.0512443
5.0364308
5.0215425
5.0089287
4.9878703
0.0042500932
0.0040760215
0.004013818
0.0039944593
0.0039860595
0.0039810082
0.0039776255
0.0039753298
0.003973802
0.0039728423
0.0039723232
0.0039721629
0.0039723094
0.0039727312
0.0039734128
0.0039743509
0.0039755644
0.0039770802
0.0039790136
0.0039815202
0.0039841938
0.0039980958
0.0039280948
0.0050805428
26.213542
24.809601
19.979517
17.289165
15.658664
14.47589
13.544788
12.792122
12.171692
11.65047
11.205333
10.819867
10.481972
10.182823
9.9156766
9.6751465
9.4570997
9.2582471
9.0759109
8.9079055
8.7524126
8.6079335
8.4731928
8.3471084
8.2287729
8.1173969
8.0122948
7.9128785
7.8186314
7.7290962
7.6438704
7.5625989
7.4849654
7.4106853
7.3395031
7.2711898
7.2055389
7.1423624
7.0814886
7.0227614
6.9660387
6.9111897
6.858094
6.80664
6.756725
6.708254
6.6611386
6.6152962
6.5706495
6.5271264
6.4846592
6.4431845
6.4026422
6.3629754
6.3241304
6.2860562
6.2487046
6.2120291
6.1759858
6.140532
6.1056273
6.0712327
6.0373106
6.0038246
5.9707395
5.9380209
5.9056358
5.8735517
5.8417371
5.8101608
5.7787924
5.747602
5.71656
5.6856372
5.6548048
5.624034
5.5932963
5.5625632
5.5318063
5.5009973
5.4701074
5.4391081
5.4079704
5.3766651
5.3451627
5.3134338
5.2814495
5.2491834
5.2166281
5.1843958
5.1534702
5.1241532
5.0963309
5.0698847
5.0447074
5.0207076
4.997807
4.9759364
4.9550327
4.9350376
4.9158964
4.8975576
4.8799729
4.8630958
4.8468838
4.8312892
4.8162879
4.801773
4.7878995
4.7739533
4.7621356
4.7424088
0.0041206119
0.0039394626
0.0038728691
0.00385162
0.0038422881
0.0038366517
0.0038328525
0.0038302446
0.0038284756
0.0038273254
0.0038266531
0.0038263681
0.0038264124
0.0038267504
0.0038273641
0.0038282488
0.0038294231
0.0038309145
0.0038328393
0.003835367
0.0038380035
0.0038524776
0.0037783011
0.0049044643
23.465114
23.30122
18.732206
16.159453
14.627048
13.526914
12.663882
11.966698
11.39202
10.909195
10.496804
10.139652
9.8265282
9.5492585
9.3016136
9.0786084
8.8764105
8.6919762
8.5228287
8.3669454
8.2226439
8.0885387
7.9634494
7.8463747
7.736475
7.6330198
7.5353744
7.4429945
7.3554021
7.2721739
7.1929371
7.1173629
7.0451586
6.9760608
6.9098326
6.8462621
6.785158
6.7263463
6.6696678
6.6149782
6.5621456
6.5110492
6.4615772
6.4136263
6.3671015
6.3219148
6.2779843
6.2352337
6.1935913
6.1529902
6.1133681
6.074666
6.0368285
5.9998029
5.9635393
5.9279908
5.8931126
5.8588619
5.8251978
5.792081
5.759474
5.7273408
5.6956466
5.6643576
5.6334412
5.6028658
5.5726005
5.5426155
5.5128813
5.4833692
5.4540509
5.4248986
5.395885
5.3669828
5.3381653
5.3094056
5.2806773
5.2519538
5.2232086
5.1944152
5.1655469
5.1365769
5.107478
5.0782229
5.048784
5.0191337
4.9892447
4.9590923
4.9286688
4.8985488
4.8696522
4.8422596
4.8162643
4.7915554
4.7680324
4.7456096
4.7242138
4.7037797
4.6842483
4.6655648
4.6476782
4.6305403
4.6141058
4.5983314
4.5831774
4.5685991
4.5545743
4.5410023
4.5280294
4.5149854
4.5039295
4.4854766
0.0039763914
0.0037871864
0.003715449
0.0036919424
0.0036814881
0.0036751466
0.0036708452
0.0036678601
0.0036657994
0.0036644182
0.0036635596
0.0036631222
0.0036630408
0.0036632748
0.0036638028
0.0036646182
0.0036657389
0.0036671923
0.0036690946
0.0036716313
0.0036742034
0.0036892595
0.0036108093
0.0047027978
20.687338
21.825413
17.543824
15.081717
13.638448
12.614088
11.813953
11.168232
10.636068
10.188963
9.8070585
9.4762898
9.1862639
8.9294073
8.6999684
8.4933329
8.3059464
8.1349928
7.9781814
7.8336409
7.6998152
7.5754236
7.4593744
7.350741
7.2487469
7.1527167
7.0620629
6.9762819
6.8949319
6.8176211
6.7440045
6.673778
6.6066708
6.542439
6.4808635
6.4217483
6.3649164
6.3102066
6.2574718
6.2065782
6.1574042
6.1098376
6.0637752
6.0191214
5.9757882
5.9336944
5.8927642
5.8529269
5.8141163
5.7762706
5.7393321
5.7032464
5.6679621
5.6334307
5.599606
5.5664446
5.5339051
5.5019481
5.4705357
5.4396316
5.4092012
5.3792111
5.3496293
5.3204245
5.2915665
5.2630261
5.2347747
5.2067848
5.1790291
5.151481
5.1241141
5.0969029
5.0698219
5.0428459
5.01595
4.9891092
4.962299
4.9354946
4.9086713
4.8818044
4.854869
4.82784
4.8006921
4.7733996
4.7459366
4.7182773
4.690396
4.6622693
4.6338896
4.6057952
4.5788438
4.553296
4.5290517
4.5060076
4.4840696
4.4631576
4.4432028
4.4241443
4.4059266
4.3884986
4.3718125
4.3558234
4.340489
4.325769
4.3116265
4.2980196
4.2849279
4.2722567
4.2601438
4.2479613
4.2376326
4.2203952
0.00381818
0.0036199725
0.003542277
0.0035160972
0.0035043015
0.0034971166
0.003492214
0.0034887769
0.0034863657
0.0034847063
0.0034836227
0.0034830006
0.0034827658
0.0034828716
0.0034832925
0.0034840191
0.0034850677
0.0034864655
0.0034883266
0.0034908543
0.0034933278
0.0035089464
0.0034264134
0.00447514
17.943087
20.378252
16.412092
14.055166
12.692739
11.737741
10.995691
10.397708
9.9050641
9.4912056
9.1377034
8.831533
8.5630588
8.3252608
8.1128294
7.9214945
7.7479592
7.5896179
7.444353
7.3104335
7.1864204
7.0711305
6.9635545
6.8628352
6.7682552
6.6791901
6.5950964
6.5155086
6.4400186
6.3682638
6.2999252
6.2347219
6.1724036
6.1127447
6.0555425
6.0006159
5.9478014
5.8969498
5.8479251
5.8006037
5.7548731
5.7106299
5.6677785
5.6262304
5.5859046
5.5467258
5.5086243
5.4715345
5.4353954
5.40015
5.3657448
5.3321299
5.2992576
5.2670832
5.2355641
5.2046602
5.1743334
5.1445471
5.1152667
5.0864585
5.0580904
5.0301319
5.0025533
4.9753257
4.9484213
4.9218131
4.8954747
4.8693806
4.8435056
4.8178251
4.7923147
4.7669508
4.7417098
4.7165683
4.6915031
4.6664912
4.6415096
4.6165355
4.5915459
4.5665175
4.5414273
4.5162517
4.4909673
4.4655499
4.4399752
4.4142192
4.3882575
4.3620683
4.3356438
4.3094871
4.2843965
4.260613
4.2380431
4.2165906
4.1961677
4.1766997
4.158122
4.1403777
4.1234149
4.1071859
4.0916461
4.0767537
4.0624695
4.0487558
4.0355784
4.0228982
4.0106966
3.9988845
3.9875917
3.9762307
3.9665951
3.9505157
0.0036471457
0.0034390889
0.0033545748
0.0033252574
0.0033118709
0.003303685
0.0032980683
0.0032940935
0.0032912646
0.0032892728
0.0032879195
0.0032870749
0.0032866543
0.0032866034
0.0032868915
0.0032875056
0.0032884595
0.0032897795
0.003291575
0.0032940695
0.0032964035
0.0033125251
0.0032265316
0.0042218733
15.285635
18.955161
15.334615
13.079281
11.790062
10.898403
10.209928
9.6562069
9.2002971
8.8173858
8.490349
8.2071187
7.9587593
7.7387612
7.5422234
7.3651951
7.2046182
7.0580822
6.9236295
6.7996599
6.6848427
6.5780854
6.4784556
6.3851605
6.2975376
6.2150102
6.1370756
6.063304
5.9933186
5.9267843
5.8634061
5.8029249
5.7451096
5.6897514
5.6366632
5.5856779
5.5366444
5.4894251
5.443894
5.3999373
5.357451
5.3163397
5.2765151
5.2378955
5.2004062
5.1639777
5.1285457
5.0940498
5.0604335
5.0276443
4.995633
4.9643535
4.9337619
4.9038169
4.8744792
4.845712
4.8174801
4.78975
4.7624894
4.7356675
4.7092548
4.683223
4.6575448
4.6321937
4.6071439
4.5823704
4.5578492
4.5335565
4.5094691
4.4855643
4.4618196
4.4382131
4.4147229
4.3913275
4.3680054
4.3447352
4.3214957
4.2982654
4.2750232
4.2517474
4.2284164
4.2050084
4.1815014
4.1578729
4.1341001
4.1101605
4.0860313
4.0616919
4.0371345
4.0128281
3.9895142
3.9674151
3.9464434
3.9265098
3.9075328
3.8894423
3.8721783
3.8556874
3.8399214
3.8248356
3.8103888
3.796542
3.7832587
3.7705041
3.7582465
3.7464494
3.7350959
3.7241022
3.7135907
3.7030123
3.6940369
3.6790601
0.0034648923
0.0032463318
0.0031541201
0.0031211556
0.0031058988
0.0030965346
0.0030900771
0.0030854681
0.0030821454
0.0030797597
0.0030780857
0.0030769755
0.0030763317
0.0030760911
0.0030762163
0.0030766898
0.0030775217
0.0030787364
0.0030804363
0.0030828661
0.003085014
0.0031015293
0.0030133151
0.0039443177
12.764724
17.548438
14.308709
12.153691
10.93074
10.096747
9.4575946
8.9448702
8.5230853
8.1689705
7.8665882
7.6047479
7.3751604
7.1717858
6.9900999
6.826449
6.6779959
6.5425104
6.4181839
6.3035367
6.1973392
6.0985831
6.0064069
5.9200785
5.8389861
5.7625973
5.6904477
5.6221406
5.5573284
5.4957016
5.4369878
5.3809482
5.3273693
5.2760585
5.226843
5.1795688
5.1340966
5.0902992
5.0480606
5.0072755
4.9678484
4.9296911
4.8927222
4.8568664
4.8220548
4.7882235
4.7553132
4.7232681
4.6920363
4.6615693
4.6318221
4.6027519
4.5743186
4.5464839
4.5192119
4.4924686
4.4662216
4.44044
4.4150943
4.390156
4.365598
4.3413943
4.3175197
4.2939498
4.2706609
4.2476301
4.2248351
4.202254
4.1798656
4.1576488
4.1355828
4.1136475
4.0918226
4.0700883
4.0484247
4.0268119
4.0052303
3.9836601
3.9620814
3.9404744
3.9188188
3.8970944
3.8752805
3.8533562
3.8313004
3.8090918
3.7867091
3.7641329
3.7413554
3.7188131
3.6971928
3.676699
3.6572503
3.638764
3.6211643
3.6043861
3.5883733
3.5730762
3.5584498
3.5444527
3.5310466
3.5181952
3.505865
3.4940235
3.4826415
3.4716851
3.4611389
3.4509244
3.4411566
3.4313233
3.4229765
3.4090491
0.0032734422
0.0030440365
0.0029432724
0.0029061159
0.0028886812
0.002877944
0.0028705062
0.0028651565
0.0028612557
0.0028584077
0.0028563561
0.0028549319
0.0028540228
0.0028535548
0.0028534827
0.002853783
0.0028544609
0.0028555379
0.0028571061
0.0028594325
0.002861344
0.0028780851
0.0027894416
0.0036451316
10.423951
16.150244
13.33117
11.278025
10.11517
9.3335053
8.7396491
8.2648384
7.874721
7.5473806
7.2679506
7.0260435
6.8139656
6.6261088
6.4582957
6.3071486
6.1700346
6.0448904
5.930045
5.8241308
5.7260117
5.6347573
5.5495724
5.469781
5.3948185
5.3241939
5.2574783
5.1943058
5.1343562
5.0773436
5.023017
4.971156
4.9215642
4.8740637
4.8284952
4.7847168
4.7426003
4.7020284
4.6628939
4.6251002
4.5885592
4.5531897
4.5189167
4.4856708
4.4533885
4.4220113
4.3914844
4.3617565
4.3327798
4.3045099
4.2769051
4.2499264
4.2235366
4.1977007
4.1723856
4.1475601
4.1231946
4.0992605
4.0757307
4.0525791
4.0297807
4.0073118
3.9851491
3.9632702
3.9416534
3.9202775
3.899122
3.878167
3.8573927
3.8367798
3.8163091
3.7959621
3.7757202
3.755565
3.735478
3.7154411
3.6954359
3.6754442
3.6554477
3.6354277
3.6153656
3.5952425
3.5750392
3.5547363
3.5343139
3.5137523
3.4930315
3.4721332
3.4510498
3.4301864
3.4101776
3.3912111
3.3732113
3.3561017
3.3398121
3.3242819
3.309459
3.2952971
3.2817545
3.2687927
3.2563761
3.2444714
3.2330475
3.2220744
3.2115251
3.2013684
3.1915901
3.1821168
3.1730564
3.1639321
3.1561835
3.1432545
0.0030751852
0.0028350447
0.0027249611
0.00268305
0.0026631087
0.0026507898
0.0026422228
0.0026360181
0.0026314485
0.002628064
0.0026255728
0.0026237816
0.0026225608
0.0026218237
0.0026215158
0.0026216062
0.0026220937
0.0026229957
0.0026243909
0.0026265685
0.0026281925
0.0026449294
0.0025578336
0.0033286754
8.292861
14.75776
12.398012
10.451718
9.343705
8.6093716
8.0569934
7.6171757
7.2564032
6.9539278
6.6958439
6.4724946
6.2767346
6.1033519
5.9484871
5.8090184
5.6825024
5.5670294
5.4610559
5.3633179
5.272766
5.1885417
5.1099116
5.0362516
4.9670411
4.9018274
4.8402148
4.781866
4.7264861
4.6738115
4.6236106
4.5756808
4.5298412
4.4859277
4.4437937
4.4033085
4.3643543
4.3268229
4.2906158
4.2556438
4.2218262
4.1890881
4.1573606
4.1265799
4.0966875
4.0676297
4.0393561
4.0118197
3.9849764
3.9587854
3.9332085
3.9082099
3.8837555
3.8598131
3.8363522
3.8133444
3.7907623
3.7685799
3.7467723
3.7253153
3.7041863
3.6833633
3.6628251
3.6425512
3.6225214
3.6027165
3.5831176
3.5637064
3.5444647
3.5253748
3.5064191
3.4875804
3.4688418
3.4501861
3.4315966
3.4130562
3.3945482
3.3760557
3.3575617
3.339049
3.3205003
3.301898
3.2832244
3.2644614
3.2455904
3.2265931
3.2074509
3.1881465
3.1686725
3.1494038
3.1309257
3.1134098
3.0967859
3.0809836
3.0659378
3.0515926
3.0378995
3.0248154
3.0123018
3.000323
2.9888461
2.9778404
2.9672773
2.957129
2.9473708
2.9379738
2.9289252
2.9201564
2.9117684
2.9033183
2.8961387
2.8841588
0.0028727881
0.0026226244
0.0025026256
0.0024554076
0.0024326211
0.0024185058
0.0024086559
0.0024014783
0.0023961454
0.002392147
0.0023891512
0.002386937
0.002385355
0.0023843043
0.002383719
0.0023835597
0.002383817
0.0023845031
0.0023856799
0.0023876574
0.0023889457
0.002405388
0.0023219153
0.0030006602
6.3944686
13.369081
11.504342
9.6738509
8.616538
7.9249089
7.410392
7.0027965
6.6691692
6.3897519
6.1514942
5.9454008
5.7648301
5.6049326
5.4621399
5.3335671
5.2169462
5.1105089
5.0128294
4.9227395
4.8392698
4.7616285
4.6891391
4.6212258
4.5574089
4.4972712
4.4404478
4.3866279
4.3355401
4.2869415
4.2406189
4.1963859
4.1540759
4.1135381
4.0746373
4.0372536
4.0012785
3.9666127
3.9331653
3.9008545
3.8696062
3.8393516
3.8100273
3.7815745
3.7539399
3.7270738
3.7009303
3.675466
3.6506405
3.6264164
3.6027587
3.5796345
3.5570125
3.5348633
3.5131589
3.4918731
3.4709812
3.450459
3.4302838
3.4104336
3.3908874
3.3716253
3.3526278
3.333876
3.3153516
3.2970368
3.2789145
3.2609677
3.2431799
3.2255348
3.2080161
3.1906082
3.1732955
3.1560622
3.1388928
3.1217718
3.1046837
3.0876128
3.0705436
3.05346
3.0363462
3.0191858
3.0019624
2.9846592
2.967259
2.9497447
2.932099
2.9143055
2.8963574
2.8786006
2.8615733
2.8454322
2.8301124
2.815549
2.8016821
2.7884599
2.7758374
2.7637749
2.7522366
2.7411896
2.7306037
2.7204505
2.7107037
2.7013378
2.6923302
2.683654
2.6752979
2.6671979
2.6594483
2.6516386
2.6449997
2.6339216
0.0026690739
0.0024103285
0.0022800986
0.0022270719
0.0022011097
0.0021849877
0.0021737055
0.0021654394
0.0021592503
0.002154561
0.0021509953
0.0021483016
0.0021463085
0.0021448984
0.0021439929
0.0021435424
0.002143528
0.0021439552
0.0021448661
0.0021465888
0.0021475011
0.0021633074
0.0020855046
0.0026679537
4.7455087
11.983215
10.644368
8.9429987
7.9335935
7.2804681
6.8004024
6.4224023
6.1138361
5.8557657
5.635894
5.4458223
5.2793699
5.132019
5.0004658
4.8820451
4.7746508
4.6766445
4.586709
4.5037645
4.4269154
4.3554311
4.2886881
4.2261554
4.1673908
4.1120102
4.059677
4.0101053
3.9630453
3.9182735
3.8755934
3.8348339
3.7958418
3.7584782
3.722619
3.6881541
3.6549837
3.6230167
3.5921694
3.5623668
3.5335409
3.5056286
3.4785717
3.4523161
3.426813
3.402017
3.3778857
3.3543796
3.3314614
3.3090969
3.2872543
3.2659032
3.2450152
3.224563
3.2045211
3.1848658
3.1655742
3.1466243
3.1279953
3.1096669
3.0916202
3.0738369
3.056299
3.0389895
3.0218914
3.0049885
2.9882651
2.9717058
2.9552954
2.9390189
2.9228615
2.9068088
2.8908465
2.8749602
2.8591356
2.8433585
2.8276145
2.8118893
2.7961686
2.7804376
2.7646816
2.7488856
2.7330342
2.7171121
2.7011033
2.6849919
2.6687617
2.6523976
2.6358928
2.619566
2.6039109
2.5890701
2.5749836
2.5615919
2.5488398
2.5366797
2.5250698
2.5139736
2.503358
2.4931927
2.48345
2.4741037
2.4651297
2.4565048
2.448208
2.4402148
2.4325149
2.4250489
2.4179047
2.4107026
2.404577
2.3943544
0.0024668795
0.0022017943
0.0020614285
0.0020021951
0.0019727598
0.0019544411
0.0019415922
0.0019321333
0.001925003
0.0019195518
0.0019153556
0.0019121292
0.0019096771
0.0019078638
0.0019065966
0.0019058146
0.0019054876
0.0019056134
0.0019062122
0.0019076245
0.0019081328
0.0019229296
0.0018526603
0.002338177
3.3570701
10.59934
9.8120384
8.2570799
7.2944326
6.6761207
6.2273186
5.8764318
5.5909552
5.3526123
5.1497628
4.9745421
4.8211912
4.6854948
4.5643896
4.4554126
4.3566079
4.2664564
4.1837402
4.1074613
4.0367921
3.9710583
3.9096852
3.8521832
3.7981448
3.7472162
3.6990876
3.6534957
3.6102109
3.5690273
3.5297642
3.4922646
3.4563876
3.4220057
3.3890046
3.3572835
3.3267508
3.2973228
3.2689226
3.2414815
3.2149372
3.1892319
3.1643119
3.140128
3.1166352
3.093792
3.0715598
3.0499021
3.028785
3.008177
2.988049
2.9683735
2.9491241
2.9302761
2.9118062
2.8936926
2.8759145
2.8584517
2.8412852
2.8243966
2.8077685
2.7913841
2.7752273
2.7592822
2.7435334
2.7279662
2.7125662
2.6973193
2.6822116
2.6672294
2.6523593
2.6375879
2.6229023
2.6082892
2.5937356
2.5792283
2.5647542
2.5503004
2.5358534
2.5213997
2.5069258
2.4924178
2.4778618
2.4632433
2.4485477
2.4337602
2.4188659
2.4038506
2.3887078
2.3737303
2.3593698
2.3457558
2.3328329
2.3205467
2.3088465
2.2976885
2.2870344
2.2768502
2.2671056
2.2577729
2.2488264
2.2402424
2.2319987
2.224074
2.2164494
2.2091021
2.202023
2.1951569
2.1885857
2.181959
2.1763199
2.1669078
0.0022689053
0.0020005055
0.00185064
0.0017849749
0.0017518346
0.001731169
0.0017166486
0.0017059151
0.0016977757
0.0016915046
0.0016866273
0.0016828234
0.0016798716
0.0016776169
0.0016759514
0.0016748017
0.0016741254
0.0016739111
0.0016741561
0.0016752059
0.001675299
0.001688709
0.0016274921
0.0020190661
2.2372775
9.2166185
9.0010362
7.6132171
6.6981663
6.1116064
5.6911316
5.3650266
5.1007813
4.8806371
4.6935204
4.5320425
4.3908284
4.2659391
4.1545288
4.054321
3.9634986
3.8806517
3.8046539
3.7345821
3.6696715
3.6092993
3.5529355
3.5001292
3.4505045
3.4037359
3.3595381
3.3176686
3.2779165
3.2400922
3.2040298
3.1695849
3.1366284
3.1050428
3.0747236
3.0455779
3.0175222
2.9904794
2.964379
2.9391581
2.9147596
2.8911305
2.8682219
2.8459883
2.8243887
2.8033853
2.7829426
2.7630272
2.7436081
2.7246566
2.706146
2.6880513
2.6703482
2.6530143
2.6360283
2.6193701
2.6030209
2.5869624
2.5711771
2.5556481
2.5403596
2.5252964
2.5104437
2.4957871
2.4813125
2.4670065
2.4528559
2.438848