/*--------------------------------*- C++ -*----------------------------------*\
  =========                 |
  \\      /  F ield         | OpenFOAM: The Open Source CFD Toolbox
   \\    /   O peration     | Website:  https://openfoam.org
    \\  /    A nd           | Version:  12
     \\/     M anipulation  |
\*---------------------------------------------------------------------------*/
FoamFile
{
    format      ascii;
    class       volScalarField;
    location    "400";
    object      nut;
}
// * * * * * * * * * * * * * * * * * * * * * * * * * * * * * * * * * * * * * //

dimensions      [0 2 -1 0 0 0 0];

internalField   nonuniform List<scalar> 
7480
(
2.2834343e-06
3.6609584e-06
4.9291726e-06
5.9854199e-06
6.8047839e-06
7.4009829e-06
7.8055113e-06
8.056034e-06
8.1896402e-06
8.2387139e-06
8.2292535e-06
8.1808793e-06
8.1077454e-06
8.0197162e-06
7.923491e-06
7.8235747e-06
7.7231125e-06
7.6244882e-06
7.5295062e-06
7.4396767e-06
7.3563721e-06
7.2808856e-06
7.214385e-06
7.1578159e-06
7.111791e-06
7.0763015e-06
7.050205e-06
7.0316403e-06
7.0179618e-06
7.0062817e-06
6.9942245e-06
6.9804088e-06
6.9644754e-06
6.9468529e-06
6.9282227e-06
6.9091234e-06
6.8897772e-06
6.8701465e-06
6.8501045e-06
6.8295989e-06
6.8087236e-06
6.7876721e-06
6.7666454e-06
6.745773e-06
6.7251008e-06
6.7046315e-06
6.6843672e-06
6.6643201e-06
6.6445038e-06
6.6249255e-06
6.6055851e-06
6.5864766e-06
6.5675937e-06
6.5489337e-06
6.5304943e-06
6.5122691e-06
6.4942506e-06
6.4764345e-06
6.4588202e-06
6.4414004e-06
6.424168e-06
6.4071171e-06
6.3902425e-06
6.3735396e-06
6.3570054e-06
6.3406363e-06
6.3244287e-06
6.3083792e-06
6.2924843e-06
6.2767401e-06
6.2611434e-06
6.2456904e-06
6.2303781e-06
6.215203e-06
6.200162e-06
6.185252e-06
6.1704699e-06
6.1558128e-06
6.1412781e-06
6.1268628e-06
6.1125643e-06
6.0983798e-06
6.0843069e-06
6.0703428e-06
6.0564851e-06
6.0427312e-06
6.0290787e-06
6.0155249e-06
6.002067e-06
5.9887018e-06
5.9754269e-06
5.9622353e-06
5.9491295e-06
5.9360815e-06
5.9231346e-06
5.9101295e-06
5.8973956e-06
5.8839381e-06
5.8725254e-06
5.8514802e-06
8.7304357e-06
2.5692679e-06
1.2166094e-06
9.1985895e-07
9.3741663e-07
1.0606538e-06
1.225451e-06
1.4105504e-06
1.6035702e-06
1.7972155e-06
1.9908766e-06
2.1863257e-06
2.3850219e-06
2.5924631e-06
2.8195901e-06
3.0825308e-06
3.4095786e-06
3.8227839e-06
4.2923453e-06
4.8160719e-06
5.3982814e-06
6.0419694e-06
6.7453359e-06
7.509098e-06
8.316951e-06
9.1394738e-06
9.9425144e-06
1.068998e-05
1.1348557e-05
1.1903197e-05
1.2359796e-05
1.27375e-05
1.3059686e-05
1.3345074e-05
1.3603576e-05
1.3836655e-05
1.4041836e-05
1.4217792e-05
1.4366999e-05
1.4495437e-05
1.4610066e-05
1.4716119e-05
1.4816377e-05
1.4910988e-05
1.4999478e-05
1.5081948e-05
1.5159165e-05
1.5231994e-05
1.5300936e-05
1.536611e-05
1.542751e-05
1.5485244e-05
1.5539532e-05
1.559057e-05
1.5638447e-05
1.5683231e-05
1.5725026e-05
1.5763966e-05
1.580006e-05
1.5833567e-05
1.5864526e-05
1.5892998e-05
1.5919081e-05
1.5942884e-05
1.5964508e-05
1.598404e-05
1.6001571e-05
1.601718e-05
1.603094e-05
1.6042931e-05
1.6053219e-05
1.6061876e-05
1.606897e-05
1.6074564e-05
1.6078721e-05
1.6081503e-05
1.6082969e-05
1.6083176e-05
1.6082177e-05
1.6080025e-05
1.607677e-05
1.6072461e-05
1.6067143e-05
1.6060862e-05
1.6053661e-05
1.6045581e-05
1.6036663e-05
1.6026945e-05
1.6016463e-05
1.6005254e-05
1.5993348e-05
1.598079e-05
1.5967582e-05
1.5953826e-05
1.593937e-05
1.5924703e-05
1.590882e-05
1.5893377e-05
1.587834e-05
1.5849011e-05
5.7047097e-05
2.9201315e-05
1.489753e-05
8.5300207e-06
5.4573786e-06
3.7896823e-06
2.7988311e-06
2.1721241e-06
1.7572655e-06
1.4731476e-06
1.2738021e-06
1.1316727e-06
1.0294834e-06
9.5619804e-07
9.0494999e-07
8.7146438e-07
8.5542503e-07
8.5201572e-07
8.9343961e-07
9.8957832e-07
1.1451725e-06
1.3663982e-06
1.6609762e-06
2.017809e-06
2.4644966e-06
3.040846e-06
3.823417e-06
4.787763e-06
5.8957952e-06
7.1056761e-06
8.3753954e-06
9.6520597e-06
1.0873598e-05
1.1990987e-05
1.2977528e-05
1.3832701e-05
1.4576538e-05
1.5239013e-05
1.5847509e-05
1.6418902e-05
1.6958135e-05
1.7462936e-05
1.7929729e-05
1.8359478e-05
1.8757278e-05
1.9129616e-05
1.9481521e-05
1.981546e-05
2.0132186e-05
2.0432268e-05
2.0716871e-05
2.0987511e-05
2.1245456e-05
2.1491499e-05
2.1726168e-05
2.195e-05
2.2163583e-05
2.2367462e-05
2.2562047e-05
2.274751e-05
2.2924342e-05
2.3092986e-05
2.3253806e-05
2.3407127e-05
2.3553249e-05
2.3692451e-05
2.3824996e-05
2.3951129e-05
2.4071081e-05
2.4185076e-05
2.4293325e-05
2.4396032e-05
2.4493393e-05
2.4585597e-05
2.4672829e-05
2.4755265e-05
2.4833078e-05
2.4906435e-05
2.4975495e-05
2.5040413e-05
2.510134e-05
2.5158419e-05
2.5211793e-05
2.5261597e-05
2.5307964e-05
2.5351022e-05
2.5390895e-05
2.5427702e-05
2.546156e-05
2.5492584e-05
2.5520878e-05
2.5546566e-05
2.5569706e-05
2.5590541e-05
2.5608837e-05
2.5625548e-05
2.5638762e-05
2.5653015e-05
2.5659896e-05
2.5672097e-05
8.2397714e-05
7.090333e-05
5.5540914e-05
4.1905409e-05
3.1757467e-05
2.4564263e-05
1.9451105e-05
1.5749627e-05
1.301314e-05
1.0949029e-05
9.3632868e-06
8.1240445e-06
7.1393474e-06
6.3441994e-06
5.6908077e-06
5.1438304e-06
4.6756905e-06
4.2644306e-06
3.8935638e-06
3.5545069e-06
3.2273645e-06
2.9324376e-06
2.6433941e-06
2.3695061e-06
2.1145593e-06
1.8915783e-06
1.71388e-06
1.6013215e-06
1.6382811e-06
1.8565787e-06
2.2366942e-06
2.7927151e-06
3.5668438e-06
4.6402004e-06
5.9494321e-06
7.3982621e-06
8.9278142e-06
1.0462035e-05
1.1924953e-05
1.3266551e-05
1.4469912e-05
1.554812e-05
1.6531467e-05
1.7450896e-05
1.8326195e-05
1.9163048e-05
1.9958614e-05
2.0709605e-05
2.1417161e-05
2.208649e-05
2.2723509e-05
2.3332113e-05
2.3913961e-05
2.446995e-05
2.5001421e-05
2.5510162e-05
2.5997799e-05
2.6465511e-05
2.6914202e-05
2.7344667e-05
2.775778e-05
2.815437e-05
2.8535161e-05
2.8900814e-05
2.9251949e-05
2.9589138e-05
2.991291e-05
3.0223753e-05
3.0522129e-05
3.0808474e-05
3.1083198e-05
3.1346692e-05
3.1599332e-05
3.1841475e-05
3.2073466e-05
3.2295639e-05
3.2508313e-05
3.2711801e-05
3.2906401e-05
3.3092403e-05
3.3270086e-05
3.3439724e-05
3.3601581e-05
3.3755913e-05
3.3902972e-05
3.4042998e-05
3.4176229e-05
3.4302894e-05
3.4423214e-05
3.453741e-05
3.4645687e-05
3.4748274e-05
3.4845311e-05
3.4937171e-05
3.5023616e-05
3.5105987e-05
3.5181534e-05
3.5258298e-05
3.5314245e-05
3.541539e-05
8.6632641e-05
8.4348692e-05
7.9468021e-05
7.2462584e-05
6.4556383e-05
5.6801513e-05
4.9764606e-05
4.3635163e-05
3.8402316e-05
3.3973001e-05
3.0232645e-05
2.7069953e-05
2.4386512e-05
2.2097127e-05
2.0131883e-05
1.8433244e-05
1.6953084e-05
1.5651157e-05
1.4493782e-05
1.3451475e-05
1.2499496e-05
1.1616632e-05
1.0782618e-05
9.9781888e-06
9.1831579e-06
8.3909323e-06
7.5665207e-06
6.7471901e-06
5.9079201e-06
5.0996482e-06
4.3489707e-06
3.6805906e-06
3.1357872e-06
2.7285879e-06
2.5235218e-06
2.6285422e-06
2.9743316e-06
3.5872343e-06
4.5147888e-06
5.7982337e-06
7.3116582e-06
8.9652422e-06
1.0671218e-05
1.233875e-05
1.3906886e-05
1.535218e-05
1.6684348e-05
1.79308e-05
1.9118244e-05
2.0260864e-05
2.1360082e-05
2.2412144e-05
2.3415712e-05
2.4374058e-05
2.5292459e-05
2.6174943e-05
2.702348e-05
2.7839222e-05
2.8623671e-05
2.9378637e-05
3.0105737e-05
3.080623e-05
3.1481213e-05
3.2131771e-05
3.2758944e-05
3.3363661e-05
3.3946759e-05
3.4509022e-05
3.5051186e-05
3.5573936e-05
3.6077913e-05
3.6563725e-05
3.7031949e-05
3.7483132e-05
3.7917799e-05
3.8336456e-05
3.8739587e-05
3.9127659e-05
3.9501123e-05
3.9860413e-05
4.0205953e-05
4.0538151e-05
4.0857408e-05
4.1164112e-05
4.1458641e-05
4.1741364e-05
4.2012639e-05
4.2272817e-05
4.2522239e-05
4.2761243e-05
4.2990146e-05
4.3209295e-05
4.3418929e-05
4.3619558e-05
4.381096e-05
4.3994869e-05
4.4167535e-05
4.434168e-05
4.4475451e-05
4.4716133e-05
8.7633246e-05
8.7136522e-05
8.5988403e-05
8.3876108e-05
8.0746566e-05
7.6793878e-05
7.2326874e-05
6.7646641e-05
6.2986326e-05
5.8501134e-05
5.4280619e-05
5.0368168e-05
4.677722e-05
4.3501356e-05
4.0523221e-05
3.7819992e-05
3.5366416e-05
3.3136694e-05
3.1105627e-05
2.9248398e-05
2.7542042e-05
2.5963688e-05
2.4492132e-05
2.3105961e-05
2.1785714e-05
2.05145e-05
1.9269503e-05
1.8031623e-05
1.6778008e-05
1.5496359e-05
1.4177973e-05
1.2804502e-05
1.1416426e-05
9.9937055e-06
8.5802306e-06
7.2565972e-06
6.0622026e-06
5.0487659e-06
4.267983e-06
3.7225925e-06
3.5710125e-06
3.7669148e-06
4.3070344e-06
5.2326276e-06
6.569711e-06
8.1634608e-06
9.9287963e-06
1.1759468e-05
1.3563869e-05
1.5284218e-05
1.6903476e-05
1.8434725e-05
1.9901241e-05
2.1319178e-05
2.2692232e-05
2.40172e-05
2.5292052e-05
2.6519001e-05
2.7702295e-05
2.8845157e-05
2.9949191e-05
3.1015571e-05
3.2045851e-05
3.3041743e-05
3.400471e-05
3.4935955e-05
3.5836613e-05
3.6707786e-05
3.7550494e-05
3.8365666e-05
3.9154175e-05
3.9916846e-05
4.0654459e-05
4.1367749e-05
4.205742e-05
4.2724143e-05
4.3368563e-05
4.3991299e-05
4.4592945e-05
4.5174079e-05
4.5735259e-05
4.6277027e-05
4.6799912e-05
4.7304431e-05
4.7791086e-05
4.8260367e-05
4.8712754e-05
4.9148717e-05
4.9568716e-05
4.9973204e-05
5.0362613e-05
5.0737406e-05
5.1097929e-05
5.1444823e-05
5.1777893e-05
5.2099292e-05
5.2404047e-05
5.2710819e-05
5.2951971e-05
5.3383448e-05
8.8391696e-05
8.8142699e-05
8.7772144e-05
8.7152082e-05
8.6152733e-05
8.4691697e-05
8.2755728e-05
8.0393794e-05
7.7694102e-05
7.4758861e-05
7.1684981e-05
6.8555402e-05
6.5436234e-05
6.2376927e-05
5.9412347e-05
5.6565477e-05
5.3849985e-05
5.1272414e-05
4.8834018e-05
4.6531889e-05
4.4360266e-05
4.2310952e-05
4.0374076e-05
3.8538264e-05
3.6790998e-05
3.511928e-05
3.350866e-05
3.1942676e-05
3.0402987e-05
2.8870401e-05
2.7328074e-05
2.57568e-05
2.4149201e-05
2.2487113e-05
2.0758147e-05
1.8941923e-05
1.7092204e-05
1.5178845e-05
1.32687e-05
1.1386349e-05
9.6226688e-06
8.0330331e-06
6.6824955e-06
5.6408754e-06
4.9143181e-06
4.7049626e-06
4.898991e-06
5.5276448e-06
6.6505873e-06
8.1473417e-06
9.903305e-06
1.1811532e-05
1.3763448e-05
1.5679244e-05
1.7521905e-05
1.9290754e-05
2.100142e-05
2.2666182e-05
2.4286848e-05
2.5859688e-05
2.7382742e-05
2.8857825e-05
3.028796e-05
3.167512e-05
3.3020367e-05
3.4324843e-05
3.5589984e-05
3.6817163e-05
3.800754e-05
3.9162191e-05
4.0282171e-05
4.1368483e-05
4.2422057e-05
4.3443778e-05
4.4434495e-05
4.5395016e-05
4.6326116e-05
4.7228537e-05
4.8102997e-05
4.8950188e-05
4.9770783e-05
5.0565438e-05
5.1334791e-05
5.2079465e-05
5.2800071e-05
5.3497204e-05
5.417145e-05
5.4823384e-05
5.545357e-05
5.6062568e-05
5.6650913e-05
5.7219176e-05
5.7767799e-05
5.829755e-05
5.8808254e-05
5.9302508e-05
5.9773898e-05
6.0248187e-05
6.0626514e-05
6.1299821e-05
8.9262383e-05
8.9034539e-05
8.878297e-05
8.8481573e-05
8.808322e-05
8.7531283e-05
8.6774308e-05
8.5776998e-05
8.4524816e-05
8.3023812e-05
8.129762e-05
7.938062e-05
7.7312127e-05
7.5131919e-05
7.287728e-05
7.0581349e-05
6.8272398e-05
6.5973729e-05
6.3703929e-05
6.1477232e-05
5.9304026e-05
5.7191294e-05
5.5143045e-05
5.3160679e-05
5.1243265e-05
4.9387889e-05
4.7589857e-05
4.5842608e-05
4.4137611e-05
4.2464484e-05
4.0811536e-05
3.9168109e-05
3.751075e-05
3.5822675e-05
3.4088976e-05
3.22926e-05
3.0427804e-05
2.8475966e-05
2.6442846e-05
2.4300751e-05
2.211609e-05
1.9844832e-05
1.7545101e-05
1.5267378e-05
1.305095e-05
1.1015614e-05
9.2044911e-06
7.7242454e-06
6.5995508e-06
6.0056869e-06
5.9328048e-06
6.364423e-06
7.3549838e-06
8.7933559e-06
1.0559167e-05
1.2536892e-05
1.4607436e-05
1.6679356e-05
1.8706319e-05
2.0680399e-05
2.2609849e-05
2.4499867e-05
2.6347839e-05
2.8149176e-05
2.9902485e-05
3.1609123e-05
3.3270575e-05
3.488757e-05
3.6460762e-05
3.7991131e-05
3.9479744e-05
4.0927554e-05
4.2335469e-05
4.3704404e-05
4.5035251e-05
4.6328863e-05
4.7586067e-05
4.8807666e-05
4.9994439e-05
5.1147145e-05
5.2266525e-05
5.3353303e-05
5.4408189e-05
5.543188e-05
5.6425058e-05
5.7388395e-05
5.8322552e-05
5.9228185e-05
6.0105938e-05
6.0956451e-05
6.1780345e-05
6.2578274e-05
6.3350768e-05
6.4098696e-05
6.4821897e-05
6.5523422e-05
6.6195224e-05
6.6871176e-05
6.7416305e-05
6.8381824e-05
9.0264313e-05
9.0035227e-05
8.9795318e-05
8.954396e-05
8.927156e-05
8.8960262e-05
8.8585911e-05
8.8121702e-05
8.754227e-05
8.6827201e-05
8.5963564e-05
8.4946744e-05
8.3779904e-05
8.2472575e-05
8.1038897e-05
7.9495876e-05
7.7861868e-05
7.6155402e-05
7.4394299e-05
7.2595072e-05
7.0772546e-05
6.8939646e-05
6.71073e-05
6.5284414e-05
6.3477883e-05
6.1692641e-05
5.9931778e-05
5.81966e-05
5.6486604e-05
5.4799526e-05
5.3131236e-05
5.1477192e-05
4.9828513e-05
4.8174523e-05
4.6503995e-05
4.4804517e-05
4.3064872e-05
4.1273686e-05
3.941051e-05
3.7454866e-05
3.5408913e-05
3.3258413e-05
3.0998311e-05
2.8618803e-05
2.6165258e-05
2.3625316e-05
2.1036721e-05
1.8454803e-05
1.5912958e-05
1.3525832e-05
1.1376924e-05
9.5789228e-06
8.181861e-06
7.3749095e-06
7.159954e-06
7.5291045e-06
8.5228401e-06
9.9927598e-06
1.1837484e-05
1.3923906e-05
1.6123625e-05
1.8344458e-05
2.0542688e-05
2.2709148e-05
2.4844852e-05
2.6946696e-05
2.9008215e-05
3.1025071e-05
3.2996306e-05
3.4922124e-05
3.6802488e-05
3.8637392e-05
4.0427229e-05
4.2172594e-05
4.3874094e-05
4.5532364e-05
4.7148089e-05
4.8721971e-05
5.0254715e-05
5.1747032e-05
5.3199636e-05
5.4613238e-05
5.5988545e-05
5.7326262e-05
5.8627088e-05
5.9891717e-05
6.1120843e-05
6.2315154e-05
6.3475336e-05
6.4602076e-05
6.5696045e-05
6.6757952e-05
6.7788385e-05
6.8788287e-05
6.9757494e-05
7.0699507e-05
7.1604483e-05
7.2515261e-05
7.3256343e-05
7.4563496e-05
9.1391212e-05
9.1159893e-05
9.091912e-05
9.0672543e-05
9.041974e-05
9.0157173e-05
8.9877955e-05
8.9571947e-05
8.9226404e-05
8.8827134e-05
8.8359978e-05
8.7812272e-05
8.7174002e-05
8.6438512e-05
8.5602745e-05
8.4667096e-05
8.3634992e-05
8.2512323e-05
8.1306822e-05
8.0027447e-05
7.8683833e-05
7.7285817e-05
7.5843046e-05
7.4364664e-05
7.2859058e-05
7.1333661e-05
6.9794832e-05
6.824778e-05
6.669647e-05
6.5143598e-05
6.3590447e-05
6.2037304e-05
6.0482718e-05
5.8923338e-05
5.7354241e-05
5.5768982e-05
5.4160117e-05
5.251995e-05
5.0837646e-05
4.9099061e-05
4.7293935e-05
4.5411058e-05
4.3440224e-05
4.1367825e-05
3.9180708e-05
3.686948e-05
3.4429341e-05
3.1867173e-05
2.9186693e-05
2.6421486e-05
2.3591102e-05
2.0759421e-05
1.7967567e-05
1.5339023e-05
1.2974762e-05
1.0997692e-05
9.4773754e-06
8.6631407e-06
8.4705454e-06
8.961419e-06
1.0088235e-05
1.171863e-05
1.3731582e-05
1.5979187e-05
1.8333167e-05
2.0714358e-05
2.3090189e-05
2.5450831e-05
2.7788949e-05
3.009531e-05
3.2362719e-05
3.4587711e-05
3.6768718e-05
3.8904536e-05
4.0994311e-05
4.3037722e-05
4.5034767e-05
4.6985595e-05
4.8890484e-05
5.0749831e-05
5.2564101e-05
5.433381e-05
5.6059514e-05
5.77418e-05
5.9381275e-05
6.0978565e-05
6.2534313e-05
6.4049172e-05
6.5523806e-05
6.6958892e-05
6.83551e-05
6.9713148e-05
7.1033643e-05
7.2317559e-05
7.3564702e-05
7.4779001e-05
7.5948683e-05
7.7126271e-05
7.8091722e-05
7.9788723e-05
9.263758e-05
9.2404164e-05
9.216155e-05
9.19139e-05
9.1662304e-05
9.1406589e-05
9.1145446e-05
9.0876239e-05
9.0594796e-05
9.0295365e-05
8.997082e-05
8.9613087e-05
8.9213737e-05
8.8764609e-05
8.8258396e-05
8.7689102e-05
8.7052356e-05
8.6345548e-05
8.5567832e-05
8.4720005e-05
8.3804304e-05
8.2824159e-05
8.1783913e-05
8.068855e-05
7.9543422e-05
7.8353997e-05
7.7125642e-05
7.5863451e-05
7.4572076e-05
7.3255611e-05
7.1917451e-05
7.05603e-05
6.9186003e-05
6.7795318e-05
6.6387824e-05
6.496182e-05
6.3514377e-05
6.204167e-05
6.0538534e-05
5.8997591e-05
5.7410794e-05
5.5769373e-05
5.4064285e-05
5.2285329e-05
5.0420411e-05
4.8457365e-05
4.6385611e-05
4.4200596e-05
4.1885276e-05
3.942867e-05
3.6810506e-05
3.407628e-05
3.1199944e-05
2.8220974e-05
2.5183129e-05
2.2147411e-05
1.9165465e-05
1.6395788e-05
1.3944846e-05
1.1923815e-05
1.0526412e-05
9.8579919e-06
9.910445e-06
1.0705584e-05
1.2112969e-05
1.4026202e-05
1.6285306e-05
1.8736169e-05
2.1271236e-05
2.3835706e-05
2.6406213e-05
2.8968263e-05
3.1508545e-05
3.4016881e-05
3.6487285e-05
3.8916187e-05
4.1300973e-05
4.3639803e-05
4.5931563e-05
4.8175601e-05
5.037156e-05
5.2519323e-05
5.4618952e-05
5.6670637e-05
5.8674671e-05
6.063143e-05
6.2541352e-05
6.4404926e-05
6.6222686e-05
6.7995202e-05
6.9723064e-05
7.1406925e-05
7.3047347e-05
7.4645278e-05
7.6200451e-05
7.771718e-05
7.9181641e-05
8.0656646e-05
8.1873898e-05
8.4007489e-05
9.399843e-05
9.3762947e-05
9.3518427e-05
9.3269084e-05
9.3016131e-05
9.275994e-05
9.2500453e-05
9.2237213e-05
9.196923e-05
9.1694816e-05
9.1411466e-05
9.1115812e-05
9.0803685e-05
9.0470273e-05
9.0110352e-05
8.9718575e-05
8.9289767e-05
8.8819196e-05
8.8302806e-05
8.7737377e-05
8.7120629e-05
8.6451248e-05
8.5728865e-05
8.4953982e-05
8.412786e-05
8.3252383e-05
8.2329911e-05
8.1363136e-05
8.0354939e-05
7.9308256e-05
7.8225954e-05
7.7110736e-05
7.5965025e-05
7.479082e-05
7.3589558e-05
7.2361955e-05
7.1107902e-05
6.9826474e-05
6.8515886e-05
6.7173103e-05
6.5793969e-05
6.437328e-05
6.2904984e-05
6.1382122e-05
5.9796468e-05
5.8138618e-05
5.6398379e-05
5.4567275e-05
5.2633827e-05
5.0585473e-05
4.8408061e-05
4.6096773e-05
4.3647043e-05
4.1011752e-05
3.8248998e-05
3.5319137e-05
3.2239779e-05
2.9063053e-05
2.5842126e-05
2.2630541e-05
1.9545446e-05
1.6736459e-05
1.433324e-05
1.2498187e-05
1.1451997e-05
1.1162466e-05
1.1687478e-05
1.2918861e-05
1.4758473e-05
1.7035221e-05
1.9576606e-05
2.2255384e-05
2.4999569e-05
2.7773017e-05
3.055299e-05
3.3321387e-05
3.6065025e-05
3.8775528e-05
4.1447352e-05
4.4076464e-05
4.6660019e-05
4.9196085e-05
5.1683336e-05
5.412089e-05
5.6508207e-05
5.8845003e-05
6.1131192e-05
6.3366841e-05
6.5552141e-05
6.7687381e-05
6.9772926e-05
7.1809237e-05
7.3796734e-05
7.5736235e-05
7.7627339e-05
7.947467e-05
8.1262231e-05
8.3063641e-05
8.4558872e-05
8.7174019e-05
9.5468816e-05
9.5231243e-05
9.498475e-05
9.4733585e-05
9.4478915e-05
9.4221139e-05
9.39604e-05
9.3696702e-05
9.3429901e-05
9.315963e-05
9.2885215e-05
9.260559e-05
9.2319224e-05
9.2024089e-05
9.1717662e-05
9.1396977e-05
9.1058718e-05
9.0699347e-05
9.0315251e-05
8.9902897e-05
8.9458975e-05
8.8980523e-05
8.8465029e-05
8.7910492e-05
8.7315462e-05
8.667903e-05
8.6000815e-05
8.528091e-05
8.4519827e-05
8.3718422e-05
8.2877827e-05
8.199937e-05
8.1084487e-05
8.0134632e-05
7.9151168e-05
7.8135236e-05
7.7087636e-05
7.6008736e-05
7.4898402e-05
7.3755846e-05
7.2579512e-05
7.1367008e-05
7.0115109e-05
6.8819749e-05
6.7475927e-05
6.6077598e-05
6.4617573e-05
6.3088401e-05
6.1481573e-05
5.9787409e-05
5.7994401e-05
5.6091878e-05
5.4072251e-05
5.1914897e-05
4.961603e-05
4.7162016e-05
4.4536858e-05
4.1743898e-05
3.8772487e-05
3.5631654e-05
3.2346447e-05
2.8977055e-05
2.5589236e-05
2.2272824e-05
1.9204269e-05
1.6516225e-05
1.4383576e-05
1.3064265e-05
1.2548451e-05
1.2900796e-05
1.404326e-05
1.5874017e-05
1.8208164e-05
2.0860332e-05
2.3691745e-05
2.6619551e-05
2.9597632e-05
3.259577e-05
3.559143e-05
3.8568788e-05
4.1517332e-05
4.4429718e-05
4.7300615e-05
5.0126216e-05
5.2903815e-05
5.5631472e-05
5.8307821e-05
6.0931928e-05
6.350319e-05
6.6021261e-05
6.8485992e-05
7.0897422e-05
7.3255638e-05
7.5561171e-05
7.7813358e-05
8.0017018e-05
8.2153834e-05
8.4308667e-05
8.6106456e-05
8.9245962e-05
9.7043766e-05
9.6804038e-05
9.6555478e-05
9.6302373e-05
9.6045844e-05
9.5786255e-05
9.5523755e-05
9.5258416e-05
9.4990263e-05
9.4719255e-05
9.4445255e-05
9.4167991e-05
9.3887013e-05
9.360164e-05
9.331092e-05
9.3013601e-05
9.2708114e-05
9.2392587e-05
9.2064876e-05
9.172262e-05
9.1363308e-05
9.0984367e-05
9.0583236e-05
9.0157458e-05
8.9704746e-05
8.9223048e-05
8.8710585e-05
8.8165891e-05
8.7587818e-05
8.6975541e-05
8.632855e-05
8.5646623e-05
8.4929799e-05
8.4178325e-05
8.3392603e-05
8.2573112e-05
8.1720322e-05
8.0834612e-05
7.9916191e-05
7.8965002e-05
7.7980622e-05
7.6962149e-05
7.5908135e-05
7.4816514e-05
7.3684554e-05
7.2508762e-05
7.1284745e-05
7.0007385e-05
6.8670755e-05
6.7268036e-05
6.5791099e-05
6.4230829e-05
6.2578984e-05
6.0822967e-05
5.8952397e-05
5.6955088e-05
5.4819371e-05
5.2530588e-05
5.0074932e-05
4.7438723e-05
4.4621379e-05
4.1609906e-05
3.840795e-05
3.5033062e-05
3.1539776e-05
2.8004851e-05
2.4513445e-05
2.1254608e-05
1.8364092e-05
1.606078e-05
1.4580133e-05
1.3966988e-05
1.4266608e-05
1.5432829e-05
1.7341275e-05
1.9792211e-05
2.259291e-05
2.560044e-05
2.8726802e-05
3.1919151e-05
3.5141583e-05
3.8368255e-05
4.158134e-05
4.4768613e-05
4.7921331e-05
5.1033153e-05
5.4099488e-05
5.7116977e-05
6.0083166e-05
6.2996272e-05
6.5855022e-05
6.8658557e-05
7.1406255e-05
7.4098057e-05
7.6732802e-05
7.9315305e-05
8.1824717e-05
8.4357484e-05
8.6480325e-05
9.0184267e-05
9.8718259e-05
9.8476281e-05
9.8225531e-05
9.7970347e-05
9.7711816e-05
9.7450267e-05
9.7185831e-05
9.6918576e-05
9.6648548e-05
9.6375766e-05
9.6100217e-05
9.5821843e-05
9.5540529e-05
9.5256081e-05
9.4968193e-05
9.4676426e-05
9.4380176e-05
9.4078648e-05
9.3770845e-05
9.3455561e-05
9.3131384e-05
9.2796719e-05
9.2449816e-05
9.2088811e-05
9.1711768e-05
9.1316734e-05
9.0901779e-05
9.046505e-05
9.0004812e-05
8.9519479e-05
8.9007646e-05
8.8468112e-05
8.7899883e-05
8.7302176e-05
8.6674404e-05
8.6016148e-05
8.5327123e-05
8.4607129e-05
8.3856001e-05
8.3073548e-05
8.2259487e-05
8.1413354e-05
8.0534429e-05
7.9621656e-05
7.8673577e-05
7.768826e-05
7.6663184e-05
7.5595216e-05
7.4480561e-05
7.3314729e-05
7.209234e-05
7.0806987e-05
6.9451973e-05
6.8018843e-05
6.6498646e-05
6.4881344e-05
6.3156133e-05
6.1310768e-05
5.9331389e-05
5.7205654e-05
5.4918095e-05
5.2453018e-05
4.9795649e-05
4.6936984e-05
4.3879845e-05
4.0611342e-05
3.7145798e-05
3.3542599e-05
2.9871828e-05
2.624407e-05
2.2849334e-05
1.9833238e-05
1.7479676e-05
1.5959972e-05
1.537892e-05
1.5759312e-05
1.7075328e-05
1.9159179e-05
2.1796942e-05
2.4793964e-05
2.800989e-05
3.1356484e-05
3.4777486e-05
3.8233837e-05
4.169805e-05
4.5151148e-05
4.8579758e-05
5.1974212e-05
5.5327468e-05
5.863435e-05
6.1891028e-05
6.5094673e-05
6.8243152e-05
7.133519e-05
7.4368658e-05
7.7347983e-05
8.0249429e-05
8.3181251e-05
8.5648832e-05
8.9953681e-05
0.00010048721
0.00010024286
9.9989774e-05
9.9732351e-05
9.9471658e-05
9.9207994e-05
9.8941468e-05
9.8672138e-05
9.8400043e-05
9.8125208e-05
9.7847638e-05
9.7567323e-05
9.7284233e-05
9.699831e-05
9.670946e-05
9.6417541e-05
9.6122344e-05
9.5823578e-05
9.5520848e-05
9.5213638e-05
9.4901297e-05
9.4583024e-05
9.425787e-05
9.3924735e-05
9.3582382e-05
9.3229452e-05
9.2864487e-05
9.2485959e-05
9.2092302e-05
9.1681947e-05
9.1253353e-05
9.080504e-05
9.0335618e-05
8.9843803e-05
8.932844e-05
8.8788496e-05
8.8223071e-05
8.7631378e-05
8.7012729e-05
8.6366512e-05
8.5692151e-05
8.4989062e-05
8.4256597e-05
8.3493985e-05
8.2700275e-05
8.1874274e-05
8.1014467e-05
8.011895e-05
7.9185371e-05
7.8210883e-05
7.7192047e-05
7.6124675e-05
7.5004033e-05
7.3824426e-05
7.2579362e-05
7.126143e-05
6.9862245e-05
6.8372383e-05
6.6780898e-05
6.5076261e-05
6.3245209e-05
6.1273235e-05
5.9145985e-05
5.6844418e-05
5.4355847e-05
5.1663808e-05
4.875304e-05
4.5625118e-05
4.227618e-05
3.8711956e-05
3.4997771e-05
3.1198354e-05
2.746975e-05
2.3987838e-05
2.0937149e-05
1.8653953e-05
1.7227775e-05
1.680756e-05
1.7431996e-05
1.9018768e-05
2.1369107e-05
2.4259487e-05
2.7499925e-05
3.0957957e-05
3.4548418e-05
3.8214412e-05
4.1916206e-05
4.5626153e-05
4.9324915e-05
5.299863e-05
5.6637218e-05
6.0233277e-05
6.3781278e-05
6.7277347e-05
7.0717354e-05
7.4104566e-05
7.7411687e-05
8.0758783e-05
8.3586801e-05
8.8523985e-05
0.00010234547
0.00010209859
0.00010184301
0.00010158317
0.00010132014
0.00010105418
0.0001007854
0.00010051383
0.00010023951
9.9962457e-05
9.9682672e-05
9.9400154e-05
9.9114888e-05
9.8826849e-05
9.8535999e-05
9.8242285e-05
9.7945629e-05
9.7645924e-05
9.7343023e-05
9.7036725e-05
9.672676e-05
9.6412778e-05
9.6094335e-05
9.577088e-05
9.5441748e-05
9.510616e-05
9.4763217e-05
9.4411914e-05
9.4051148e-05
9.3679736e-05
9.3296433e-05
9.289996e-05
9.2489024e-05
9.2062337e-05
9.1618642e-05
9.1156724e-05
9.0675426e-05
9.017366e-05
8.9650407e-05
8.9104724e-05
8.8535726e-05
8.7942576e-05
8.7324457e-05
8.6680541e-05
8.6009952e-05
8.5311727e-05
8.4584761e-05
8.3827749e-05
8.303914e-05
8.2217075e-05
8.135933e-05
8.0463206e-05
7.9525542e-05
7.8542566e-05
7.7509861e-05
7.6422291e-05
7.5273901e-05
7.4057887e-05
7.2766314e-05
7.1390262e-05
6.9919528e-05
6.8342452e-05
6.6646612e-05
6.4816551e-05
6.2838448e-05
6.0694733e-05
5.8365237e-05
5.5833597e-05
5.3086498e-05
5.0104159e-05
4.6886434e-05
4.3434205e-05
3.9757965e-05
3.592337e-05
3.2007703e-05
2.8218114e-05
2.4707777e-05
2.1757127e-05
1.9610823e-05
1.8431942e-05
1.8342733e-05
1.9360859e-05
2.1332297e-05
2.4031855e-05
2.7233857e-05
3.0760936e-05
3.4492655e-05
3.834928e-05
4.2276021e-05
4.6234703e-05
5.0198691e-05
5.4149041e-05
5.8072029e-05
6.1957822e-05
6.5797887e-05
6.9592617e-05
7.3309763e-05
7.7080733e-05
8.0278831e-05
8.5872294e-05
0.00010428779
0.00010403823
0.00010377995
0.00010351751
0.00010325195
0.00010298352
0.0001027123
0.00010243832
0.0001021616
0.00010188216
0.0001016
0.00010131511
0.00010102747
0.00010073708
0.00010044389
0.00010014789
9.984903e-05
9.9547257e-05
9.9242508e-05
9.8934698e-05
9.8623713e-05
9.8309403e-05
9.799157e-05
9.766996e-05
9.7344248e-05
9.7014031e-05
9.6678822e-05
9.6338044e-05
9.5991028e-05
9.5637018e-05
9.5275175e-05
9.490459e-05
9.452429e-05
9.4133255e-05
9.3730428e-05
9.331473e-05
9.2885073e-05
9.2440371e-05
9.1979555e-05
9.1501583e-05
9.1005445e-05
9.049016e-05
8.9954778e-05
8.9398364e-05
8.8819988e-05
8.8218703e-05
8.7593517e-05
8.6943357e-05
8.6267035e-05
8.5563205e-05
8.4830316e-05
8.406655e-05
8.3269775e-05
8.2437486e-05
8.1566727e-05
8.0654037e-05
7.9695361e-05
7.8686001e-05
7.7620456e-05
7.6492373e-05
7.5294411e-05
7.4018033e-05
7.2653729e-05
7.1190105e-05
6.9615002e-05
6.7914531e-05
6.6071826e-05
6.4071543e-05
6.1893437e-05
5.9516427e-05
5.6922119e-05
5.4095963e-05
5.1017788e-05
4.7685489e-05
4.4104855e-05
4.0303165e-05
3.6341869e-05
3.2349198e-05
2.8520919e-05
2.5078682e-05
2.2338635e-05
2.0479277e-05
1.9710494e-05
2.0137447e-05
2.1675618e-05
2.412169e-05
2.7232021e-05
3.0790297e-05
3.4638266e-05
3.8669178e-05
4.2810379e-05
4.7011438e-05
5.1237194e-05
5.546301e-05
5.9669881e-05
6.3851191e-05
6.7966612e-05
7.2157301e-05
7.5725317e-05
8.1987151e-05
0.00010630887
0.00010605643
0.00010579528
0.00010553003
0.00010526172
0.00010499062
0.00010471676
0.00010444019
0.00010416089
0.00010387889
0.00010359418
0.00010330674
0.00010301658
0.00010272365
0.00010242795
0.00010212944
0.0001018281
0.00010152387
0.00010121673
0.00010090661
0.00010059347
0.00010027722
9.9957772e-05
9.963499e-05
9.9308716e-05
9.8978743e-05
9.8644814e-05
9.8306615e-05
9.7963769e-05
9.7615834e-05
9.7262301e-05
9.6902596e-05
9.653608e-05
9.6162054e-05
9.5779762e-05
9.5388397e-05
9.4987104e-05
9.4574993e-05
9.4151148e-05
9.3714632e-05
9.3264501e-05
9.2799809e-05
9.2319609e-05
9.1822958e-05
9.1308916e-05
9.0776541e-05
9.0224878e-05
8.9652941e-05
8.90597e-05
8.844405e-05
8.7804788e-05
8.7140567e-05
8.6449864e-05
8.5730934e-05
8.4981758e-05
8.4199985e-05
8.3382876e-05
8.2527243e-05
8.1629356e-05
8.0684864e-05
7.9688697e-05
7.8634912e-05
7.7516707e-05
7.632606e-05
7.5053837e-05
7.368966e-05
7.2221057e-05
7.0634751e-05
6.891497e-05
6.7043658e-05
6.5002528e-05
6.277019e-05
6.0322574e-05
5.7642225e-05
5.4710002e-05
5.1509474e-05
4.8034697e-05
4.4310169e-05
4.0362559e-05
3.6281355e-05
3.2245523e-05
2.8455959e-05
2.5229341e-05
2.2792811e-05
2.1412309e-05
2.1269e-05
2.2358244e-05
2.4516267e-05
2.7498497e-05
3.105944e-05
3.5004527e-05
3.919771e-05
4.3546204e-05
4.7986097e-05
5.2471528e-05
5.6978093e-05
6.1449749e-05
6.6032905e-05
6.9953634e-05
7.6875904e-05
0.00010840332
0.00010814782
0.00010788358
0.0001076153
0.00010734405
0.00010707005
0.00010679336
0.00010651398
0.00010623192
0.00010594716
0.00010565972
0.00010536957
0.00010507669
0.00010478108
0.00010448269
0.0001041815
0.00010387749
0.00010357061
0.00010326083
0.0001029481
0.00010263239
0.00010231364
0.00010199178
0.00010166674
0.00010133841
0.00010100669
0.0001006714
0.00010033239
9.9989418e-05
9.9642236e-05
9.929054e-05
9.8933983e-05
9.8572174e-05
9.8204672e-05
9.7830985e-05
9.7450571e-05
9.7062837e-05
9.6667141e-05
9.6262797e-05
9.5849079e-05
9.5425225e-05
9.4990443e-05
9.4543917e-05
9.4084809e-05
9.3612265e-05
9.3125418e-05
9.2623386e-05
9.2105264e-05
9.1570127e-05
9.101701e-05
9.0444902e-05
8.9852715e-05
8.923927e-05
8.8603264e-05
8.7943239e-05
8.7257536e-05
8.6544257e-05
8.5801218e-05
8.5025885e-05
8.4215309e-05
8.3366054e-05
8.2474088e-05
8.1534729e-05
8.0542485e-05
7.9490959e-05
7.837278e-05
7.7179194e-05
7.5900267e-05
7.4524427e-05
7.3038038e-05
7.1426037e-05
6.9670806e-05
6.7753809e-05
6.5651376e-05
6.3341199e-05
6.0799807e-05
5.8004118e-05
5.4937022e-05
5.1582485e-05
4.7938234e-05
4.404917e-05
3.9950472e-05
3.5793636e-05
3.175922e-05
2.8150144e-05
2.5240965e-05
2.3329541e-05
2.2666604e-05
2.3323517e-05
2.5186845e-05
2.8024574e-05
3.1572428e-05
3.5603694e-05
3.9953169e-05
4.4505293e-05
4.9189025e-05
5.3912738e-05
5.8815684e-05
6.3039984e-05
7.0578402e-05
0.00011056572
0.00011030695
0.0001100394
0.00010976788
0.00010949345
0.00010921634
0.00010893659
0.0001086542
0.00010836916
0.00010808146
0.00010779109
0.00010749804
0.00010720227
0.00010690378
0.00010660253
0.0001062985
0.00010599165
0.00010568195
0.00010536936
0.00010505384
0.00010473534
0.00010441383
0.00010408925
0.00010376152
0.00010343059
0.00010309635
0.0001027587
0.00010241752
0.00010207266
0.00010172395
0.0001013712
0.00010101419
0.00010065268
0.00010028639
9.9915011e-05
9.9538194e-05
9.9155554e-05
9.8766663e-05
9.8371051e-05
9.7968206e-05
9.7557575e-05
9.7138565e-05
9.6710545e-05
9.6272848e-05
9.5824776e-05
9.5365603e-05
9.4894576e-05
9.4410913e-05
9.3913811e-05
9.3402436e-05
9.287592e-05
9.2333355e-05
9.1773776e-05
9.1196151e-05
9.059936e-05
8.9982168e-05
8.9343199e-05
8.8680904e-05
8.7993518e-05
8.7279017e-05
8.6535061e-05
8.575893e-05
8.4947452e-05
8.4096926e-05
8.3203012e-05
8.2260658e-05
8.1263902e-05
8.0205801e-05
7.9078246e-05
7.7871622e-05
7.6574873e-05
7.5174965e-05
7.3657362e-05
7.2004287e-05
7.0195968e-05
6.821182e-05
6.6025373e-05
6.3612168e-05
6.0948338e-05
5.8004763e-05
5.4770178e-05
5.1227755e-05
4.7398259e-05
4.3328268e-05
3.9108966e-05
3.4913806e-05
3.1015068e-05
2.7721445e-05
2.5362506e-05
2.4246028e-05
2.451035e-05
2.6096356e-05
2.8793198e-05
3.2326945e-05
3.6442309e-05
4.0954789e-05
4.5688132e-05
5.0740903e-05
5.5154963e-05
6.319391e-05
0.0001127906
0.00011252834
0.00011225727
0.00011198227
0.00011170443
0.00011142399
0.00011114096
0.00011085533
0.0001105671
0.00011027625
0.00010998275
0.00010968659
0.00010938775