/*--------------------------------*- C++ -*----------------------------------*\
  =========                 |
  \\      /  F ield         | OpenFOAM: The Open Source CFD Toolbox
   \\    /   O peration     | Website:  https://openfoam.org
    \\  /    A nd           | Version:  12
     \\/     M anipulation  |
\*---------------------------------------------------------------------------*/
FoamFile
{
    format      ascii;
    class       volScalarField;
    location    "400";
    object      p;
}
// * * * * * * * * * * * * * * * * * * * * * * * * * * * * * * * * * * * * * //

dimensions      [0 2 -2 0 0 0 0];

internalField   nonuniform List<scalar> 
13056
(
0.0039532214
0.0039837666
0.0040458823
0.0041237776
0.0042181979
0.0043281419
0.0044523398
0.0045901628
0.0047415151
0.0049067004
0.0050864094
0.0052817975
0.0054945835
0.0057273255
0.0059835547
0.0062688567
0.0065903007
0.006962202
0.0073976469
0.0079479063
0.0086196238
0.0097106378
0.010951451
0.016706869
0.013013774
0.0067349841
0.0052522386
0.0046116033
0.0040845492
0.0036969555
0.0034272821
0.0032256668
0.0030581045
0.0029144199
0.0027959399
0.0026984182
0.0026062475
0.002524483
0.0024556821
0.0023927042
0.0023360189
0.0022850054
0.002238491
0.0021954039
0.0021566185
0.0021199439
0.0020860819
0.0020547361
0.0020245159
0.0019961959
0.0019698016
0.0019443911
0.0019198641
0.0018968078
0.0018749851
0.0018536881
0.0018330234
0.0018133944
0.0017946031
0.0017760386
0.0017578321
0.0017402278
0.0017233224
0.0017066828
0.0016901687
0.001673853
0.0016579941
0.0016426174
0.0016272378
0.0016118605
0.0015965435
0.0015814456
0.0015666419
0.001551772
0.0015367675
0.0015217359
0.0015067024
0.001491822
0.0014769015
0.0014617072
0.0014463738
0.0014308685
0.0014153574
0.0013998164
0.0013839103
0.0013676875
0.0013512046
0.0013344996
0.001317656
0.0013004641
0.0012827814
0.0012647055
0.0012462232
0.0012274365
0.0012082276
0.0011883598
0.0011679081
0.0011468695
0.0011253247
0.0011031652
0.0010801394
0.0010562839
0.0010316114
0.0010061392
0.00097968432
0.00095204388
0.00092320865
0.00089321113
0.0008618861
0.00082889974
0.00079408228
0.00075739712
0.00071815621
0.0006771476
0.00063709249
0.00059898365
0.00056221463
0.00052629159
0.0004911582
0.00045682596
0.00042327497
0.00039039587
0.00035815686
0.00032663665
0.00029588529
0.00026599284
0.00023700994
0.00020897046
0.00018216046
0.00015667867
0.00013360399
0.00011175471
9.8567107e-05
7.7708687e-05
0.00016130258
-0.00015074582
0.0039532214
0.0039837666
0.0040458823
0.0041237776
0.0042181979
0.0043281419
0.0044523398
0.0045901628
0.0047415151
0.0049067004
0.0050864094
0.0052817975
0.0054945835
0.0057273255
0.0059835547
0.0062688568
0.0065903008
0.0069622021
0.007397647
0.0079479064
0.0086196239
0.009710638
0.010951453
0.016703206
0.013016541
0.0067356532
0.0052524995
0.0046117691
0.0040846706
0.0036970519
0.0034273608
0.0032257319
0.0030581591
0.0029144664
0.00279598
0.0026984533
0.0026062784
0.0025245104
0.0024557066
0.0023927263
0.0023360389
0.0022850236
0.0022385076
0.0021954192
0.0021566326
0.0021199568
0.0020860939
0.0020547472
0.0020245263
0.0019962056
0.0019698107
0.0019443995
0.0019198721
0.0018968153
0.0018749921
0.0018536947
0.0018330296
0.0018134003
0.0017946086
0.0017760439
0.0017578371
0.0017402325
0.0017233269
0.001706687
0.0016901728
0.0016738569
0.0016579978
0.0016426208
0.0016272411
0.0016118637
0.0015965465
0.0015814484
0.0015666447
0.0015517746
0.0015367699
0.0015217383
0.0015067046
0.0014918242
0.0014769035
0.0014617092
0.0014463757
0.0014308703
0.0014153591
0.0013998181
0.0013839119
0.001367689
0.001351206
0.0013345009
0.0013176573
0.0013004653
0.0012827827
0.0012647066
0.0012462243
0.0012274375
0.0012082287
0.0011883608
0.001167909
0.0011468704
0.0011253255
0.0011031661
0.0010801402
0.0010562846
0.0010316122
0.0010061399
0.00097968497
0.00095204449
0.00092320923
0.00089321168
0.00086188663
0.00082890024
0.00079408276
0.00075739757
0.00071815664
0.00067714801
0.00063709287
0.00059898401
0.00056221498
0.00052629193
0.00049115851
0.00045682626
0.00042327526
0.00039039615
0.00035815713
0.00032663691
0.00029588554
0.00026599307
0.00023701016
0.00020897067
0.00018216067
0.00015667887
0.00013360418
0.0001117549
9.8567291e-05
7.7708876e-05
0.00016130278
-0.00015074567
0.0039532214
0.0039837666
0.0040458823
0.0041237776
0.0042181979
0.0043281419
0.0044523398
0.0045901628
0.0047415152
0.0049067004
0.0050864094
0.0052817976
0.0054945836
0.0057273255
0.0059835547
0.0062688568
0.0065903008
0.0069622021
0.007397647
0.0079479065
0.0086196239
0.009710638
0.010951454
0.016700195
0.013020988
0.0067368447
0.0052528939
0.0046120044
0.0040848397
0.0036971852
0.0034274692
0.0032258212
0.0030582338
0.0029145299
0.0027960347
0.0026985008
0.0026063202
0.0025245475
0.0024557398
0.0023927561
0.0023360658
0.0022850481
0.00223853
0.0021954396
0.0021566514
0.0021199742
0.00208611
0.0020547621
0.0020245401
0.0019962185
0.0019698228
0.0019444108
0.0019198826
0.0018968252
0.0018750014
0.0018537035
0.0018330379
0.0018134081
0.001794616
0.0017760509
0.0017578437
0.0017402388
0.0017233328
0.0017066926
0.0016901781
0.0016738619
0.0016580026
0.0016426254
0.0016272455
0.0016118678
0.0015965504
0.0015814522
0.0015666482
0.001551778
0.0015367732
0.0015217414
0.0015067076
0.001491827
0.0014769062
0.0014617118
0.0014463782
0.0014308727
0.0014153614
0.0013998202
0.0013839139
0.0013676909
0.0013512079
0.0013345027
0.001317659
0.001300467
0.0012827842
0.0012647081
0.0012462257
0.0012274389
0.00120823
0.001188362
0.0011679102
0.0011468715
0.0011253266
0.0011031671
0.0010801412
0.0010562856
0.0010316131
0.0010061408
0.00097968581
0.00095204529
0.00092321
0.00089321241
0.00086188733
0.0008289009
0.00079408338
0.00075739816
0.00071815719
0.00067714853
0.00063709338
0.00059898449
0.00056221543
0.00052629236
0.00049115893
0.00045682666
0.00042327564
0.00039039651
0.00035815747
0.00032663724
0.00029588586
0.00026599338
0.00023701045
0.00020897095
0.00018216094
0.00015667913
0.00013360444
0.00011175514
9.8567528e-05
7.7709104e-05
0.00016130305
-0.0001507455
0.0039532214
0.0039837666
0.0040458823
0.0041237776
0.0042181979
0.0043281419
0.0044523398
0.0045901628
0.0047415152
0.0049067004
0.0050864094
0.0052817976
0.0054945836
0.0057273256
0.0059835547
0.0062688568
0.0065903008
0.0069622022
0.0073976471
0.0079479065
0.0086196239
0.0097106377
0.010951456
0.016697974
0.013027141
0.0067387814
0.0052534472
0.0046123089
0.0040850521
0.003697351
0.0034276034
0.0032259313
0.0030583256
0.0029146076
0.0027961014
0.0026985587
0.002606371
0.0025245925
0.0024557798
0.002392792
0.0023360983
0.0022850775
0.0022385567
0.0021954641
0.0021566739
0.0021199949
0.0020861291
0.0020547799
0.0020245566
0.0019962338
0.0019698371
0.0019444242
0.0019198952
0.0018968369
0.0018750125
0.0018537138
0.0018330477
0.0018134173
0.0017946247
0.0017760591
0.0017578515
0.0017402461
0.0017233398
0.0017066992
0.0016901844
0.0016738679
0.0016580082
0.0016426308
0.0016272506
0.0016118727
0.001596555
0.0015814566
0.0015666524
0.001551782
0.001536777
0.001521745
0.001506711
0.0014918303
0.0014769094
0.0014617148
0.001446381
0.0014308754
0.001415364
0.0013998227
0.0013839163
0.0013676932
0.0013512101
0.0013345048
0.001317661
0.0013004689
0.0012827861
0.0012647099
0.0012462274
0.0012274405
0.0012082315
0.0011883635
0.0011679116
0.0011468729
0.0011253279
0.0011031683
0.0010801424
0.0010562867
0.0010316141
0.0010061418
0.00097968678
0.00095204622
0.00092321088
0.00089321325
0.00086188812
0.00082890166
0.0007940841
0.00075739884
0.00071815784
0.00067714914
0.00063709396
0.00059898504
0.00056221595
0.00052629285
0.0004911594
0.00045682711
0.00042327607
0.00039039692
0.00035815787
0.00032663762
0.00029588622
0.00026599372
0.00023701079
0.00020897127
0.00018216125
0.00015667943
0.00013360472
0.00011175542
9.8567798e-05
7.7709355e-05
0.00016130336
-0.00015074531
0.0039532214
0.0039837666
0.0040458823
0.0041237776
0.0042181979
0.0043281419
0.0044523398
0.0045901628
0.0047415152
0.0049067004
0.0050864095
0.0052817976
0.0054945836
0.0057273256
0.0059835548
0.0062688569
0.0065903009
0.0069622022
0.0073976471
0.0079479064
0.0086196239
0.0097106371
0.010951457
0.016696132
0.013034892
0.0067415836
0.0052542051
0.0046127051
0.0040853225
0.0036975606
0.0034277727
0.00322607
0.003058441
0.0029147051
0.0027961849
0.0026986312
0.0026064345
0.0025246485
0.0024558297
0.0023928367
0.0023361386
0.002285114
0.00223859
0.0021954945
0.0021567018
0.0021200206
0.0020861528
0.0020548018
0.002024577
0.0019962528
0.0019698547
0.0019444407
0.0019199106
0.0018968514
0.001875026
0.0018537266
0.0018330596
0.0018134286
0.0017946353
0.0017760691
0.001757861
0.0017402551
0.0017233483
0.0017067073
0.001690192
0.0016738751
0.0016580151
0.0016426373
0.0016272568
0.0016118786
0.0015965606
0.0015814619
0.0015666575
0.0015517868
0.0015367816
0.0015217494
0.0015067152
0.0014918343
0.0014769132
0.0014617184
0.0014463845
0.0014308787
0.0014153672
0.0013998258
0.0013839192
0.001367696
0.0013512127
0.0013345074
0.0013176635
0.0013004712
0.0012827883
0.001264712
0.0012462295
0.0012274425
0.0012082334
0.0011883653
0.0011679133
0.0011468745
0.0011253295
0.0011031698
0.0010801438
0.0010562881
0.0010316154
0.001006143
0.00097968797
0.00095204735
0.00092321195
0.00089321427
0.0008618891
0.00082890258
0.00079408498
0.00075739967
0.00071815862
0.00067714988
0.00063709466
0.0005989857
0.00056221659
0.00052629345
0.00049115997
0.00045682765
0.00042327659
0.00039039742
0.00035815834
0.00032663807
0.00029588665
0.00026599414
0.00023701119
0.00020897166
0.00018216162
0.00015667978
0.00013360506
0.00011175575
9.8568121e-05
7.7709653e-05
0.00016130372
-0.00015074508
0.0039532214
0.0039837666
0.0040458823
0.0041237776
0.0042181979
0.0043281419
0.0044523399
0.0045901628
0.0047415152
0.0049067004
0.0050864095
0.0052817976
0.0054945836
0.0057273256
0.0059835548
0.0062688569
0.0065903009
0.0069622022
0.0073976471
0.0079479064
0.0086196237
0.0097106362
0.010951459
0.01669444
0.01304322
0.0067451064
0.005255164
0.004613189
0.0040856466
0.0036978108
0.0034279747
0.0032262356
0.0030585787
0.0029148216
0.0027962847
0.0026987177
0.0026065102
0.0025247154
0.0024558893
0.0023928901
0.0023361867
0.0022851576
0.0022386296
0.0021955307
0.002156735
0.0021200511
0.002086181
0.0020548279
0.0020246012
0.0019962753
0.0019698757
0.0019444603
0.0019199289
0.0018968686
0.0018750421
0.0018537417
0.0018330739
0.001813442
0.001794648
0.0017760811
0.0017578722
0.0017402657
0.0017233584
0.0017067168
0.0016902011
0.0016738837
0.0016580233
0.001642645
0.0016272641
0.0016118856
0.0015965673
0.0015814682
0.0015666636
0.0015517926
0.0015367871
0.0015217546
0.0015067202
0.0014918391
0.0014769177
0.0014617228
0.0014463887
0.0014308827
0.001415371
0.0013998294
0.0013839227
0.0013676993
0.0013512159
0.0013345104
0.0013176664
0.001300474
0.0012827909
0.0012647146
0.0012462319
0.0012274448
0.0012082356
0.0011883674
0.0011679153
0.0011468764
0.0011253313
0.0011031716
0.0010801455
0.0010562897
0.001031617
0.0010061445
0.00097968938
0.00095204869
0.00092321323
0.00089321549
0.00086189025
0.00082890368
0.00079408602
0.00075740065
0.00071815955
0.00067715077
0.00063709549
0.00059898649
0.00056221734
0.00052629417
0.00049116065
0.0004568283
0.00042327721
0.00039039801
0.0003581589
0.00032663861
0.00029588717
0.00026599463
0.00023701166
0.00020897211
0.00018216205
0.0001566802
0.00013360547
0.00011175613
9.8568502e-05
7.7710005e-05
0.00016130416
-0.00015074481
0.0039532214
0.0039837666
0.0040458823
0.0041237776
0.0042181979
0.0043281419
0.0044523399
0.0045901628
0.0047415152
0.0049067004
0.0050864095
0.0052817976
0.0054945836
0.0057273256
0.0059835548
0.0062688569
0.0065903009
0.0069622022
0.007397647
0.0079479062
0.0086196235
0.0097106349
0.010951462
0.016692782
0.013051294
0.0067491285
0.0052563209
0.004613755
0.0040860184
0.0036980963
0.0034282051
0.0032264244
0.0030587358
0.0029149542
0.0027963983
0.0026988162
0.0026065965
0.0025247916
0.002455957
0.0023929508
0.0023362413
0.0022852071
0.0022386747
0.0021955719
0.0021567727
0.0021200859
0.0020862131
0.0020548575
0.0020246287
0.0019963009
0.0019698995
0.0019444825
0.0019199497
0.001896888
0.0018750604
0.0018537589
0.00183309
0.0018134572
0.0017946623
0.0017760946
0.001757885
0.0017402778
0.0017233698
0.0017067277
0.0016902113
0.0016738934
0.0016580325
0.0016426538
0.0016272725
0.0016118935
0.0015965748
0.0015814754
0.0015666704
0.0015517991
0.0015367933
0.0015217606
0.0015067259
0.0014918445
0.0014769229
0.0014617277
0.0014463934
0.0014308872
0.0014153753
0.0013998335
0.0013839266
0.0013677031
0.0013512195
0.0013345139
0.0013176697
0.0013004771
0.001282794
0.0012647175
0.0012462346
0.0012274475
0.0012082381
0.0011883698
0.0011679177
0.0011468787
0.0011253335
0.0011031736
0.0010801474
0.0010562916
0.0010316188
0.0010061462
0.00097969099
0.00095205022
0.00092321469
0.00089321688
0.00086189157
0.00082890493
0.00079408721
0.00075740178
0.00071816061
0.00067715177
0.00063709644
0.0005989874
0.00056221819
0.00052629498
0.00049116142
0.00045682903
0.00042327791
0.00039039867
0.00035815954
0.00032663922
0.00029588775
0.00026599519
0.0002370122
0.00020897263
0.00018216255
0.00015668068
0.00013360593
0.00011175657
9.8568933e-05
7.7710404e-05
0.00016130464
-0.00015074451
0.0039532214
0.0039837666
0.0040458823
0.0041237776
0.0042181979
0.0043281419
0.0044523399
0.0045901629
0.0047415152
0.0049067004
0.0050864095
0.0052817976
0.0054945837
0.0057273256
0.0059835548
0.0062688569
0.0065903009
0.0069622022
0.007397647
0.0079479061
0.0086196232
0.0097106333
0.010951465
0.016691074
0.013058987
0.0067537436
0.0052576941
0.0046144089
0.004086439
0.003698417
0.0034284634
0.0032266359
0.0030589116
0.0029151026
0.0027965253
0.0026989262
0.0026066928
0.0025248766
0.0024560326
0.0023930185
0.0023363023
0.0022852623
0.0022387248
0.0021956177
0.0021568147
0.0021201245
0.0020862487
0.0020548905
0.0020246593
0.0019963293
0.001969926
0.0019445072
0.0019199728
0.0018969097
0.0018750807
0.0018537779
0.0018331079
0.0018134741
0.0017946782
0.0017761096
0.0017578992
0.0017402912
0.0017233825
0.0017067397
0.0016902227
0.0016739042
0.0016580427
0.0016426635
0.0016272817
0.0016119023
0.0015965832
0.0015814834
0.001566678
0.0015518063
0.0015368002
0.0015217671
0.0015067322
0.0014918504
0.0014769286
0.0014617331
0.0014463986
0.0014308922
0.00141538
0.0013998381
0.001383931
0.0013677072
0.0013512235
0.0013345177
0.0013176733
0.0013004806
0.0012827973
0.0012647207
0.0012462377
0.0012274504
0.0012082409
0.0011883725
0.0011679202
0.0011468811
0.0011253358
0.0011031759
0.0010801496
0.0010562936
0.0010316207
0.0010061481
0.00097969277
0.00095205193
0.00092321632
0.00089321842
0.00086189304
0.00082890632
0.00079408853
0.00075740302
0.00071816179
0.00067715289
0.0006370975
0.0005989884
0.00056221914
0.00052629588
0.00049116228
0.00045682985
0.00042327868
0.00039039942
0.00035816025
0.0003266399
0.0002958884
0.00026599581
0.00023701279
0.00020897319
0.00018216309
0.0001566812
0.00013360643
0.00011175706
9.8569408e-05
7.7710844e-05
0.00016130518
-0.00015074417
0.0039532214
0.0039837666
0.0040458823
0.0041237776
0.0042181979
0.0043281419
0.0044523399
0.0045901629
0.0047415152
0.0049067004
0.0050864095
0.0052817976
0.0054945837
0.0057273257
0.0059835549
0.006268857
0.0065903009
0.0069622022
0.0073976469
0.0079479058
0.0086196229
0.0097106312
0.010951468
0.016689234
0.013066367
0.0067593318
0.0052593174
0.0046151644
0.0040869147
0.0036987768
0.0034287524
0.0032268723
0.0030591078
0.0029152681
0.0027966668
0.0026990486
0.0026067998
0.002524971
0.0024561165
0.0023930935
0.0023363699
0.0022853234
0.0022387804
0.0021956684
0.0021568612
0.0021201672
0.0020862881
0.0020549269
0.002024693
0.0019963606
0.0019699552
0.0019445344
0.0019199982
0.0018969335
0.001875103
0.0018537989
0.0018331276
0.0018134926
0.0017946957
0.0017761261
0.0017579147
0.0017403059
0.0017233964
0.0017067528
0.0016902352
0.0016739161
0.001658054
0.0016426742
0.0016272919
0.001611912
0.0015965924
0.0015814921
0.0015666863
0.0015518142
0.0015368078
0.0015217744
0.001506739
0.001491857
0.0014769349
0.0014617391
0.0014464043
0.0014308976
0.0014153853
0.0013998431
0.0013839358
0.0013677118
0.0013512279
0.0013345219
0.0013176773
0.0013004845
0.001282801
0.0012647242
0.0012462411
0.0012274536
0.001208244
0.0011883755
0.0011679231
0.0011468838
0.0011253384
0.0011031784
0.001080152
0.0010562959
0.0010316229
0.0010061501
0.00097969474
0.00095205381
0.0009232181
0.00089322012
0.00086189466
0.00082890786
0.00079408998
0.0007574044
0.00071816309
0.00067715412
0.00063709866
0.0005989895
0.00056222018
0.00052629687
0.00049116322
0.00045683075
0.00042327954
0.00039040023
0.00035816103
0.00032664064
0.00029588911
0.00026599649
0.00023701344
0.00020897382
0.00018216369
0.00015668178
0.00013360698
0.00011175759
9.8569927e-05
7.7711324e-05
0.00016130576
-0.00015074381
0.0039532214
0.0039837666
0.0040458823
0.0041237776
0.0042181979
0.0043281419
0.0044523399
0.0045901629
0.0047415152
0.0049067005
0.0050864095
0.0052817977
0.0054945837
0.0057273257
0.0059835549
0.006268857
0.0065903009
0.0069622022
0.0073976468
0.0079479055
0.0086196224
0.0097106285
0.010951473
0.01668718
0.013073451
0.0067660236
0.0052612352
0.0046160407
0.0040874545
0.0036991812
0.0034290764
0.0032271369
0.0030593272
0.0029154529
0.0027968246
0.0026991851
0.0026069191
0.0025250761
0.0024562098
0.002393177
0.0023364449
0.0022853913
0.0022388421
0.0021957247
0.0021569127
0.0021202145
0.0020863317
0.0020549672
0.0020247303
0.0019963953
0.0019699874
0.0019445645
0.0019200263
0.0018969598
0.0018751276
0.001853822
0.0018331494
0.0018135131
0.0017947149
0.0017761442
0.0017579319
0.0017403221
0.0017234117
0.0017067674
0.0016902489
0.0016739291
0.0016580663
0.001642686
0.001627303
0.0016119226
0.0015966025
0.0015815017
0.0015666954
0.001551823
0.0015368161
0.0015217823
0.0015067466
0.0014918642
0.0014769418
0.0014617457
0.0014464106
0.0014309037
0.001415391
0.0013998486
0.001383941
0.0013677169
0.0013512327
0.0013345265
0.0013176818
0.0013004887
0.001282805
0.0012647281
0.0012462448
0.0012274572
0.0012082474
0.0011883787
0.0011679262
0.0011468868
0.0011253413
0.0011031811
0.0010801546
0.0010562984
0.0010316253
0.0010061524
0.00097969691
0.00095205587
0.00092322007
0.000893222
0.00086189643
0.00082890955
0.00079409158
0.00075740591
0.00071816453
0.00067715547
0.00063709994
0.0005989907
0.00056222132
0.00052629795
0.00049116425
0.00045683173
0.00042328047
0.00039040112
0.00035816188
0.00032664145
0.00029588988
0.00026599723
0.00023701415
0.00020897449
0.00018216434
0.0001566824
0.00013360758
0.00011175817
9.8570492e-05
7.7711846e-05
0.0001613064
-0.00015074341
0.0039532214
0.0039837666
0.0040458823
0.0041237776
0.004218198
0.0043281419
0.0044523399
0.0045901629
0.0047415153
0.0049067005
0.0050864096
0.0052817977
0.0054945837
0.0057273257
0.0059835549
0.006268857
0.006590301
0.0069622022
0.0073976467
0.0079479051
0.0086196217
0.0097106251
0.010951478
0.016684805
0.013079897
0.0067738045
0.0052635032
0.0046170624
0.0040880699
0.0036996376
0.0034294407
0.003227434
0.0030595733
0.0029156599
0.0027970012
0.0026993377
0.0026070523
0.0025251933
0.0024563138
0.00239327
0.0023365285
0.0022854668
0.0022389106
0.0021957872
0.0021569699
0.002120267
0.0020863801
0.0020550119
0.0020247717
0.0019964337
0.0019700232
0.0019445978
0.0019200574
0.0018969889
0.0018751549
0.0018538476
0.0018331734
0.0018135357
0.0017947362
0.0017761643
0.0017579508
0.00174034
0.0017234286
0.0017067834
0.0016902641
0.0016739435
0.00165808
0.0016426989
0.0016273153
0.0016119343
0.0015966136
0.0015815123
0.0015667055
0.0015518326
0.0015368252
0.001521791
0.0015067549
0.0014918722
0.0014769494
0.001461753
0.0014464175
0.0014309103
0.0014153974
0.0013998546
0.0013839468
0.0013677224
0.001351238
0.0013345316
0.0013176866
0.0013004934
0.0012828095
0.0012647323
0.0012462489
0.0012274611
0.0012082512
0.0011883823
0.0011679296
0.0011468901
0.0011253444
0.0011031841
0.0010801575
0.0010563011
0.0010316279
0.0010061549
0.0009796993
0.00095205815
0.00092322224
0.00089322406
0.0008618984
0.00082891141
0.00079409334
0.00075740758
0.0007181661
0.00067715695
0.00063710134
0.00059899203
0.00056222258
0.00052629915
0.00049116538
0.0004568328
0.0004232815
0.0003904021
0.00035816281
0.00032664234
0.00029589073
0.00026599804
0.00023701492
0.00020897524
0.00018216505
0.00015668308
0.00013360824
0.0001117588
9.857111e-05
7.7712417e-05
0.00016130709
-0.00015074298
0.0039532214
0.0039837666
0.0040458823
0.0041237776
0.004218198
0.0043281419
0.0044523399
0.0045901629
0.0047415153
0.0049067005
0.0050864096
0.0052817977
0.0054945838
0.0057273258
0.005983555
0.0062688571
0.006590301
0.0069622021
0.0073976465
0.0079479045
0.0086196208
0.0097106207
0.010951485
0.016681976
0.013084704
0.0067827863
0.0052661901
0.0046182603
0.0040887753
0.0037001547
0.003429852
0.0032277689
0.0030598503
0.0029158926
0.0027971995
0.0026995088
0.0026072015
0.0025253246
0.0024564303
0.0023933739
0.0023366219
0.0022855511
0.0022389871
0.0021958569
0.0021570337
0.0021203256
0.0020864339
0.0020550617
0.0020248178
0.0019964764
0.0019700629
0.0019446349
0.001920092
0.0018970212
0.0018751851
0.0018538759
0.0018332
0.0018135607
0.0017947598
0.0017761865
0.0017579718
0.0017403598
0.0017234474
0.0017068011
0.0016902809
0.0016739594
0.0016580951
0.0016427132
0.0016273289
0.0016119472
0.0015966259
0.001581524
0.0015667167
0.0015518432
0.0015368354
0.0015218007
0.0015067642
0.001491881
0.0014769578
0.001461761
0.0014464252
0.0014309176
0.0014154044
0.0013998613
0.0013839533
0.0013677286
0.0013512439
0.0013345372
0.001317692
0.0013004985
0.0012828144
0.0012647371
0.0012462534
0.0012274654
0.0012082554
0.0011883863
0.0011679334
0.0011468938
0.0011253479
0.0011031874
0.0010801606
0.0010563042
0.0010316308
0.0010061577
0.00097970195
0.00095206068
0.00092322464
0.00089322635
0.00086190057
0.00082891347
0.0007940953
0.00075740943
0.00071816784
0.0006771586
0.00063710289
0.0005989935
0.00056222397
0.00052630046
0.00049116663
0.00045683399
0.00042328262
0.00039040317
0.00035816383
0.00032664331
0.00029589166
0.00026599893
0.00023701577
0.00020897605
0.00018216584
0.00015668383
0.00013360896
0.00011175949
9.8571787e-05
7.7713042e-05
0.00016130785
-0.0001507425
0.0039532214
0.0039837666
0.0040458823
0.0041237776
0.004218198
0.004328142
0.0044523399
0.0045901629
0.0047415153
0.0049067006
0.0050864096
0.0052817978
0.0054945838
0.0057273258
0.005983555
0.0062688571
0.006590301
0.006962202
0.0073976463
0.0079479038
0.0086196197
0.0097106151
0.010951493
0.016678553
0.013087312
0.0067931114
0.0052693783
0.0046196723
0.0040895884
0.0037007432
0.003430318
0.0032281477
0.0030601632
0.0029161553
0.0027974231
0.0026997015
0.0026073695
0.0025254722
0.0024565611
0.0023934906
0.0023367266
0.0022856457
0.0022390729
0.002195935
0.002157105
0.002120391
0.0020864942
0.0020551173
0.0020248692
0.0019965242
0.0019701073
0.0019446762
0.0019201305
0.0018970572
0.0018752189
0.0018539076
0.0018332297
0.0018135886
0.0017947861
0.0017762113
0.0017579952
0.0017403819
0.0017234682
0.0017068208
0.0016902996
0.0016739771
0.0016581119
0.0016427292
0.0016273441
0.0016119616
0.0015966396
0.0015815371
0.0015667291
0.001551855
0.0015368466
0.0015218114
0.0015067744
0.0014918908
0.0014769671
0.0014617699
0.0014464337
0.0014309258
0.0014154122
0.0013998688
0.0013839604
0.0013677354
0.0013512504
0.0013345435
0.001317698
0.0013005043
0.0012828199
0.0012647423
0.0012462585
0.0012274703
0.00120826
0.0011883908
0.0011679377
0.0011468978
0.0011253518
0.0011031912
0.0010801642
0.0010563076
0.001031634
0.0010061608
0.00097970489
0.00095206348
0.00092322731
0.00089322888
0.00086190298
0.00082891575
0.00079409746
0.00075741148
0.00071816978
0.00067716042
0.00063710462
0.00059899512
0.00056222551
0.00052630192
0.00049116801
0.0004568353
0.00042328387
0.00039040436
0.00035816496
0.00032664439
0.00029589269
0.00026599991
0.00023701671
0.00020897695
0.0001821667
0.00015668466
0.00013360976
0.00011176025
9.8572533e-05
7.7713731e-05
0.00016130869
-0.00015074198
0.0039532214
0.0039837666
0.0040458823
0.0041237777
0.004218198
0.004328142
0.00445234
0.004590163
0.0047415153
0.0049067006
0.0050864097
0.0052817978
0.0054945839
0.0057273259
0.0059835551
0.0062688571
0.006590301
0.0069622019
0.0073976459
0.0079479027
0.0086196182
0.0097106078
0.010951504
0.016674364
0.01308847
0.0068049328
0.0052731611
0.0046213453
0.0040905315
0.0037014163
0.003430848
0.0032285778
0.0030605181
0.0029164527
0.002797676
0.0026999194
0.0026075591
0.0025256388
0.0024567085
0.0023936221
0.0023368446
0.002285752
0.0022391693
0.0021960227
0.0021571852
0.0021204646
0.0020865619
0.0020551797
0.0020249269
0.0019965777
0.001970157
0.0019447225
0.0019201737
0.0018970976
0.0018752566
0.001853943
0.0018332629
0.0018136199
0.0017948155
0.001776239
0.0017580213
0.0017404065
0.0017234915
0.0017068429
0.0016903204
0.0016739969
0.0016581306
0.001642747
0.001627361
0.0016119776
0.0015966549
0.0015815516
0.0015667429
0.0015518682
0.0015368592
0.0015218234
0.0015067858
0.0014919017
0.0014769776
0.0014617799
0.0014464433
0.0014309349
0.0014154209
0.0013998771
0.0013839684
0.001367743
0.0013512577
0.0013345505
0.0013177047
0.0013005107
0.0012828261
0.0012647482
0.0012462641
0.0012274757
0.0012082651
0.0011883957
0.0011679424
0.0011469023
0.0011253561
0.0011031953
0.0010801681
0.0010563113
0.0010316377
0.0010061642
0.00097970818
0.00095206661
0.00092323029
0.00089323171
0.00086190567
0.0008289183
0.00079409988
0.00075741376
0.00071817193
0.00067716246
0.00063710653
0.00059899693
0.00056222722
0.00052630354
0.00049116955
0.00045683676
0.00042328526
0.00039040568
0.00035816622
0.00032664559
0.00029589383
0.000266001
0.00023701775
0.00020897795
0.00018216765
0.00015668557
0.00013361064
0.00011176109
9.8573357e-05
7.7714493e-05
0.00016130961
-0.0001507414
0.0039532214
0.0039837667
0.0040458824
0.0041237777
0.004218198
0.004328142
0.00445234
0.004590163
0.0047415154
0.0049067006
0.0050864097
0.0052817979
0.005494584
0.005727326
0.0059835551
0.0062688571
0.0065903009
0.0069622017
0.0073976454
0.0079479014
0.0086196162
0.0097105984
0.010951516
0.016669204
0.013088834
0.006818362
0.0052776458
0.0046233365
0.0040916318
0.0037021895
0.0034314532
0.0032290678
0.0030609218
0.0029167907
0.0027979631
0.0027001664
0.002607774
0.0025258274
0.0024568754
0.0023937708
0.0023369779
0.0022858722
0.0022392781
0.0021961218
0.0021572757
0.0021205475
0.0020866381
0.00205525
0.0020249919
0.0019966379
0.0019702129
0.0019447745
0.0019202223
0.0018971429
0.0018752991
0.0018539827
0.0018333003
0.0018136549
0.0017948485
0.0017762701
0.0017580506
0.0017404342
0.0017235177
0.0017068676
0.0016903438
0.001674019
0.0016581517
0.0016427669
0.0016273799
0.0016119957
0.001596672
0.0015815679
0.0015667585
0.001551883
0.0015368733
0.0015218369
0.0015067987
0.0014919139
0.0014769892
0.0014617911
0.0014464539
0.0014309451
0.0014154306
0.0013998865
0.0013839773
0.0013677516
0.0013512659
0.0013345583
0.0013177122
0.0013005179
0.001282833
0.0012647548
0.0012462704
0.0012274817
0.0012082709
0.0011884012
0.0011679477
0.0011469074
0.001125361
0.0011031999
0.0010801726
0.0010563156
0.0010316417
0.0010061681
0.00097971185
0.00095207011
0.00092323362
0.00089323488
0.00086190868
0.00082892116
0.00079410258
0.00075741632
0.00071817434
0.00067716473
0.00063710867
0.00059899895
0.00056222912
0.00052630534
0.00049117126
0.00045683839
0.0004232868
0.00039040715
0.00035816762
0.00032664692
0.0002958951
0.00026600222
0.00023701891
0.00020897906
0.00018216871
0.00015668659
0.00013361162
0.00011176203
9.8574274e-05
7.771534e-05
0.00016131064
-0.00015074076
0.0039532214
0.0039837667
0.0040458824
0.0041237777
0.0042181981
0.004328142
0.00445234
0.0045901631
0.0047415154
0.0049067007
0.0050864098
0.005281798
0.005494584
0.005727326
0.0059835552
0.0062688571
0.0065903008
0.0069622014
0.0073976447
0.0079478995
0.0086196135
0.0097105861
0.010951531
0.016662821
0.013088376
0.0068331724
0.0052829529
0.0046257148
0.0040929236
0.0037030823
0.003432147
0.0032296282
0.0030613828
0.0029171762
0.0027982902
0.0027004475
0.0026080184
0.0025260417
0.0024570648
0.0023939395
0.002337129
0.0022860084
0.0022394014
0.0021962339
0.002157378
0.0021206412
0.0020867243
0.0020553294
0.0020250654
0.0019967059
0.0019702761
0.0019448333
0.0019202771
0.0018971941
0.001875347
0.0018540276
0.0018333423
0.0018136945
0.0017948857
0.0017763051
0.0017580836
0.0017404654
0.0017235471
0.0017068954
0.0016903702
0.001674044
0.0016581753
0.0016427894
0.0016274013
0.0016120159
0.0015966913
0.0015815862
0.0015667759
0.0015518996
0.0015368892
0.001521852
0.0015068131
0.0014919277
0.0014770024
0.0014618036
0.001446466
0.0014309566
0.0014154416
0.001399897
0.0013839874
0.0013677612
0.0013512751
0.0013345671
0.0013177207
0.001300526
0.0012828407
0.0012647622
0.0012462775
0.0012274885
0.0012082774
0.0011884075
0.0011679537
0.0011469131
0.0011253664
0.0011032052
0.0010801776
0.0010563203
0.0010316462
0.0010061724
0.00097971599
0.00095207405
0.00092323737
0.00089323844
0.00086191206
0.00082892437
0.00079410562
0.00075741918
0.00071817705
0.00067716728
0.00063711107
0.00059900121
0.00056223126
0.00052630737
0.00049117318
0.00045684021
0.00042328853
0.00039040879
0.00035816918
0.00032664841
0.00029589652
0.00026600357
0.00023702021
0.00020898029
0.0001821699
0.00015668773
0.00013361271
0.00011176308
9.8575297e-05
7.7716285e-05
0.00016131178
-0.00015074004
0.0039532214
0.0039837667
0.0040458824
0.0041237777
0.0042181981
0.0043281421
0.0044523401
0.0045901631
0.0047415155
0.0049067008
0.0050864099
0.0052817981
0.0054945841
0.0057273261
0.0059835552
0.0062688571
0.0065903006
0.0069622009
0.0073976438
0.0079478971
0.0086196101
0.0097105702
0.01095155
0.016654907
0.013087048
0.0068489156
0.0052892137
0.004628562
0.0040944496
0.0037041184
0.0034329454
0.0032302711
0.003061911
0.0029176173
0.002798664
0.0027007685
0.0026082972
0.002526286
0.0024572806
0.0023941315
0.002337301
0.0022861632
0.0022395415
0.0021963612
0.0021574942
0.0021207477
0.0020868221
0.0020554195
0.0020251486
0.0019967831
0.0019703477
0.0019448999
0.0019203391
0.001897252
0.0018754012
0.0018540784
0.00183339
0.0018137392
0.0017949277
0.0017763447
0.001758121
0.0017405006
0.0017235804