/*--------------------------------*- C++ -*----------------------------------*\
  =========                 |
  \\      /  F ield         | OpenFOAM: The Open Source CFD Toolbox
   \\    /   O peration     | Website:  https://openfoam.org
    \\  /    A nd           | Version:  12
     \\/     M anipulation  |
\*---------------------------------------------------------------------------*/
FoamFile
{
    format      ascii;
    class       surfaceScalarField;
    location    "400";
    object      phi;
}
// * * * * * * * * * * * * * * * * * * * * * * * * * * * * * * * * * * * * * //

dimensions      [0 3 -1 0 0 0 0];

internalField   nonuniform List<scalar> 
25880
(
2.0046452e-06
8.9848488e-12
2.0046251e-06
2.0057196e-11
2.0046015e-06
2.3567302e-11
2.0045756e-06
2.5973348e-11
2.0045459e-06
2.9663532e-11
2.004512e-06
3.3941342e-11
2.0044731e-06
3.8850878e-11
2.0044285e-06
4.4640299e-11
2.0043769e-06
5.1527906e-11
2.0043172e-06
5.9755357e-11
2.0042475e-06
6.9645034e-11
2.0041659e-06
8.1677687e-11
2.0040694e-06
9.6491419e-11
2.0039541e-06
1.1522705e-10
2.003815e-06
1.3910481e-10
2.0036433e-06
1.7178839e-10
2.0034288e-06
2.1441423e-10
2.0031439e-06
2.8496383e-10
2.0027748e-06
3.6907537e-10
2.0021837e-06
5.9105191e-10
2.0013896e-06
7.9413212e-10
1.9991908e-06
2.198826e-09
1.9984231e-06
7.6766682e-10
1.0391409e-06
9.592822e-07
6.9115163e-08
9.7002576e-07
5.6789818e-08
1.2325345e-08
5.2116073e-08
4.6737448e-09
4.9064953e-08
3.0511205e-09
4.6789309e-08
2.2756431e-09
4.4953245e-08
1.8360646e-09
4.3430706e-08
1.5225385e-09
4.2153344e-08
1.2773626e-09
4.1065947e-08
1.0873972e-09
4.0126442e-08
9.3950426e-10
3.9304343e-08
8.2209933e-10
3.8576959e-08
7.273836e-10
3.7927118e-08
6.4984148e-10
3.7341947e-08
5.8517127e-10
3.6811184e-08
5.307625e-10
3.6326551e-08
4.8463288e-10
3.5881569e-08
4.4498215e-10
3.547096e-08
4.106095e-10
3.5090346e-08
3.8061321e-10
3.4736077e-08
3.5426965e-10
3.4405112e-08
3.3096474e-10
3.4094862e-08
3.1024976e-10
3.3803109e-08
2.9175361e-10
3.3527979e-08
2.751292e-10
3.3267848e-08
2.6013193e-10
3.3021291e-08
2.4655693e-10
3.2787085e-08
2.3420562e-10
3.2564153e-08
2.2293186e-10
3.2351531e-08
2.1262224e-10
3.2148372e-08
2.0315848e-10
3.1953932e-08
1.9444045e-10
3.1767535e-08
1.8639687e-10
3.1588573e-08
1.7896191e-10
3.1416504e-08
1.7206933e-10
3.125084e-08
1.6566406e-10
3.1091134e-08
1.5970535e-10
3.093698e-08
1.5415469e-10
3.0788005e-08
1.4897457e-10
3.0643875e-08
1.4413004e-10
3.050428e-08
1.3959491e-10
3.0368933e-08
1.3534714e-10
3.0237568e-08
1.3136536e-10
3.010994e-08
1.2762749e-10
2.9985826e-08
1.2411393e-10
2.9865015e-08
1.208113e-10
2.9747308e-08
1.1770652e-10
2.9632521e-08
1.1478707e-10
2.9520481e-08
1.1204021e-10
2.9411027e-08
1.0945389e-10
2.9304007e-08
1.0702015e-10
2.9199276e-08
1.0473165e-10
2.9096695e-08
1.0258062e-10
2.8996135e-08
1.0055995e-10
2.8897473e-08
9.866183e-11
2.8800592e-08
9.6880737e-11
2.8705379e-08
9.5213019e-11
2.8611725e-08
9.3653923e-11
2.8519526e-08
9.219914e-11
2.8428682e-08
9.0843939e-11
2.8339098e-08
8.9584502e-11
2.8250679e-08
8.8418781e-11
2.8163335e-08
8.7344196e-11
2.8076977e-08
8.6358144e-11
2.7991519e-08
8.5458213e-11
2.7906877e-08
8.4641647e-11
2.782297e-08
8.3907069e-11
2.7739716e-08
8.3253734e-11
2.7657036e-08
8.2680241e-11
2.757485e-08
8.218546e-11
2.7493083e-08
8.1767892e-11
2.7411656e-08
8.1426817e-11
2.7330493e-08
8.1162476e-11
2.7249519e-08
8.0974563e-11
2.7168656e-08
8.0862851e-11
2.7087829e-08
8.0826862e-11
2.7006962e-08
8.0866706e-11
2.6925979e-08
8.0983296e-11
2.6844802e-08
8.1177204e-11
2.6763353e-08
8.1448943e-11
2.6681554e-08
8.1798984e-11
2.6599325e-08
8.2228445e-11
2.6516586e-08
8.2738975e-11
2.6433254e-08
8.3331916e-11
2.6349246e-08
8.4008351e-11
2.6264477e-08
8.4769061e-11
2.6178862e-08
8.5614651e-11
2.6092321e-08
8.6541618e-11
2.6004798e-08
8.7522783e-11
2.5916107e-08
8.86906e-11
2.5829775e-08
8.6332545e-11
2.5747769e-08
8.2005471e-11
2.5669817e-08
7.7952527e-11
2.5595625e-08
7.4191496e-11
2.5524906e-08
7.0719055e-11
2.5457405e-08
6.7501155e-11
2.5392905e-08
6.4499993e-11
2.5331218e-08
6.1687066e-11
2.5272175e-08
5.9042949e-11
2.5215621e-08
5.6553968e-11
2.5161412e-08
5.4209649e-11
2.510941e-08
5.200154e-11
2.5059488e-08
4.992206e-11
2.5011522e-08
4.7965523e-11
2.4965398e-08
4.6124486e-11
2.4920996e-08
4.4402432e-11
2.4878222e-08
4.2773637e-11
2.4836896e-08
4.1325803e-11
2.4797097e-08
3.9799046e-11
2.4758027e-08
3.9069761e-11
2.4721773e-08
3.6254055e-11
2.467747e-08
4.4302861e-11
2.7906827e-11
2.0345188e-06
1.8238876e-11
2.0344981e-06
4.0746402e-11
2.0344738e-06
4.7909148e-11
2.0344469e-06
5.2804983e-11
2.0344163e-06
6.0299084e-11
2.0343813e-06
6.8982623e-11
2.0343412e-06
7.8944391e-11
2.0342951e-06
9.0687204e-11
2.034242e-06
1.0465313e-10
2.0341804e-06
1.2133117e-10
2.0341087e-06
1.4137347e-10
2.0340246e-06
1.6575256e-10
2.0339254e-06
1.9575889e-10
2.0338069e-06
2.3370018e-10
2.0336639e-06
2.8204267e-10
2.0334875e-06
3.4819726e-10
2.0332675e-06
4.3445083e-10
2.0329753e-06
5.7717206e-10
2.0325971e-06
7.4725669e-10
2.0319922e-06
1.1959718e-09
2.03118e-06
1.6063377e-09
2.0289334e-06
4.4454201e-09
2.0281369e-06
1.5641581e-09
1.130842e-06
1.8565771e-06
2.0598881e-07
1.894879e-06
1.7104987e-07
4.7264285e-08
1.5721728e-07
1.8506338e-08
1.4820126e-07
1.2067145e-08
1.4146552e-07
9.0113763e-09
1.3601994e-07
7.2816509e-09
1.3149587e-07
6.0466002e-09
1.2769447e-07
5.07877e-09
1.2445433e-07
4.3275373e-09
1.2165194e-07
3.7418926e-09
1.1919751e-07
3.2765245e-09
1.1702409e-07
2.9008111e-09
1.1508101e-07
2.592918e-09
1.1333022e-07
2.3359558e-09
1.1174132e-07
2.119672e-09
1.1028976e-07
1.9361871e-09
1.0895634e-07
1.7783988e-09
1.077254e-07
1.6415578e-09
1.0658392e-07
1.5220916e-09
1.0552106e-07
1.4171293e-09
1.0452777e-07
1.3242525e-09
1.0359636e-07
1.2416626e-09
1.0272021e-07
1.167901e-09
1.0189375e-07
1.1015906e-09
1.0111213e-07
1.0417481e-09
1.0037112e-07
9.8757006e-10
9.9667056e-08
9.3826941e-10
9.8996729e-08
8.9325808e-10
9.8357267e-08
8.52085e-10
9.7746139e-08
8.1428651e-10
9.7161116e-08
7.79463e-10
9.6600188e-08
7.4732533e-10
9.6061536e-08
7.1761339e-10
9.5543538e-08
6.9006748e-10
9.5044734e-08
6.6446748e-10
9.4563793e-08
6.4064676e-10
9.4099494e-08
6.1845383e-10
9.3650728e-08
5.9774072e-10
9.3216489e-08
5.7836922e-10
9.2795851e-08
5.6023277e-10
9.2387955e-08
5.432426e-10
9.1992006e-08
5.2731457e-10
9.1607272e-08
5.1236168e-10
9.1233079e-08
4.9830647e-10
9.0868797e-08
4.8509326e-10
9.0513834e-08
4.7267006e-10
9.0167633e-08
4.6098755e-10
8.9829678e-08
4.4999533e-10
8.9499486e-08
4.3964612e-10
8.91766e-08
4.299067e-10
8.8860584e-08
4.2074742e-10
8.8551026e-08
4.1213821e-10
8.8247536e-08
4.0405039e-10
8.7949744e-08
3.9645374e-10
8.7657299e-08
3.8932577e-10
8.7369861e-08
3.8265072e-10
8.7087104e-08
3.7641063e-10
8.6808715e-08
3.7058803e-10
8.6534395e-08
3.6516462e-10
8.6263854e-08
3.6012548e-10
8.5996811e-08
3.5546124e-10
8.5732994e-08
3.5116191e-10
8.5472134e-08
3.4721752e-10
8.5213974e-08
3.4361836e-10
8.4958262e-08
3.4035395e-10
8.470475e-08
3.3741842e-10
8.4453196e-08
3.3480833e-10
8.4203357e-08
3.3251867e-10
8.3954998e-08
3.3054483e-10
8.3707885e-08
3.2888128e-10
8.3461786e-08
3.2752513e-10
8.3216472e-08
3.2647677e-10
8.2971711e-08
3.2573541e-10
8.2727274e-08
3.2530024e-10
8.2482931e-08
3.2516968e-10
8.2238453e-08
3.2534424e-10
8.199361e-08
3.2582715e-10
8.1748166e-08
3.2662102e-10
8.1501887e-08
3.2772812e-10
8.1254535e-08
3.291506e-10
8.1005871e-08
3.3089291e-10
8.0755648e-08
3.329615e-10
8.0503618e-08
3.3536202e-10
8.0249527e-08
3.3809914e-10
7.999312e-08
3.4117608e-10
7.973414e-08
3.4459515e-10
7.9472339e-08
3.483424e-10
7.9207553e-08
3.5230907e-10
7.8939217e-08
3.5702646e-10
7.8678001e-08
3.4754781e-10
7.8429866e-08
3.3014142e-10
7.819398e-08
3.1383784e-10
7.7969464e-08
2.9870778e-10
7.7755445e-08
2.8473779e-10
7.7551155e-08
2.7179135e-10
7.7355938e-08
2.5971666e-10
7.7169226e-08
2.4839917e-10
7.6990508e-08
2.3776068e-10
7.6819316e-08
2.277461e-10
7.6655213e-08
2.1831335e-10
7.6497786e-08
2.094284e-10
7.6346647e-08
2.010608e-10
7.6201425e-08
1.9318768e-10
7.606177e-08
1.8577898e-10
7.5927324e-08
1.7884894e-10
7.5797804e-08
1.7229366e-10
7.5672662e-08
1.6646733e-10
7.5552141e-08
1.6032051e-10
7.5433819e-08
1.5739117e-10
7.5324055e-08
1.460185e-10
7.5189742e-08
1.7861624e-10
1.12233e-10
2.0947114e-06
2.7937163e-11
2.0946897e-06
6.2473299e-11
2.0946641e-06
7.3517611e-11
2.0946358e-06
8.1039563e-11
2.0946036e-06
9.2525809e-11
2.0945667e-06
1.0582791e-10
2.0945246e-06
1.2108047e-10
2.0944762e-06
1.3905202e-10
2.0944205e-06
1.6041783e-10
2.0943559e-06
1.8592421e-10
2.0942807e-06
2.1656605e-10
2.0941926e-06
2.5382699e-10
2.0940887e-06
2.9967503e-10
2.0939648e-06
3.5763074e-10
2.0938154e-06
4.3145226e-10
2.0936311e-06
5.3244586e-10
2.0934015e-06
6.6407562e-10
2.0930968e-06
8.8182319e-10
2.0927029e-06
1.1411672e-09
2.0920737e-06
1.8251998e-09
2.0912298e-06
2.4502487e-09
2.0888977e-06
6.777511e-09
2.088061e-06
2.4008681e-09
1.2353447e-06
2.7092934e-06
3.3866246e-07
2.7915612e-06
2.8205662e-07
1.0387013e-07
2.6005061e-07
4.0512353e-08
2.4588693e-07
2.6230821e-08
2.3529767e-07
1.9600637e-08
2.2670665e-07
1.5872673e-08
2.1954359e-07
1.3209659e-08
2.1350587e-07
1.1116485e-08
2.0834599e-07
9.4874168e-09
2.0387303e-07
8.214853e-09
1.9994757e-07
7.2019917e-09
1.9646521e-07
6.3831678e-09
1.9334689e-07
5.711239e-09
1.9053307e-07
5.149775e-09
1.87976e-07
4.6767435e-09
1.8563712e-07
4.2750683e-09
1.8348616e-07
3.9293539e-09
1.8149842e-07
3.629303e-09
1.7965335e-07
3.367158e-09
1.779338e-07
3.1366804e-09
1.7632543e-07
2.9326219e-09
1.7481604e-07
2.7510481e-09
1.7339514e-07
2.5888023e-09
1.7205386e-07
2.4428759e-09
1.707845e-07
2.3111105e-09
1.695803e-07
2.1917689e-09
1.6843544e-07
2.0831308e-09
1.6734479e-07
1.9839001e-09
1.6630378e-07
1.8930949e-09
1.6530836e-07
1.8097079e-09
1.6435496e-07
1.7328607e-09
1.6344038e-07
1.6619144e-09
1.6256169e-07
1.5963027e-09
1.6171629e-07
1.5354611e-09
1.6090186e-07
1.4789044e-09
1.6011624e-07
1.4262625e-09
1.5935749e-07
1.3772056e-09
1.5862382e-07
1.3314116e-09
1.5791361e-07
1.2885775e-09
1.5722538e-07
1.2484655e-09
1.5655774e-07
1.210881e-09
1.5590941e-07
1.1756397e-09
1.5527922e-07
1.1425528e-09
1.5466608e-07
1.1114498e-09
1.5406897e-07
1.0822049e-09
1.5348693e-07
1.0547049e-09
1.5291908e-07
1.0288419e-09
1.5236457e-07
1.004506e-09
1.5182262e-07
9.8159379e-10
1.512925e-07
9.6002965e-10
1.5077349e-07
9.3974877e-10
1.5026495e-07
9.2068584e-10
1.4976622e-07
9.0277782e-10
1.4927671e-07
8.8595918e-10
1.4879586e-07
8.7017929e-10
1.4832311e-07
8.5540265e-10
1.4785793e-07
8.4159088e-10
1.4739981e-07
8.2870534e-10
1.4694827e-07
8.1670672e-10
1.4650283e-07
8.0556213e-10
1.4606304e-07
7.952496e-10
1.4562846e-07
7.8574797e-10
1.4519864e-07
7.770357e-10
1.4477317e-07
7.6909168e-10
1.4435163e-07
7.6189345e-10
1.4393362e-07
7.5542742e-10
1.4351874e-07
7.4968598e-10
1.431066e-07
7.4465891e-10
1.4269681e-07
7.4033624e-10
1.4228898e-07
7.3670649e-10
1.4188275e-07
7.3376322e-10
1.4147771e-07
7.3150704e-10
1.4107351e-07
7.2993704e-10
1.4066976e-07
7.290518e-10
1.4026608e-07
7.288486e-10
1.398621e-07
7.293287e-10
1.3945743e-07
7.3049919e-10
1.3905168e-07
7.3236667e-10
1.3864447e-07
7.3493674e-10
1.3823541e-07
7.3821489e-10
1.3782409e-07
7.4221121e-10
1.3741011e-07
7.4694036e-10
1.3699306e-07
7.5241568e-10
1.3657251e-07
7.586484e-10
1.3614804e-07
7.6564614e-10
1.3571922e-07
7.7341424e-10
1.3528564e-07
7.8192188e-10
1.3484702e-07
7.9092691e-10
1.3440243e-07
8.0161485e-10
1.3396957e-07
7.8041538e-10
1.335583e-07
7.4140221e-10
1.3316729e-07
7.0485665e-10
1.3279506e-07
6.7093757e-10
1.3244018e-07
6.3961556e-10
1.3210138e-07
6.1058552e-10
1.3177759e-07
5.8350783e-10
1.3146787e-07
5.5812613e-10
1.3117136e-07
5.3426523e-10
1.3088731e-07
5.118018e-10
1.3061498e-07
4.9064173e-10
1.303537e-07
4.7070889e-10
1.3010282e-07
4.519352e-10
1.2986174e-07
4.3426956e-10
1.2962987e-07
4.176446e-10
1.2940663e-07
4.0209287e-10
1.2919154e-07
3.8738058e-10
1.2898371e-07
3.7430596e-10
1.2878352e-07
3.6050561e-10
1.2858696e-07
3.5394646e-10
1.2840463e-07
3.2835692e-10
1.2818137e-07
4.0187414e-10
2.5221459e-10
2.1861199e-06
3.8272325e-11
2.1860967e-06
8.568688e-11
2.1860693e-06
1.0094031e-10
2.186039e-06
1.1128429e-10
2.1860045e-06
1.270333e-10
2.1859651e-06
1.4526036e-10
2.18592e-06
1.6614755e-10
2.1858683e-06
1.9074508e-10
2.1858087e-06
2.1997517e-10
2.1857398e-06
2.5485599e-10
2.1856596e-06
2.9674406e-10
2.1855658e-06
3.4766248e-10
2.1854552e-06
4.1029357e-10
2.1853234e-06
4.8943788e-10
2.1851646e-06
5.9021293e-10
2.184969e-06
7.2803643e-10
2.1847255e-06
9.0759189e-10
2.1844028e-06
1.2045321e-09
2.183986e-06
1.5579522e-09
2.1833213e-06
2.4898741e-09
2.1824311e-06
3.3405302e-09
2.1799739e-06
9.2347045e-09
2.1790798e-06
3.294891e-09
1.3529134e-06
3.5354598e-06
4.6537326e-07
3.6791014e-06
3.8654009e-07
1.8270329e-07
3.5730457e-07
6.9747873e-08
3.3893473e-07
4.4600661e-08
3.2525707e-07
3.3278298e-08
3.141422e-07
2.698754e-08
3.0484991e-07
2.2501952e-08
2.9699806e-07
1.8968337e-08
2.9027346e-07
1.6212013e-08
2.8443304e-07
1.4055271e-08
2.7929869e-07
1.233634e-08
2.7473671e-07
1.0945147e-08
2.7064568e-07
9.8022685e-09
2.6694922e-07
8.8462409e-09
2.6358588e-07
8.0400767e-09
2.6050599e-07
7.3549652e-09
2.5767049e-07
6.76485e-09
2.5504748e-07
6.2523141e-09
2.5261041e-07
5.8042239e-09
2.5033708e-07
5.4100148e-09
2.4820891e-07
5.0607927e-09
2.4621009e-07
4.7498655e-09
2.4432699e-07
4.4719023e-09
2.4254809e-07
4.2217777e-09
2.4086339e-07
3.9958096e-09
2.3926409e-07
3.7910663e-09
2.3774261e-07
3.6046157e-09
2.3629227e-07
3.4342373e-09
2.349071e-07
3.2782673e-09
2.3358181e-07
3.1349974e-09
2.3231175e-07
3.0029227e-09
2.3109271e-07
2.8809473e-09
2.2992091e-07
2.7681115e-09
2.2879291e-07
2.6634566e-09
2.2770566e-07
2.5661494e-09
2.2665637e-07
2.4755524e-09
2.2564247e-07
2.3911062e-09
2.2466162e-07
2.3122642e-09
2.2371169e-07
2.2385072e-09
2.2279073e-07
2.1694239e-09
2.2189693e-07
2.104682e-09
2.210286e-07
2.0439682e-09
2.201842e-07
1.9869614e-09
2.1936228e-07
1.933369e-09
2.1856151e-07
1.8829713e-09
2.1778064e-07
1.8355766e-09
2.1701848e-07
1.7910006e-09
2.1627393e-07
1.7490567e-09
2.1554596e-07
1.7095674e-09
2.1483358e-07
1.6724004e-09
2.1413589e-07
1.6374454e-09
2.1345198e-07
1.6045917e-09
2.1278103e-07
1.5737315e-09
2.1212223e-07
1.5447533e-09
2.1147484e-07
1.5175689e-09
2.1083813e-07
1.4921168e-09
2.1021139e-07
1.4683326e-09
2.0959394e-07
1.4461502e-09
2.0898515e-07
1.4255033e-09
2.0838437e-07
1.4063354e-09
2.0779102e-07
1.3886073e-09
2.0720448e-07
1.3722839e-09
2.0662419e-07
1.3573292e-09
2.0604957e-07
1.3437074e-09
2.0548008e-07
1.3313808e-09
2.0491519e-07
1.3203253e-09
2.0435434e-07
1.3105282e-09
2.0379703e-07
1.3019732e-09
2.0324272e-07
1.2946438e-09
2.0269091e-07
1.2885212e-09
2.0214108e-07
1.2835945e-09
2.0159272e-07
1.2798648e-09
2.0104532e-07
1.2773319e-09
2.0049838e-07
1.2759944e-09
1.9995138e-07
1.2758486e-09
1.9940381e-07
1.2768973e-09
1.9885516e-07
1.2791532e-09
1.983049e-07
1.2826289e-09
1.977525e-07
1.2873355e-09
1.9719743e-07
1.2932837e-09
1.9663915e-07
1.3004917e-09
1.960771e-07
1.308986e-09
1.9551073e-07
1.3187911e-09
1.9493945e-07
1.3299282e-09
1.9436268e-07
1.3424115e-09
1.9377984e-07
1.3562512e-09
1.9319037e-07
1.371394e-09
1.9259388e-07
1.3874199e-09
1.9198911e-07
1.4063883e-09
1.9140015e-07
1.3693713e-09
1.9084049e-07
1.3010641e-09
1.9030828e-07
1.2370673e-09
1.8980155e-07
1.1776626e-09
1.8931837e-07
1.1227998e-09
1.8885701e-07
1.0719458e-09
1.8841601e-07
1.0245067e-09
1.879941e-07
9.8003438e-10
1.8759014e-07
9.3822264e-10
1.8720309e-07
8.9885594e-10
1.8683196e-07
8.6176993e-10
1.8647584e-07
8.2683165e-10
1.8613385e-07
7.9392222e-10
1.8580517e-07
7.6295251e-10
1.8548901e-07
7.3380459e-10
1.8518456e-07
7.0653679e-10
1.8489121e-07
6.8073799e-10
1.846077e-07
6.5781499e-10
1.843346e-07
6.3360702e-10
1.8406641e-07
6.2213772e-10
1.8381759e-07
5.7717305e-10
1.8351285e-07
7.066181e-10
4.4318115e-10
2.3101065e-06
4.9460935e-11
2.3100813e-06
1.1089654e-10
2.3100514e-06
1.3080324e-10
2.3100185e-06
1.4423417e-10
2.3099809e-06
1.6461008e-10
2.309938e-06
1.8817423e-10
2.309889e-06
2.1515833e-10
2.3098328e-06
2.4691576e-10
2.3097681e-06
2.8463416e-10
2.3096934e-06
3.2962304e-10
2.3096065e-06
3.8362607e-10
2.3095049e-06
4.4924374e-10
2.3093853e-06
5.2992223e-10
2.3092429e-06
6.3183216e-10
2.3090716e-06
7.6154121e-10
2.3088607e-06
9.388687e-10
2.3085985e-06
1.1697751e-09
2.3082516e-06
1.5515047e-09
2.307804e-06
2.005478e-09
2.3070917e-06
3.2021828e-09
2.3061391e-06
4.2931529e-09
2.3035139e-06
1.1859892e-08
2.3025432e-06
4.2655945e-09
1.4877508e-06
4.3502522e-06
5.9240683e-07
4.5744454e-06
4.8944019e-07
2.8566993e-07
4.5295303e-07
1.0623503e-07
4.3065336e-07
6.690033e-08
4.1417961e-07
4.9752044e-08
4.0080128e-07
4.0365875e-08
3.8960505e-07
3.3698175e-08
3.8013385e-07
2.8439544e-08
3.7201464e-07
2.4331221e-08
3.6495692e-07
2.1112994e-08
3.5874744e-07
1.8545814e-08
3.5322596e-07
1.6466631e-08
3.4827086e-07
1.475737e-08
3.4379061e-07
1.3326488e-08
3.3971153e-07
1.2119157e-08
3.3597393e-07
1.1092567e-08
3.3253091e-07
1.0207864e-08
3.2934414e-07
9.4390906e-09
3.263817e-07
8.7666626e-09
3.2361688e-07
8.174832e-09
3.2102735e-07
7.6503236e-09
3.1859409e-07
7.1831308e-09
3.1630066e-07
6.765329e-09
3.141332e-07
6.3892396e-09
3.1207966e-07
6.0493448e-09
3.1012944e-07
5.7412911e-09
3.0827337e-07
5.4606848e-09
3.0650342e-07
5.2041863e-09
3.0481237e-07
4.9693179e-09
3.0319383e-07
4.7535318e-09
3.0164219e-07
4.5545637e-09
3.0015238e-07
4.3707646e-09
2.9871978e-07
4.2007056e-09
2.9734028e-07
4.0429555e-09
2.9601017e-07
3.8962578e-09
2.9472608e-07
3.7596502e-09
2.9348488e-07
3.6322996e-09
2.9228376e-07
3.5133903e-09
2.9112012e-07
3.4021415e-09
2.8999162e-07
3.2979296e-09
2.8889604e-07
3.2002568e-09
2.8783136e-07
3.1086552e-09
2.8679567e-07
3.0226453e-09
2.8578725e-07
2.9417861e-09
2.8480448e-07
2.8657423e-09
2.8384583e-07
2.7942279e-09
2.8290986e-07
2.7269677e-09
2.8199524e-07
2.6636826e-09
2.811007e-07
2.6041055e-09
2.8022507e-07
2.5480338e-09
2.7936721e-07
2.4953025e-09
2.7852606e-07
2.445747e-09
2.7770058e-07
2.3992057e-09
2.7688982e-07
2.3555117e-09
2.7609286e-07
2.3145304e-09
2.7530881e-07
2.2761684e-09
2.7453681e-07
2.2403308e-09
2.7377604e-07
2.2069188e-09
2.7302571e-07
2.1758338e-09
2.7228506e-07
2.14699e-09
2.7155334e-07
2.1203273e-09
2.7082983e-07
2.0957943e-09
2.7011382e-07
2.0733378e-09
2.6940462e-07
2.0529048e-09
2.6870156e-07
2.0344391e-09
2.6800398e-07
2.0179041e-09
2.6731123e-07
2.0032808e-09
2.6662266e-07
1.9905463e-09
2.6593763e-07
1.9796768e-09
2.652555e-07
1.9706451e-09
2.6457566e-07
1.963435e-09
2.6389748e-07
1.9580484e-09
2.6322032e-07
1.9544867e-09
2.6254357e-07
1.9527491e-09
2.6186658e-07
1.9528318e-09
2.6118874e-07
1.9547394e-09
2.605094e-07
1.9584918e-09
2.5982792e-07
1.9641102e-09
2.5914364e-07
1.9716131e-09
2.5845591e-07
1.9810183e-09
2.5776405e-07
1.9923546e-09
2.5706737e-07
2.0056634e-09
2.5636518e-07
2.0209845e-09
2.5565675e-07
2.0383522e-09
2.5494137e-07
2.0577894e-09
2.5421831e-07
2.079313e-09
2.5348687e-07
2.1028415e-09
2.5274654e-07
2.1277403e-09
2.5199581e-07
2.1571265e-09
2.5126462e-07
2.1005592e-09
2.5056974e-07
1.995939e-09
2.499089e-07
1.8979085e-09
2.4927966e-07
1.8069063e-09
2.486796e-07
1.7228567e-09
2.4810661e-07
1.6449421e-09
2.4755886e-07
1.572254e-09
2.4703479e-07
1.5041073e-09
2.4653297e-07
1.4400336e-09
2.4605213e-07
1.3797035e-09
2.4559103e-07
1.3228655e-09
2.4514855e-07
1.2693163e-09
2.447236e-07
1.2188741e-09
2.4431514e-07
1.1714026e-09
2.4392223e-07
1.1267211e-09
2.4354384e-07
1.0849206e-09
2.4317921e-07
1.0453689e-09
2.428268e-07
1.0102334e-09
2.4248729e-07
9.7311073e-10
2.4215385e-07
9.5557692e-10
2.4184448e-07
8.8654784e-10
2.4146553e-07
1.0855672e-09
6.8057152e-10
2.4685189e-06
6.1751268e-11
2.4684911e-06
1.3869231e-10
2.468458e-06
1.638377e-10
2.4684216e-06
1.8070251e-10
2.46838e-06
2.0617798e-10
2.4683326e-06
2.3561339e-10
2.4682784e-06
2.6929287e-10
2.4682165e-06
3.0890048e-10
2.4681452e-06
3.5591314e-10
2.4680628e-06
4.1195686e-10
2.4679673e-06
4.7919507e-10
2.4678557e-06
5.6085444e-10
2.4677244e-06
6.6120844e-10
2.4675683e-06
7.8791344e-10
2.4673807e-06
9.4910357e-10
2.4671502e-06
1.169372e-09
2.466864e-06
1.456029e-09
2.4664857e-06
1.9297318e-09
2.4659987e-06
2.4925683e-09
2.4652251e-06
3.9757031e-09
2.4641925e-06
5.3258147e-09
2.4613521e-06
1.4700279e-08
2.4602823e-06
5.3353528e-09
1.6451442e-06
5.1653903e-06
7.2787302e-07
5.4917165e-06
5.9779237e-07
4.1575058e-07
5.5329619e-07
1.5073122e-07
5.2682839e-07
9.336812e-08
5.0746145e-07
6.9118984e-08
4.9176272e-07
5.6064607e-08
4.7862253e-07
4.6838369e-08
4.6750261e-07
3.9559462e-08
4.5796719e-07
3.3866638e-08
4.496762e-07
2.9403988e-08
4.4237975e-07
2.5842262e-08
4.3588997e-07
2.2956415e-08
4.3006427e-07
2.0583066e-08
4.2479548e-07
1.8595278e-08
4.1999728e-07
1.6917355e-08
4.1559969e-07
1.5490159e-08
4.1154772e-07
1.425983e-08
4.0779643e-07
1.3190386e-08
4.0430841e-07
1.2254681e-08
4.0105234e-07
1.14309e-08
3.9800205e-07
1.070062e-08
3.9513523e-07
1.0049952e-08
3.9243261e-07
9.467948e-09
3.8987792e-07
8.9439276e-09
3.8745705e-07
8.4702174e-09
3.8515753e-07
8.0408106e-09
3.8296861e-07
7.6495973e-09
3.8088088e-07
7.2919178e-09
3.7888585e-07
6.9643468e-09
3.7697603e-07
6.6633569e-09
3.751448e-07
6.3857881e-09
3.7338623e-07
6.1293398e-09
3.716949e-07
5.8920374e-09
3.7006595e-07
5.6718983e-09
3.6849505e-07
5.4671654e-09
3.669782e-07
5.2764931e-09
3.6551177e-07
5.0987293e-09
3.6409242e-07
4.9327457e-09
3.6271711e-07
4.7774526e-09
3.6138306e-07
4.6319745e-09
3.600877e-07
4.4956197e-09
3.5882861e-07
4.3677407e-09
3.5760359e-07
4.2476728e-09
3.5641057e-07
4.1347993e-09
3.5524767e-07
4.0286474e-09
3.5411308e-07
3.9288209e-09
3.530051e-07
3.8349388e-09
3.5192217e-07
3.7466141e-09
3.5086281e-07
3.6634735e-09
3.4982561e-07
3.5852304e-09
3.4880926e-07
3.5116561e-09
3.4781248e-07
3.4425229e-09
3.4683408e-07
3.3776065e-09
3.4587292e-07
3.316675e-09
3.4492791e-07
3.2595382e-09
3.4399801e-07
3.206065e-09
3.4308222e-07
3.1561252e-09
3.4217955e-07
3.1095819e-09
3.4128909e-07
3.0662989e-09
3.4040992e-07
3.0261553e-09
3.3954118e-07
2.989066e-09
3.3868202e-07
2.954961e-09
3.3783159e-07
2.9237672e-09
3.3698908e-07
2.8954118e-09
3.361537e-07
2.8698171e-09
3.3532468e-07
2.8469309e-09
3.3450123e-07
2.8267274e-09
3.336826e-07
2.8091764e-09
3.3286803e-07
2.7942457e-09
3.3205678e-07
2.7818989e-09
3.312481e-07
2.7721133e-09
3.3044126e-07
2.7648918e-09
3.296355e-07
2.7602385e-09
3.288301e-07
2.7581538e-09
3.280243e-07
2.7586339e-09
3.2721735e-07
2.7616864e-09
3.264085e-07
2.7673395e-09
3.2559699e-07
2.7756252e-09
3.2478203e-07
2.7865715e-09
3.2396284e-07
2.8002051e-09
3.2313863e-07
2.8165679e-09
3.2230857e-07
2.8357198e-09
3.2147184e-07
2.857719e-09
3.2062757e-07
2.8826164e-09
3.1977492e-07
2.9104456e-09
3.18913e-07
2.9412321e-09
3.1804098e-07
2.9748604e-09
3.1715827e-07
3.0104469e-09
3.1626307e-07
3.0523326e-09
3.1539117e-07
2.9724589e-09
3.1456259e-07
2.8245112e-09
3.1377463e-07
2.6858732e-09
3.1302436e-07
2.5571754e-09
3.1230891e-07
2.4383093e-09
3.1162573e-07
2.3281162e-09
3.1097268e-07
2.2253115e-09
3.1034786e-07
2.1289282e-09
3.0974958e-07
2.038305e-09
3.0917631e-07
1.9529761e-09
3.0862659e-07
1.8725862e-09
3.0809906e-07
1.7968476e-09
3.0759243e-07
1.725503e-09
3.0710547e-07
1.6583597e-09
3.0663703e-07
1.5951615e-09
3.0618591e-07
1.536039e-09
3.0575119e-07
1.4800951e-09
3.0533101e-07
1.4304087e-09
3.0492623e-07
1.377892e-09
3.0452865e-07
1.3531545e-09
3.0415975e-07
1.255449e-09
3.0370791e-07
1.5374076e-09
9.6356071e-10
2.6637177e-06
7.5432447e-11
2.6636866e-06
1.6976921e-10
2.6636495e-06
2.0091334e-10
2.6636086e-06
2.2165829e-10
2.6635619e-06
2.5283418e-10
2.6635087e-06
2.8881849e-10
2.6634481e-06
3.29951e-10
2.6633787e-06
3.7828112e-10
2.663299e-06
4.3560496e-10
2.6632071e-06
5.038965e-10
2.6631005e-06
5.8577975e-10
2.6629762e-06
6.8516839e-10
2.6628301e-06
8.0724233e-10
2.6626568e-06
9.6128803e-10
2.6624487e-06
1.1571507e-09
2.6621934e-06
1.424662e-09
2.6618769e-06
1.77257e-09
2.6614594e-06
2.3472169e-09
2.6609227e-06
3.0292789e-09
2.6600726e-06
4.8257934e-09
2.65894e-06
6.4584241e-09
2.6558317e-06
1.7808539e-08
2.6546366e-06
6.5304763e-09
1.8301958e-06
5.9898311e-06
8.7889434e-07
6.443018e-06
7.1764746e-07
5.7699745e-07
6.6387492e-07
2.0450376e-07
6.3269158e-07
1.2455146e-07
6.1011143e-07
9.1699135e-08
5.9185382e-07
7.4322212e-08
5.7657579e-07
6.2116405e-08
5.6364588e-07
5.2489365e-08
5.5255819e-07
4.495433e-08
5.4291741e-07
3.904477e-08
5.3443287e-07
3.4326804e-08
5.2688597e-07
3.0503307e-08
5.2011085e-07
2.7358187e-08
5.1398297e-07
2.4723166e-08
5.0840204e-07
2.2498276e-08
5.0328671e-07
2.0605495e-08
4.9857302e-07
1.8973515e-08
4.9420874e-07
1.7554669e-08
4.9015041e-07
1.6313014e-08
4.8636162e-07
1.5219684e-08
4.8281197e-07
1.4250276e-08
4.7947555e-07
1.3386373e-08
4.7632996e-07
1.2613536e-08
4.733563e-07
1.1917588e-08
4.7053817e-07
1.1288346e-08
4.6786108e-07
1.0717897e-08
4.6531255e-07
1.0198134e-08
4.6288161e-07
9.722856e-09
4.6055841e-07
9.2875417e-09
4.5833424e-07
8.8875318e-09
4.5620141e-07
8.51862e-09
4.54153e-07
8.1777452e-09
4.5218273e-07
7.8623039e-09
4.5028496e-07
7.5696757e-09
4.484546e-07
7.297518e-09
4.4668706e-07
7.0440364e-09
4.4497808e-07
6.8077117e-09
4.4332377e-07
6.5870542e-09
4.4172061e-07
6.3806142e-09
4.4016536e-07
6.1872202e-09
4.3865503e-07
6.0059556e-09
4.371868e-07
5.8359656e-09
4.357581e-07
5.6763714e-09
4.3436655e-07
5.5263507e-09
4.3300993e-07
5.3852686e-09
4.3168615e-07
5.2526013e-09
4.3039324e-07
5.1278458e-09
4.2912937e-07
5.0104901e-09
4.278928e-07
4.9000368e-09
4.2668193e-07
4.7961002e-09
4.2549521e-07
4.6983769e-09
4.2433117e-07
4.6065673e-09
4.231884e-07
4.5203742e-09
4.2206559e-07
4.4394899e-09
4.2096147e-07
4.3636587e-09
4.1987483e-07
4.292705e-09
4.1880449e-07
4.2264579e-09
4.1774934e-07
4.1647371e-09
4.1670828e-07
4.1073625e-09
4.1568026e-07
4.0541719e-09
4.1466427e-07
4.0050503e-09
4.1365933e-07
3.9599066e-09
4.1266445e-07
3.9186449e-09
4.1167869e-07
3.8811696e-09
4.1070113e-07
3.847378e-09
4.0973086e-07
3.8171994e-09
4.0876699e-07
3.7906e-09
4.0780863e-07
3.7675414e-09
4.0685489e-07
3.7479822e-09
4.0590491e-07
3.7318754e-09
4.0495784e-07
3.7191908e-09
4.040128e-07
3.7099323e-09
4.0306893e-07
3.7041073e-09
4.0212536e-07
3.7017186e-09
4.0118123e-07
3.7027626e-09
4.0023567e-07
3.7072502e-09
3.9928779e-07
3.7152198e-09
3.983367e-07
3.7267161e-09
3.9738149e-07
3.7417792e-09
3.9642125e-07
3.7604466e-09
3.9545504e-07
3.7827754e-09
3.9448191e-07
3.8088476e-09
3.9350089e-07
3.8387438e-09
3.9251097e-07
3.8725349e-09
3.9151115e-07
3.9102676e-09
3.905004e-07
3.9519776e-09
3.8947775e-07
3.9975084e-09
3.8844251e-07
4.0456932e-09
3.8739258e-07
4.1022623e-09
3.8637005e-07
3.9949907e-09
3.8539842e-07
3.7961331e-09
3.8447451e-07
3.6097876e-09
3.8359487e-07
3.436813e-09
3.8275612e-07
3.2770588e-09
3.8195528e-07
3.1289621e-09
3.8118979e-07
2.9907967e-09
3.8045746e-07
2.861265e-09
3.7975628e-07
2.7394789e-09
3.7908444e-07
2.6248125e-09
3.7844024e-07
2.5167878e-09
3.7782207e-07
2.4150172e-09
3.7722842e-07
2.319154e-09
3.7665784e-07
2.2289385e-09
3.7610898e-07
2.1440256e-09
3.7558043e-07
2.0645923e-09
3.7507109e-07
1.989429e-09
3.7457881e-07
1.9226888e-09
3.7410458e-07
1.8521249e-09
3.7363877e-07
1.8189649e-09
3.7320654e-07
1.687675e-09
3.7267721e-07
2.0667434e-09
1.2950295e-09
2.8986119e-06
9.0845278e-11
2.8985767e-06
2.0495675e-10
2.8985345e-06
2.4307861e-10
2.8984879e-06
2.6827237e-10
2.8984348e-06
3.059033e-10
2.8983744e-06
3.4928516e-10
2.8983055e-06
3.988172e-10
2.8982268e-06
4.5695694e-10
2.8981366e-06
5.2585682e-10
2.8980326e-06
6.0787748e-10
2.8979122e-06
7.0615357e-10
2.897772e-06
8.2536046e-10
2.8976076e-06
9.7168133e-10
2.8974127e-06
1.1562098e-09
2.8971791e-06
1.3906785e-09
2.8968931e-06
1.7107276e-09
2.896539e-06
2.126646e-09
2.896073e-06
2.8132446e-09
2.895475e-06
3.6272211e-09
2.8945308e-06
5.7700472e-09
2.8932755e-06
7.7136555e-09
2.8898399e-06
2.1244118e-08
2.8884881e-06
7.88231e-09
2.0479688e-06
6.8303505e-06
1.0518936e-06
7.4390932e-06
8.5428675e-07
7.7460433e-07
7.895049e-07
2.6928562e-07
7.5281941e-07
1.6123696e-07
7.2654914e-07
1.1796941e-07
7.0537099e-07
9.550036e-08
6.8765799e-07
7.9829402e-08
6.7266865e-07
6.7478708e-08
6.5981631e-07
5.7806666e-08
6.4864233e-07
5.0218754e-08
6.3880925e-07
4.4159878e-08
6.3006332e-07
3.9249242e-08
6.2221192e-07
3.5209584e-08
6.1511068e-07
3.1824411e-08
6.086434e-07
2.8965552e-08
6.0271568e-07
2.6533212e-08
5.9725335e-07
2.4435848e-08
5.9219583e-07
2.2612194e-08
5.8749275e-07
2.1016092e-08
5.8310192e-07
1.9610509e-08
5.7898811e-07
1.8364088e-08
5.7512132e-07
1.7253166e-08
5.7147558e-07
1.6259273e-08
5.68029e-07
1.5364173e-08
5.6476257e-07
1.4554772e-08
5.6165951e-07
1.3820958e-08
5.5870534e-07
1.3152309e-08
5.5588736e-07
1.2540828e-08
5.5319417e-07
1.1980733e-08
5.5061565e-07
1.1466057e-08
5.4814289e-07
1.0991377e-08
5.4576789e-07
1.0552747e-08
5.4348335e-07
1.014684e-08
5.4128273e-07
9.7702991e-09
5.3916015e-07
9.4200999e-09
5.3711026e-07
9.0939249e-09
5.3512814e-07
8.7898322e-09
5.3320928e-07
8.5059165e-09
5.3134958e-07
8.2403092e-09
5.2954531e-07
7.9914928e-09
5.2779297e-07
7.75829e-09
5.2608933e-07
7.539608e-09
5.2443138e-07
7.3343205e-09
5.2281637e-07
7.1413656e-09
5.2124172e-07
6.9599182e-09
5.1970501e-07
6.7893071e-09
5.1820397e-07
6.6288893e-09
5.1673645e-07
6.4780078e-09
5.1530047e-07
6.3360209e-09
5.1389414e-07
6.2024261e-09
5.1251568e-07
6.0768339e-09
5.1116339e-07
5.9588614e-09
5.0983564e-07
5.8481276e-09
5.0853089e-07
5.7442366e-09
5.0724769e-07
5.6468557e-09
5.0598464e-07
5.5557571e-09
5.0474038e-07
5.4707231e-09
5.0351359e-07
5.3915238e-09
5.0230302e-07
5.3179282e-09
5.0110747e-07
5.2497252e-09
4.9992576e-07
5.186765e-09
4.9875673e-07
5.1289316e-09
4.9759927e-07
5.0761039e-09
4.9645228e-07
5.0281594e-09
4.9531469e-07
4.9849667e-09
4.9418546e-07
4.9464331e-09
4.9306354e-07
4.9125152e-09
4.9194792e-07
4.8831658e-09
4.9083757e-07
4.8583332e-09
4.8973149e-07
4.837958e-09
4.8862868e-07
4.8220011e-09
4.8752814e-07
4.8104676e-09
4.8642888e-07
4.8033694e-09
4.8532988e-07
4.800712e-09
4.8423015e-07
4.8024928e-09
4.8312868e-07
4.8087264e-09
4.8202444e-07
4.8194629e-09
4.8091639e-07
4.8347626e-09
4.7980349e-07
4.8546797e-09
4.7868467e-07
4.879265e-09
4.7755885e-07
4.9085935e-09
4.7642493e-07
4.9427731e-09
4.7528176e-07
4.9819114e-09