/*--------------------------------*- C++ -*----------------------------------*\
  =========                 |
  \\      /  F ield         | OpenFOAM: The Open Source CFD Toolbox
   \\    /   O peration     | Website:  https://openfoam.org
    \\  /    A nd           | Version:  12
     \\/     M anipulation  |
\*---------------------------------------------------------------------------*/
FoamFile
{
    format      ascii;
    class       volVectorField;
    location    "400";
    object      U;
}
// * * * * * * * * * * * * * * * * * * * * * * * * * * * * * * * * * * * * * //

dimensions      [0 1 -1 0 0 0 0];

internalField   nonuniform List<vector> 
7480
(
(0.98695649 0.00063465325 8.6618508e-17)
(0.97569362 0.0015026213 0)
(0.96324787 0.0021282909 0)
(0.95005371 0.0025312182 0)
(0.93651367 0.0028011747 0)
(0.92290645 0.0029679239 0)
(0.90933492 0.0030493104 0)
(0.89584194 0.0030536357 0)
(0.88246677 0.0030152032 0)
(0.86924393 0.0029292643 0)
(0.85620149 0.0028098581 0)
(0.84336156 0.0026667022 0)
(0.83074866 0.0025059693 0)
(0.81839018 0.0023319162 0)
(0.80631867 0.0021478072 0)
(0.7945775 0.0019551824 0)
(0.78323076 0.0017543408 0)
(0.77237139 0.0015497021 0)
(0.76207749 0.0013470164 0)
(0.75241698 0.001148754 0)
(0.7434499 0.00095558396 0)
(0.73522639 0.00077035899 0)
(0.72778236 0.00059706969 0)
(0.72114205 0.00044015583 0)
(0.71530345 0.00030362236 0)
(0.71022385 0.00019364255 0)
(0.70582392 0.00011502542 0)
(0.70199748 6.8124877e-05 0)
(0.69861733 4.8891583e-05 0)
(0.69555293 5.0493226e-05 0)
(0.69269195 6.4300893e-05 0)
(0.6899529 8.1899636e-05 0)
(0.68728497 9.7312303e-05 0)
(0.68466079 0.00010738114 0)
(0.68206776 0.0001117945 0)
(0.67949646 0.00011263263 0)
(0.67693463 0.00011248439 0)
(0.67436902 0.00011307293 0)
(0.67178937 0.00011481612 0)
(0.66919311 0.00011690299 0)
(0.66658669 0.00011839168 0)
(0.66398111 0.00011876336 0)
(0.661387 0.00011789931 0)
(0.65881096 0.00011606851 0)
(0.65625601 0.00011360353 0)
(0.65372424 0.00011076621 0)
(0.651218 0.00010770049 0)
(0.6487394 0.00010447761 0)
(0.64629011 0.00010113165 0)
(0.64387161 9.7718707e-05 0)
(0.64148466 9.4334643e-05 0)
(0.639129 9.1030742e-05 0)
(0.63680421 8.7807136e-05 0)
(0.63451047 8.4650855e-05 0)
(0.63224784 8.1588302e-05 0)
(0.63001563 7.8636303e-05 0)
(0.62781304 7.5786012e-05 0)
(0.62563972 7.3031106e-05 0)
(0.62349506 7.0385554e-05 0)
(0.62137831 6.7836021e-05 0)
(0.61928884 6.5376234e-05 0)
(0.61722604 6.3012963e-05 0)
(0.61518914 6.0744038e-05 0)
(0.61317746 5.8557811e-05 0)
(0.61119049 5.6452206e-05 0)
(0.60922763 5.4427491e-05 0)
(0.60728824 5.2475534e-05 0)
(0.60537184 5.0596772e-05 0)
(0.60347778 4.8790418e-05 0)
(0.6016055 4.7050216e-05 0)
(0.59975447 4.5377135e-05 0)
(0.59792407 4.3767432e-05 0)
(0.5961138 4.2217393e-05 0)
(0.59432312 4.0726749e-05 0)
(0.5925515 3.9291612e-05 0)
(0.59079845 3.7910632e-05 0)
(0.58906346 3.6581152e-05 0)
(0.58734607 3.5300761e-05 0)
(0.58564582 3.4068154e-05 0)
(0.58396227 3.2881091e-05 0)
(0.58229498 3.1737956e-05 0)
(0.58064351 3.0636983e-05 0)
(0.57900746 2.9576535e-05 0)
(0.57738641 2.8555066e-05 0)
(0.57577997 2.7571128e-05 0)
(0.57418774 2.6623407e-05 0)
(0.57260932 2.5710689e-05 0)
(0.57104431 2.4831984e-05 0)
(0.56949232 2.398633e-05 0)
(0.56795281 2.3173461e-05 0)
(0.56642547 2.2392477e-05 0)
(0.56490922 2.1645754e-05 0)
(0.56340457 2.0930255e-05 0)
(0.56190718 2.0261965e-05 0)
(0.56042409 1.9614612e-05 0)
(0.55893049 1.9123015e-05 0)
(0.55747798 1.800372e-05 0)
(0.55592053 3.0864663e-05 6.7178538e-20)
(0.55462149 1.8607108e-05 -2.3226461e-19)
(0.55220321 3.2161677e-05 -4.234918e-18)
(0.99597442 0.002400158 0)
(0.99631459 0.0034508854 0)
(0.99658314 0.0037677763 0)
(0.99634123 0.0036565741 0)
(0.99556853 0.0034844395 0)
(0.99431549 0.0032954703 0)
(0.99256195 0.0031061753 0)
(0.99027356 0.002935247 0)
(0.98743789 0.0027842207 0)
(0.98405606 0.0026559348 0)
(0.98013072 0.0025489532 0)
(0.97566225 0.0024578303 0)
(0.97065337 0.002382565 0)
(0.96510826 0.0023167137 0)
(0.9590282 0.0022569413 0)
(0.95241507 0.0022003359 0)
(0.94526136 0.0021390158 0)
(0.93758638 0.0020606512 0)
(0.92946459 0.0019657951 0)
(0.92095786 0.0018611774 0)
(0.91213867 0.0017481063 0)
(0.90309551 0.0016264809 0)
(0.89393715 0.0014961979 0)
(0.88477732 0.0013574554 0)
(0.87574445 0.0012120271 0)
(0.86697709 0.0010607436 0)
(0.85863625 0.00091134155 0)
(0.85085251 0.00077392059 0)
(0.84369504 0.00065357561 0)
(0.83716515 0.00055539118 0)
(0.83121115 0.00048215368 0)
(0.82574777 0.00043306694 0)
(0.82067258 0.00040486216 0)
(0.81589107 0.00039164539 0)
(0.81133378 0.00038598734 0)
(0.80695643 0.00038168827 0)
(0.80273395 0.00037536607 0)
(0.79865299 0.00036594788 0)
(0.79470309 0.00035378199 0)
(0.79087238 0.00033972083 0)
(0.78714721 0.00032492257 0)
(0.78351281 0.00031054279 0)
(0.77995515 0.00029715348 0)
(0.77646383 0.00028481578 0)
(0.77303347 0.00027319536 0)
(0.76966286 0.00026202968 0)
(0.76635205 0.00025122888 0)
(0.76309975 0.00024079243 0)
(0.75990338 0.00023068925 0)
(0.75676083 0.00022092027 0)
(0.75367083 0.00021154865 0)
(0.7506323 0.00020256636 0)
(0.74764409 0.00019393178 0)
(0.74470528 0.0001856193 0)
(0.74181485 0.00017767205 0)
(0.73897137 0.00017009299 0)
(0.73617342 0.00016284458 0)
(0.73342005 0.00015590178 0)
(0.73071025 0.00014929171 0)
(0.72804246 0.00014298606 0)
(0.72541547 0.00013695795 0)
(0.72282831 0.00013120853 0)
(0.72027982 0.00012572611 0)
(0.71776889 0.00012048595 0)
(0.71529454 0.00011548211 0)
(0.71285572 0.00011070921 0)
(0.71045138 0.00010614614 0)
(0.7080806 0.00010178944 0)
(0.70574239 9.7631696e-05 0)
(0.70343581 9.3656715e-05 0)
(0.70115996 8.9862673e-05 0)
(0.69891392 8.6238098e-05 0)
(0.69669684 8.2773015e-05 0)
(0.69450788 7.9463588e-05 0)
(0.6923462 7.6299278e-05 0)
(0.69021103 7.3274927e-05 0)
(0.68810157 7.0382779e-05 0)
(0.68601709 6.7615976e-05 0)
(0.68395688 6.4969663e-05 0)
(0.68192023 6.2437401e-05 0)
(0.67990647 6.0014157e-05 0)
(0.67791492 5.7694699e-05 0)
(0.67594497 5.54742e-05 0)
(0.67399597 5.3348111e-05 0)
(0.67206733 5.1312178e-05 0)
(0.67015843 4.9362474e-05 0)
(0.6682687 4.7495384e-05 0)
(0.66639753 4.5707708e-05 0)
(0.66454433 4.3996585e-05 0)
(0.6627084 4.2359958e-05 0)
(0.66088924 4.0796076e-05 0)
(0.65908556 3.930557e-05 0)
(0.65729773 3.7888523e-05 0)
(0.65552097 3.6555392e-05 0)
(0.65376272 3.530419e-05 0)
(0.6519961 3.4215637e-05 0)
(0.65027626 3.3260637e-05 0)
(0.64844645 3.4285659e-05 0)
(0.64690151 3.090216e-05 0)
(0.64408078 3.6884059e-05 0)
(0.99625977 0.0021467217 0)
(0.99669782 0.0027584377 0)
(0.99726236 0.0029461495 0)
(0.99768717 0.0030129984 0)
(0.99797936 0.0031056504 0)
(0.99821924 0.0032115349 0)
(0.99842404 0.0033114052 0)
(0.99858245 0.0033977995 0)
(0.99868972 0.0034702402 0)
(0.99874578 0.0035268593 0)
(0.99874584 0.0035649831 0)
(0.99868068 0.0035904653 0)
(0.99853878 0.0035899014 0)
(0.99830621 0.003579267 0)
(0.99796492 0.003551947 0)
(0.99748973 0.0035093451 0)
(0.99685156 0.0034508695 0)
(0.99597924 0.0033764249 0)
(0.99476626 0.0032863757 0)
(0.99312902 0.0031804495 0)
(0.99098195 0.0030589752 0)
(0.98823372 0.0029232948 0)
(0.98478714 0.0027754674 0)
(0.98055062 0.0026188374 0)
(0.97544038 0.0024581173 0)
(0.96939847 0.002299617 0)
(0.96238549 0.0021340146 0)
(0.95452547 0.0019591285 0)
(0.9459906 0.001788683 0)
(0.93703116 0.0016253512 0)
(0.92793465 0.0014690594 0)
(0.91898468 0.0013194397 0)
(0.910421 0.0011754953 0)
(0.90242852 0.0010435725 0)
(0.89508966 0.00093181755 0)
(0.88837648 0.00084232522 0)
(0.88220015 0.00077501595 0)
(0.87645 0.0007274831 0)
(0.87102192 0.00069505963 0)
(0.86584076 0.00067117682 0)
(0.86086251 0.00064972154 0)
(0.85606405 0.00062701815 0)
(0.85143188 0.00060221905 0)
(0.84695399 0.00057606684 0)
(0.84261728 0.00054948998 0)
(0.83840808 0.00052345978 0)
(0.83431304 0.00049872186 0)
(0.83032017 0.00047555633 0)
(0.82642029 0.00045372252 0)
(0.82260785 0.00043295828 0)
(0.81887926 0.00041323064 0)
(0.81523075 0.00039447473 0)
(0.81165804 0.00037659991 0)
(0.80815734 0.00035954115 0)
(0.80472559 0.00034332213 0)
(0.80136006 0.0003279066 0)
(0.79805822 0.00031321791 0)
(0.79481791 0.00029920795 0)
(0.79163702 0.00028590149 0)
(0.78851324 0.00027324288 0)
(0.78544458 0.00026118236 0)
(0.78242933 0.00024970832 0)
(0.77946565 0.00023879285 0)
(0.7765518 0.00022838968 0)
(0.77368624 0.00021848085 0)
(0.77086738 0.0002090501 0)
(0.76809372 0.0002000583 0)
(0.76536386 0.00019149271 0)
(0.7626764 0.00018333527 0)
(0.76003001 0.00017555561 0)
(0.75742342 0.0001681448 0)
(0.75485537 0.00016108018 0)
(0.75232468 0.00015434161 0)
(0.74983019 0.0001479182 0)
(0.74737077 0.00014178976 0)
(0.74494534 0.00013594412 0)
(0.74255285 0.00013036553 0)
(0.74019231 0.00012503986 0)
(0.73786273 0.00011995612 0)
(0.73556318 0.00011510133 0)
(0.73329274 0.0001104647 0)
(0.73105053 0.00010603537 0)
(0.72883569 0.00010180324 0)
(0.7266474 9.775884e-05 0)
(0.72448483 9.3893297e-05 0)
(0.7223472 9.0198383e-05 0)
(0.72023374 8.6666554e-05 0)
(0.71814365 8.3290916e-05 0)
(0.71607619 8.0065635e-05 0)
(0.71403046 7.698533e-05 0)
(0.71200581 7.4047841e-05 0)
(0.71000077 7.1248425e-05 0)
(0.70801557 6.8598873e-05 0)
(0.7060452 6.608434e-05 0)
(0.70409702 6.3781696e-05 0)
(0.70214369 6.1632104e-05 0)
(0.70024075 5.9970629e-05 0)
(0.69822832 5.8512015e-05 0)
(0.69651818 5.9353549e-05 0)
(0.69342678 5.9252532e-05 -3.0067854e-20)
(0.9963998 0.0020416958 0)
(0.99678083 0.0026581725 0)
(0.99730841 0.002987854 0)
(0.99773275 0.003142377 0)
(0.99803827 0.0032372937 0)
(0.99829711 0.0032950218 0)
(0.99853268 0.0033037372 0)
(0.99874068 0.0032907641 0)
(0.99892366 0.0032632621 0)
(0.99908906 0.0032270793 0)
(0.99923977 0.0031856904 0)
(0.99937795 0.0031402923 0)
(0.9995043 0.0030964891 0)
(0.99961857 0.0030527237 0)
(0.99972138 0.0030095785 0)
(0.99981144 0.0029671589 0)
(0.99988712 0.0029246403 0)
(0.99994545 0.0028813224 0)
(0.99998103 0.0028371652 0)
(0.99998709 0.0027928219 0)
(0.99995567 0.0027489095 0)
(0.99987529 0.0027057247 0)
(0.99973056 0.0026636195 0)
(0.99950116 0.0026228237 0)
(0.99915875 0.0025828165 0)
(0.99866004 0.0025424984 0)
(0.99794245 0.0025007831 0)
(0.9968335 0.0024558341 0)
(0.99517874 0.0024033203 0)
(0.99281413 0.0023400763 0)
(0.98958367 0.0022652533 0)
(0.98535988 0.0021798337 0)
(0.98007474 0.0020889106 0)
(0.97372455 0.0019830162 0)
(0.96650437 0.0018590964 0)
(0.9586892 0.0017293495 0)
(0.95059303 0.0015976054 0)
(0.94252558 0.0014663272 0)
(0.93474352 0.0013386277 0)
(0.92742379 0.0012223402 0)
(0.92061975 0.0011230334 0)
(0.9142913 0.0010414013 0)
(0.90835347 0.00097631251 0)
(0.90271563 0.00092475721 0)
(0.89731158 0.00088174884 0)
(0.89210393 0.00084258952 0)
(0.88707486 0.00080447057 0)
(0.88221351 0.00076683332 0)
(0.87750896 0.00072985309 0)
(0.87294906 0.00069402157 0)
(0.86852106 0.00066003152 0)
(0.86421279 0.00062812658 0)
(0.8600143 0.00059810542 0)
(0.85591851 0.00056970907 0)
(0.8519201 0.00054287014 0)
(0.84801394 0.00051748729 0)
(0.84419493 0.00049342535 0)
(0.84045864 0.00047058738 0)
(0.83680119 0.00044896787 0)
(0.83321909 0.00042846056 0)
(0.82970922 0.00040897609 0)
(0.82626868 0.00039048308 0)
(0.82289459 0.00037292965 0)
(0.81958433 0.00035623932 0)
(0.8163356 0.00034037411 0)
(0.8131461 0.00032530077 0)
(0.81001368 0.00031095722 0)
(0.80693636 0.00029731588 0)
(0.80391222 0.00028434374 0)
(0.80093943 0.00027199274 0)
(0.79801628 0.00026024294 0)
(0.79514108 0.00024905767 0)
(0.79231226 0.0002384038 0)
(0.78952829 0.00022826059 0)
(0.78678771 0.00021859613 0)
(0.7840891 0.0002093889 0)
(0.78143111 0.00020061327 0)
(0.77881245 0.00019224597 0)
(0.77623185 0.00018426812 0)
(0.77368812 0.00017665868 0)
(0.77118007 0.00016939954 0)
(0.76870658 0.00016247286 0)
(0.76626656 0.000155862 0)
(0.76385896 0.00014955136 0)
(0.76148275 0.00014352635 0)
(0.75913693 0.0001377734 0)
(0.75682053 0.00013228009 0)
(0.75453256 0.00012703493 0)
(0.75227209 0.00012202839 0)
(0.75003806 0.00011725078 0)
(0.74782962 0.00011269959 0)
(0.74564515 0.00010836244 0)
(0.7434847 0.00010426698 0)
(0.74134315 0.00010036152 0)
(0.73922753 9.6831779e-05 0)
(0.73711072 9.3402897e-05 0)
(0.73504747 9.0986765e-05 0)
(0.73287729 8.8020838e-05 0)
(0.73102495 9.3185534e-05 0)
(0.72770104 8.5216888e-05 2.4271385e-20)
(0.99658198 0.001984008 0)
(0.99688658 0.0025601085 0)
(0.99734011 0.0028850812 0)
(0.99772737 0.0030271304 0)
(0.99802217 0.0031101051 0)
(0.99827944 0.0031666896 0)
(0.9985177 0.0032005743 0)
(0.9987315 0.0032188642 0)
(0.99892268 0.0032286804 0)
(0.99909785 0.0032329087 0)
(0.99926079 0.0032309605 0)
(0.99941254 0.0032250089 0)
(0.99955401 0.003213178 0)
(0.99968614 0.0031962753 0)
(0.99981037 0.0031739143 0)
(0.99992768 0.00314578 0)
(1.0000382 0.0031112552 0)
(1.0001411 0.0030695817 0)
(1.0002349 0.0030208212 0)
(1.0003185 0.002965691 0)
(1.000391 0.0029051385 0)
(1.0004508 0.0028403586 0)
(1.0004958 0.002772382 0)
(1.000524 0.002702616 0)
(1.0005332 0.0026333268 0)
(1.0005214 0.0025672452 0)
(1.0004872 0.0025068031 0)
(1.0004248 0.0024538157 0)
(1.0003255 0.0024101646 0)
(1.0001762 0.0023765467 0)
(0.99995657 0.0023518756 0)
(0.99963495 0.0023335776 0)
(0.99915867 0.0023161016 0)
(0.99844395 0.002295387 0)
(0.99729044 0.0022676849 0)
(0.9955064 0.0022278927 0)
(0.99291273 0.0021741239 0)
(0.98936315 0.0021081229 0)
(0.98477474 0.0020308796 0)
(0.9791801 0.0019356768 0)
(0.97279228 0.0018250354 0)
(0.96589099 0.0017082626 0)
(0.95878166 0.0015890962 0)
(0.9517395 0.001471378 0)
(0.94496744 0.0013623636 0)
(0.93854749 0.0012664504 0)
(0.93247329 0.0011842164 0)
(0.9266906 0.0011150488 0)
(0.92114044 0.0010562896 0)
(0.91578249 0.0010039923 0)
(0.91059617 0.00095518669 0)
(0.90557118 0.00090861443 0)
(0.90069928 0.00086384962 0)
(0.89597109 0.00082096758 0)
(0.89137604 0.00078039053 0)
(0.88690362 0.00074224324 0)
(0.88254499 0.00070631737 0)
(0.87829359 0.00067238728 0)
(0.87414392 0.00064038266 0)
(0.8700907 0.00061013232 0)
(0.86612901 0.00058149731 0)
(0.86225445 0.00055440704 0)
(0.85846295 0.00052876314 0)
(0.85475087 0.00050444397 0)
(0.85111492 0.00048138153 0)
(0.84755193 0.00045951579 0)
(0.84405896 0.00043875226 0)
(0.84063335 0.00041904061 0)
(0.83727254 0.00040032649 0)
(0.83397413 0.00038253867 0)
(0.83073587 0.00036564092 0)
(0.82755559 0.00034957816 0)
(0.82443129 0.00033430033 0)
(0.82136102 0.00031977322 0)
(0.81834293 0.00030595006 0)
(0.81537524 0.00029279699 0)
(0.81245627 0.00028027589 0)
(0.80958439 0.00026835192 0)
(0.80675804 0.00025699606 0)
(0.80397573 0.00024617713 0)
(0.80123601 0.00023586781 0)
(0.79853749 0.00022604147 0)
(0.79587883 0.00021667332 0)
(0.79325874 0.00020774011 0)
(0.79067597 0.00019922013 0)
(0.7881293 0.00019109318 0)
(0.78561753 0.00018334076 0)
(0.7831395 0.00017594561 0)
(0.78069407 0.00016889352 0)
(0.77827998 0.00016216947 0)
(0.77589622 0.00015576991 0)
(0.77354101 0.00014967346 0)
(0.77121418 0.00014392458 0)
(0.76891055 0.00013842988 0)
(0.76663678 0.00013349506 0)
(0.76436611 0.00012859625 0)
(0.76215229 0.00012534593 0)
(0.75983465 0.00012048306 3.2393601e-20)
(0.7578505 0.00013091278 0)
(0.7543114 0.00011284061 0)
(0.99674679 0.0019374822 0)
(0.99699669 0.0024593621 0)
(0.99738442 0.0027765998 0)
(0.9977366 0.002936241 0)
(0.99801989 0.003039012 0)
(0.99827128 0.0031142257 0)
(0.9985053 0.0031601585 0)
(0.99871703 0.0031848212 0)
(0.99890771 0.0031963475 0)
(0.9990829 0.0031979756 0)
(0.99924594 0.0031914912 0)
(0.99939857 0.0031785843 0)
(0.99954194 0.003159102 0)
(0.99967707 0.0031351009 0)
(0.99980531 0.003106508 0)
(0.9999273 0.0030732942 0)
(1.0000433 0.0030351921 0)
(1.0001528 0.002991768 0)
(1.0002549 0.0029433442 0)
(1.0003488 0.0028907387 0)
(1.0004334 0.0028346628 0)
(1.0005083 0.0027759354 0)
(1.0005731 0.0027156664 0)
(1.0006271 0.0026552603 0)
(1.0006699 0.002596478 0)
(1.000702 0.0025417402 0)
(1.0007241 0.0024921177 0)
(1.0007369 0.0024480588 0)
(1.0007412 0.0024103748 0)
(1.0007375 0.0023784727 0)
(1.0007253 0.0023508946 0)
(1.0007027 0.0023258626 0)
(1.0006657 0.0023030028 0)
(1.0006095 0.0022822956 0)
(1.0005224 0.0022635489 0)
(1.0003853 0.0022472925 0)
(1.0001735 0.002233605 0)
(0.99984851 0.002221156 0)
(0.99935189 0.0022065157 0)
(0.99856365 0.0021868868 0)
(0.9972857 0.0021586469 0)
(0.99533053 0.0021179736 0)
(0.9925325 0.0020647541 0)
(0.98877962 0.0019987896 0)
(0.98407173 0.0019149481 0)
(0.97858367 0.0018165752 0)
(0.97255853 0.0017118783 0)
(0.96627196 0.0016039146 0)
(0.95997795 0.0014987968 0)
(0.95384331 0.0014022844 0)
(0.94793524 0.0013155373 0)
(0.94225093 0.0012393106 0)
(0.93675926 0.001172581 0)
(0.93143207 0.0011126864 0)
(0.92625406 0.0010572594 0)
(0.92121854 0.0010049931 0)
(0.91632088 0.00095524933 0)
(0.91155504 0.0009079322 0)
(0.90691333 0.0008632638 0)
(0.90238786 0.00082117593 0)
(0.89797213 0.00078146652 0)
(0.89366095 0.00074399556 0)
(0.88944949 0.0007086095 0)
(0.8853331 0.00067513884 0)
(0.88130749 0.00064347609 0)
(0.87736867 0.00061352052 0)
(0.87351299 0.0005851335 0)
(0.86973714 0.00055823398 0)
(0.86603792 0.0005327388 0)
(0.86241237 0.00050854609 0)
(0.85885772 0.00048559693 0)
(0.85537132 0.00046381253 0)
(0.85195072 0.00044312121 0)
(0.84859356 0.00042347101 0)
(0.84529761 0.00040479656 0)
(0.84206072 0.00038704827 0)
(0.83888087 0.00037017254 0)
(0.8357561 0.00035412017 0)
(0.83268455 0.00033884943 0)
(0.82966444 0.0003243167 0)
(0.82669404 0.00031048324 0)
(0.82377169 0.00029731168 0)
(0.82089581 0.00028476723 0)
(0.81806486 0.00027281728 0)
(0.81527736 0.00026143146 0)
(0.81253186 0.00025058144 0)
(0.80982696 0.0002402413 0)
(0.80716129 0.00023038674 0)
(0.80453349 0.00022099774 0)
(0.80194216 0.00021205278 0)
(0.79938605 0.00020354644 0)
(0.79686325 0.00019544709 0)
(0.79437337 0.000187816 0)
(0.79191118 0.00018051533 0)
(0.78948295 0.00017397611 0)
(0.78706231 0.00016740693 0)
(0.78470208 0.00016319004 0)
(0.78224114 0.00015591723 0)
(0.78012999 0.00017260579 5.0903161e-20)
(0.77638348 0.0001424966 0)
(0.99688922 0.0018966188 0)
(0.99710231 0.0023703692 0)
(0.99743809 0.0026803822 0)
(0.99775854 0.0028537676 0)
(0.99802817 0.0029683708 0)
(0.99827095 0.0030514495 0)
(0.99849846 0.0031037115 0)
(0.99870657 0.0031338075 0)
(0.99889555 0.0031499972 0)
(0.99906987 0.0031561581 0)
(0.99923248 0.0031538554 0)
(0.99938498 0.0031450071 0)
(0.99952857 0.0031299831 0)
(0.99966424 0.0031102563 0)
(0.99979321 0.0030857515 0)
(0.99991608 0.003056383 0)
(1.0000331 0.0030218923 0)
(1.0001438 0.0029819182 0)
(1.0002476 0.0029366742 0)
(1.0003436 0.0028868364 0)
(1.0004313 0.002833137 0)
(1.0005103 0.0027764583 0)
(1.00058 0.0027178622 0)
(1.0006401 0.0026587061 0)
(1.0006904 0.0026007095 0)
(1.0007314 0.0025458306 0)
(1.0007647 0.002495231 0)
(1.0007913 0.0024498065 0)
(1.0008129 0.0024106005 0)
(1.0008311 0.0023774644 0)
(1.0008471 0.0023493741 0)
(1.0008613 0.0023252406 0)
(1.0008731 0.0023044959 0)
(1.0008821 0.0022859496 0)
(1.0008865 0.0022686552 0)
(1.000884 0.002252558 0)
(1.0008717 0.002237065 0)
(1.0008457 0.0022215704 0)
(1.0008004 0.0022061513 0)
(1.0007272 0.0021907938 0)
(1.0006076 0.0021753808 0)
(1.0004156 0.0021601687 0)
(1.0001129 0.0021447393 0)
(0.99964222 0.0021273314 0)
(0.99888795 0.0021061511 0)
(0.99766543 0.0020779561 0)
(0.9957971 0.0020390678 0)
(0.99313061 0.0019901081 0)
(0.98955899 0.0019250856 0)
(0.98515341 0.0018427454 0)
(0.98007839 0.0017518406 0)
(0.97456583 0.0016555726 0)
(0.96886323 0.0015592409 0)
(0.96316261 0.0014679975 0)
(0.9575691 0.0013834932 0)
(0.95211554 0.0013070148 0)
(0.94679797 0.0012382417 0)
(0.94160532 0.0011755134 0)
(0.93653215 0.0011171904 0)
(0.93157772 0.0010621833 0)
(0.92674147 0.0010099626 0)
(0.92202051 0.00096049917 0)
(0.91741003 0.00091378185 0)
(0.91290522 0.00086965634 0)
(0.90850202 0.00082797141 0)
(0.90419668 0.00078858417 0)
(0.89998546 0.00075131646 0)
(0.89586477 0.0007160555 0)
(0.89183115 0.00068268346 0)
(0.88788136 0.00065106124 0)
(0.88401237 0.00062110256 0)
(0.88022122 0.00059270024 0)
(0.87650516 0.00056575607 0)
(0.87286154 0.00054019593 0)
(0.86928783 0.00051593207 0)
(0.86578161 0.0004928958 0)
(0.86234057 0.00047101485 0)
(0.8589625 0.00045022286 0)
(0.85564527 0.00043046281 0)
(0.85238684 0.00041167621 0)
(0.84918524 0.00039381072 0)
(0.84603858 0.00037681616 0)
(0.84294505 0.00036064586 0)
(0.83990287 0.00034525611 0)
(0.83691035 0.0003306062 0)
(0.83396584 0.00031665818 0)
(0.83106773 0.00030337725 0)
(0.82821444 0.00029073079 0)
(0.82540445 0.00027869169 0)
(0.82263613 0.0002672308 0)
(0.8199081 0.00025633979 0)
(0.81721825 0.00024597572 0)
(0.814566 0.00023621618 0)
(0.81194607 0.0002268769 0)
(0.80936435 0.00021851769 0)
(0.80679482 0.0002100652 0)
(0.80428953 0.00020472507 0)
(0.80168653 0.00019466944 0)
(0.79945026 0.00021843602 4.7668744e-20)
(0.79549933 0.00017455238 0)
(0.99703203 0.0018631263 0)
(0.99721199 0.0022928798 0)
(0.99750177 0.0025928554 0)
(0.99779169 0.002774379 0)
(0.99804615 0.0028972158 0)
(0.99827895 0.0029869612 0)
(0.99849876 0.0030463594 0)
(0.99870199 0.0030830274 0)
(0.99888813 0.0031048192 0)
(0.99906064 0.0031157058 0)
(0.99922209 0.0031174794 0)
(0.99937387 0.0031120461 0)
(0.99951705 0.0031000404 0)
(0.99965255 0.0030827033 0)
(0.99978144 0.0030602304 0)
(0.99990433 0.0030326357 0)
(1.0000214 0.0029997915 0)
(1.0001323 0.0029614654 0)
(1.0002365 0.0029178792 0)
(1.0003331 0.0028696954 0)
(1.0004218 0.0028176716 0)
(1.0005021 0.0027626836 0)
(1.0005736 0.0027057708 0)
(1.000636 0.0026482468 0)
(1.0006892 0.0025917552 0)
(1.0007339 0.0025382121 0)
(1.0007714 0.0024888778 0)
(1.000803 0.0024446623 0)
(1.0008302 0.0024064387 0)
(1.0008549 0.0023740544 0)
(1.0008787 0.0023466342 0)
(1.0009022 0.0023230673 0)
(1.0009254 0.0023025413 0)
(1.0009484 0.0022839214 0)
(1.0009706 0.0022665076 0)
(1.0009912 0.002250313 0)
(1.0010097 0.0022349605 0)
(1.0010255 0.0022202477 0)
(1.0010373 0.0022061052 0)
(1.0010439 0.0021919637 0)
(1.0010426 0.0021775298 0)
(1.0010297 0.002162893 0)
(1.0010001 0.0021479524 0)
(1.0009474 0.0021328619 0)
(1.0008611 0.0021174944 0)
(1.0007191 0.0021015638 0)
(1.0004911 0.0020851576 0)
(1.0001299 0.0020673208 0)
(0.99956804 0.0020475395 0)
(0.9986449 0.0020238092 0)
(0.99719537 0.0019919079 0)
(0.99506114 0.001950962 0)
(0.99211168 0.0018956163 0)
(0.9883619 0.001824283 0)
(0.98392583 0.0017436533 0)
(0.97899668 0.0016571215 0)
(0.97379902 0.0015696356 0)
(0.96851488 0.0014851658 0)
(0.96325539 0.0014055014 0)
(0.95806757 0.0013319815 0)
(0.95296396 0.0012644505 0)
(0.94794767 0.0012019084 0)
(0.9430229 0.0011432373 0)
(0.93819456 0.0010876741 0)
(0.93346518 0.0010349641 0)
(0.92883421 0.00098505232 0)
(0.9242997 0.00093781165 0)
(0.91985962 0.00089311911 0)
(0.9155118 0.00085083083 0)
(0.91125387 0.00081078197 0)
(0.90708329 0.00077286519 0)
(0.90299744 0.00073694566 0)
(0.89899378 0.00070289769 0)
(0.8950698 0.00067062377 0)
(0.89122299 0.00064001192 0)
(0.88745095 0.00061097211 0)
(0.88375127 0.00058341098 0)
(0.88012167 0.00055724279 0)
(0.87655992 0.00053239311 0)
(0.87306382 0.00050878653 0)
(0.86963129 0.00048635518 0)
(0.86626027 0.0004650343 0)
(0.86294878 0.00044476361 0)
(0.8596949 0.0004254867 0)
(0.85649677 0.00040715098 0)
(0.85335255 0.0003897074 0)
(0.85026049 0.00037311093 0)
(0.84721882 0.00035731929 0)
(0.84422586 0.00034229708 0)
(0.84127983 0.00032800635 0)
(0.83837916 0.00031443484 0)
(0.83552162 0.00030152722 0)
(0.83270643 0.00028937671 0)
(0.82992825 0.00027775108 0)
(0.82719265 0.00026734132 0)
(0.82447388 0.0002567796 0)
(0.82182342 0.00025014624 0)
(0.81907807 0.00023695478 -1.3189085e-20)
(0.81671695 0.00026855769 0)
(0.81256198 0.00020921414 -8.7322081e-21)
(0.9971698 0.0018342969 0)
(0.99732282 0.0022243925 0)
(0.99757289 0.0025122153 0)
(0.9978341 0.0026984122 0)
(0.99807276 0.0028279081 0)
(0.99829482 0.0029236987 0)
(0.99850609 0.0029896108 0)
(0.99870339 0.0030322497 0)
(0.99888565 0.0030590956 0)
(0.99905547 0.003074277 0)
(0.99921499 0.0030797881 0)
(0.99936541 0.0030775162 0)
(0.99950764 0.0030683421 0)
(0.99964249 0.0030534186 0)
(0.9997709 0.0030331211 0)
(0.99989342 0.0030075318 0)
(1.0000102 0.0029766092 0)
(1.0001209 0.0029402236 0)
(1.000225 0.0028986101 0)
(1.0003218 0.0028524035 0)
(1.0004109 0.0028023501 0)
(1.0004919 0.002749307 0)
(1.0005643 0.0026942995 0)
(1.000628 0.0026386107 0)
(1.0006828 0.0025838181 0)
(1.0007295 0.0025317341 0)
(1.0007692 0.0024836114 0)
(1.0008033 0.0024403139 0)
(1.0008333 0.0024026625 0)
(1.0008611 0.0023705966 0)
(1.0008882 0.0023433166 0)
(1.0009153 0.0023197736 0)
(1.0009427 0.0022991978 0)
(1.0009706 0.0022806134 0)
(1.0009986 0.0022633707 0)
(1.0010263 0.0022474227 0)
(1.0010537 0.0022324334 0)
(1.0010804 0.0022181405 0)
(1.0011063 0.0022043177 0)
(1.0011307 0.0021904397 0)
(1.0011529 0.0021763093 0)
(1.0011717 0.0021620312 0)
(1.0011862 0.0021476085 0)
(1.0011949 0.0021331709 0)
(1.0011961 0.0021185182 0)
(1.0011865 0.0021036298 0)
(1.0011613 0.002088644 0)
(1.0011138 0.0020737663 0)
(1.001036 0.0020588303 0)
(1.0009085 0.0020432098 0)
(1.0007024 0.0020267386 0)
(1.0003742 0.0020088595 0)
(0.99986227 0.0019894048 0)
(0.99902696 0.0019667652 0)
(0.99771521 0.0019373913 0)
(0.99577335 0.0018991548 0)
(0.99308 0.0018472372 0)
(0.98964171 0.0017816273 0)
(0.98555389 0.0017074309 0)
(0.98099206 0.0016282789 0)
(0.97615516 0.0015483661 0)
(0.97120237 0.0014702259 0)
(0.96623091 0.0013959176 0)
(0.9612869 0.0013264477 0)
(0.95639022 0.0012617194 0)
(0.95155337 0.0012009527 0)
(0.94678728 0.0011434136 0)
(0.94209989 0.0010887695 0)
(0.93749519 0.0010369 0)
(0.93297469 0.00098769434 0)
(0.9285388 0.0009410598 0)
(0.9241873 0.00089685178 0)
(0.91991937 0.00085493471 0)
(0.91573374 0.00081519979 0)
(0.91162882 0.0007775167 0)
(0.90760288 0.00074177781 0)
(0.90365405 0.0007078708 0)
(0.89978038 0.00067569124 0)
(0.89597989 0.00064514706 0)
(0.89225058 0.00061614537 0)
(0.88859043 0.00058860203 0)
(0.88499745 0.00056243676 0)
(0.88146968 0.00053757468 0)
(0.87800515 0.00051394562 0)
(0.87460195 0.00049148404 0)
(0.87125819 0.00047012866 0)
(0.86797201 0.00044982311 0)
(0.86474155 0.00043051438 0)
(0.86156502 0.00041215772 0)
(0.85844053 0.00039470537 0)
(0.85536638 0.0003781401 0)
(0.85234022 0.00036239333 0)
(0.84936114 0.00034757311 0)
(0.84642373 0.00033339799 0)
(0.84353329 0.00032069199 0)
(0.84066429 0.00030778142 0)
(0.83786782 0.00029967158 0)
(0.8349791 0.00028297553 0)
(0.83249257 0.00032316032 4.5013231e-20)
(0.82813254 0.00024666597 0)
(0.9972995 0.0018089514 0)
(0.99743103 0.0021636234 0)
(0.99764757 0.0024380693 0)
(0.99788263 0.0026262447 0)
(0.9981056 0.0027607968 0)
(0.99831671 0.0028615963 0)
(0.99851913 0.0029331181 0)
(0.99870997 0.0029811767 0)
(0.99888775 0.0030127615 0)
(0.99905425 0.0030320694 0)
(0.99921126 0.0030412331 0)
(0.99935977 0.0030421231 0)
(0.99950055 0.0030358084 0)
(0.99963432 0.0030233886 0)
(0.99976186 0.0030053502 0)
(0.99988365 0.0029818474 0)
(0.9999998 0.0029529171 0)
(1.0001101 0.0029185236 0)
(1.0002139 0.0028789203 0)
(1.0003106 0.0028347157 0)
(1.0003998 0.0027866433 0)
(1.0004811 0.0027355482 0)
(1.0005541 0.0026824415 0)
(1.0006186 0.0026285734 0)
(1.0006746 0.0025754538 0)
(1.0007227 0.0025247893 0)
(1.000764 0.0024778197 0)
(1.0007998 0.0024354047 0)
(1.0008317 0.002398324 0)
(1.0008613 0.0023665748 0)
(1.0008902 0.0023394467 0)
(1.0009192 0.0023159804 0)
(1.0009487 0.002295444 0)
(1.0009788 0.0022769388 0)
(1.0010093 0.0022598163 0)
(1.00104 0.002243975 0)
(1.0010709 0.0022290995 0)
(1.0011019 0.0022149068 0)
(1.0011328 0.0022011741 0)
(1.0011635 0.0021874572 0)
(1.0011934 0.002173571 0)
(1.001222 0.0021596026 0)
(1.0012489 0.0021455925 0)
(1.0012737 0.0021316038 0)
(1.0012959 0.002117445 0)
(1.0013145 0.0021031117 0)
(1.0013283 0.0020887284 0)
(1.0013358 0.0020744539 0)
(1.0013355 0.002060022 0)
(1.0013242 0.0020452794 0)
(1.0012968 0.0020305143 0)
(1.001246 0.0020159111 0)
(1.0011631 0.0020012879 0)
(1.0010284 0.0019860041 0)
(1.0008114 0.0019696871 0)
(1.0004675 0.0019518877 0)
(0.99992495 0.00193237 0)
(0.99904964 0.0019093394 0)
(0.99769755 0.0018800399 0)
(0.99572043 0.001840447 0)
(0.99303802 0.0017877916 0)
(0.98966636 0.001724679 0)
(0.98571279 0.0016544862 0)
(0.98134933 0.0015808712 0)
(0.97674731 0.0015066331 0)
(0.97203523 0.0014341007 0)
(0.96728842 0.0013649531 0)
(0.96254554 0.0012998204 0)
(0.95782961 0.0012383607 0)
(0.95315823 0.0011800249 0)
(0.9485445 0.0011245214 0)
(0.94399667 0.0010717019 0)
(0.93951965 0.0010214817 0)
(0.93511644 0.00097378233 0)
(0.9307888 0.0009284802 0)
(0.92653748 0.00088547181 0)
(0.92236245 0.00084464213 0)
(0.9182632 0.00080587823 0)
(0.91423885 0.00076907726 0)
(0.91028822 0.00073413342 0)
(0.90640994 0.00070094915 0)
(0.90260251 0.00066943031 0)
(0.8988643 0.00063948835 0)
(0.89519363 0.00061103975 0)
(0.89158875 0.00058400607 0)
(0.88804791 0.00055831365 0)
(0.88456932 0.00053389442 0)
(0.88115117 0.00051068412 0)
(0.87779165 0.00048862807 0)
(0.87448886 0.00046766806 0)
(0.87124107 0.00044778122 0)
(0.86804587 0.000428885 0)
(0.86490226 0.00041110163 0)
(0.86180483 0.00039409959 0)
(0.85875864 0.00037883729 0)
(0.85573839 0.00036332485 0)
(0.85279493 0.00035354204 0)
(0.8497616 0.00033295679 0)
(0.84714876 0.00038248283 0)
(0.84258198 0.00028710493 0)
(0.99742091 0.0017863189 0)
(0.99753505 0.0021094388 0)
(0.99772331 0.002369863 0)
(0.99793477 0.0025577215 0)
(0.99814249 0.0026957526 0)
(0.99834268 0.0028005602 0)
(0.99853627 0.0028769257 0)
(0.99872046 0.0029299664 0)
(0.99889346 0.002966048 0)
(0.99905633 0.002989334 0)
(0.99921049 0.0030020585 0)
(0.99935674 0.0030060768 0)
(0.99949572 0.0030025926 0)
(0.99962806 0.0029926793 0)
(0.99975441 0.0029769072 0)
(0.99987518 0.0029555079 0)
(0.99999045 0.0029285911 0)
(1.0001 0.0028962043 0)
(1.0002032 0.0028586227 0)
(1.0002997 0.0028164334 0)
(1.0003888 0.0027703575 0)
(1.0004703 0.0027212282 0)
(1.0005437 0.0026700392 0)
(1.0006088 0.0026180052 0)
(1.0006657 0.0025665711 0)
(1.0007149 0.0025173476 0)
(1.0007575 0.0024715582 0)
(1.0007947 0.0024300601 0)
(1.000828 0.0023935914 0)
(1.000859 0.0023621955 0)
(1.0008892 0.0023352524 0)
(1.0009194 0.0023118862 0)
(1.0009501 0.0022913942 0)
(1.0009814 0.00227294 0)
(1.0010133 0.0022558935 0)
(1.0010455 0.0022401175 0)
(1.0010782 0.0022253146 0)
(1.0011111 0.0022112011 0)
(1.0011444 0.0021975602 0)