/*--------------------------------*- C++ -*----------------------------------*\
  =========                 |
  \\      /  F ield         | OpenFOAM: The Open Source CFD Toolbox
   \\    /   O peration     | Website:  https://openfoam.org
    \\  /    A nd           | Version:  12
     \\/     M anipulation  |
\*---------------------------------------------------------------------------*/
FoamFile
{
    format      ascii;
    class       volScalarField;
    location    "400";
    object      yPlus;
}
// * * * * * * * * * * * * * * * * * * * * * * * * * * * * * * * * * * * * * //

dimensions      [];

internalField   uniform 0;

boundaryField
{
    inlet
    {
        type            calculated;
        value           uniform 0;
    }
    top
    {
        type            calculated;
        value           uniform 0;
    }
    outlet
    {
        type            calculated;
        value           uniform 0;
    }
    slipsurface
    {
        type            calculated;
        value           uniform 0;
    }
    bottom
    {
        type            calculated;
        value           nonuniform List<scalar> 
100
(
116.33749
115.1877
113.91551
112.56487
111.17672
109.77948
108.38368
106.99371
105.61365
104.24706
102.89692
101.56556
100.2556
98.969981
97.71218
96.486842
95.3008
94.163955
93.084706
92.070425
91.127683
90.262029
89.477521
88.77698
88.160439
87.623602
87.158258
86.753311
86.395394
86.070747
85.76751
85.477068
85.194046
84.915547
84.64024
84.367126
84.094906
83.822171
83.547829
83.271603
82.994178
82.716724
82.440373
82.165828
81.893415
81.623358
81.355912
81.091304
80.829716
80.571309
80.316169
80.06427
79.815574
79.5701
79.327859
79.088784
78.852788
78.619839
78.389874
78.162818
77.938603
77.717169
77.498435
77.28233
77.068804
76.857793
76.649232
76.44307
76.239242
76.037688
75.838353
75.641173
75.446096
75.253066
75.062027
74.872928
74.685717
74.500344
74.316764
74.134927
73.954789
73.776305
73.599432
73.424126
73.250346
73.07805
72.907198
72.737744
72.569649
72.402857
72.237332
72.072963
71.9098
71.747378
71.58646
71.424353
71.26666
71.097524
70.95641
70.693616
)
;
    }
    frontandback
    {
        type            empty;
    }
}


// ************************************************************************* //
