/*--------------------------------*- C++ -*----------------------------------*\
  =========                 |
  \\      /  F ield         | OpenFOAM: The Open Source CFD Toolbox
   \\    /   O peration     | Website:  https://openfoam.org
    \\  /    A nd           | Version:  12
     \\/     M anipulation  |
\*---------------------------------------------------------------------------*/
FoamFile
{
    format      ascii;
    class       volScalarField;
    location    "900";
    object      nut;
}
// * * * * * * * * * * * * * * * * * * * * * * * * * * * * * * * * * * * * * //

dimensions      [0 2 -1 0 0 0 0];

internalField   nonuniform List<scalar> 
7480
(
8.0764728e-08
4.2961544e-08
3.1056024e-08
2.8364923e-08
3.1794854e-06
5.3315647e-06
6.3338417e-06
6.9862856e-06
7.3992135e-06
7.6473034e-06
7.4894756e-06
7.219354e-06
6.8980553e-06
6.557544e-06
6.2182678e-06
5.8931458e-06
5.5905759e-06
5.3200535e-06
5.0763009e-06
4.864549e-06
4.6803593e-06
4.5210672e-06
4.3859974e-06
4.2746384e-06
4.1861639e-06
4.1199479e-06
4.0749059e-06
4.0495488e-06
4.0421705e-06
4.0508906e-06
4.073662e-06
4.108383e-06
4.1530005e-06
4.2077121e-06
4.2711679e-06
4.3413272e-06
4.4158532e-06
4.492432e-06
4.5696732e-06
4.6465647e-06
4.7219915e-06
4.7948428e-06
4.8642427e-06
4.9294777e-06
4.9899833e-06
5.0454348e-06
5.0953182e-06
5.1412234e-06
5.1827745e-06
5.219235e-06
5.2501663e-06
5.2754756e-06
5.2954837e-06
5.3109461e-06
5.3226828e-06
5.3315278e-06
5.3384229e-06
5.3438841e-06
5.3481911e-06
5.3514258e-06
5.3535225e-06
5.3545551e-06
5.3547799e-06
5.3543931e-06
5.3534441e-06
5.3520424e-06
5.3504928e-06
5.3488173e-06
5.3468661e-06
5.3445884e-06
5.3419508e-06
5.3388512e-06
5.3353711e-06
5.3316322e-06
5.3276156e-06
5.3233728e-06
5.3189828e-06
5.3143178e-06
5.3093279e-06
5.3041157e-06
5.2986463e-06
5.2929584e-06
5.2871592e-06
5.2811736e-06
5.274968e-06
5.2685915e-06
5.2620312e-06
5.2553215e-06
5.2484751e-06
5.2414942e-06
5.2343845e-06
5.2271172e-06
5.2197146e-06
5.2122044e-06
5.2045046e-06
5.1967704e-06
5.1889103e-06
5.1803477e-06
5.1684759e-06
5.1776474e-06
1.6699856e-07
1.6479304e-07
1.6275578e-07
1.6152402e-07
7.8952452e-07
2.0014214e-06
3.2199491e-06
4.1000951e-06
4.610256e-06
4.8537247e-06
4.9291979e-06
4.9200534e-06
4.9202785e-06
4.9672945e-06
5.0575565e-06
5.1937286e-06
5.4001158e-06
5.7434916e-06
5.8738043e-06
6.1613457e-06
6.4632342e-06
6.7819254e-06
7.1155446e-06
7.4621043e-06
7.8193663e-06
8.1874995e-06
8.5617566e-06
8.9378207e-06
9.3126561e-06
9.6838614e-06
1.0049724e-05
1.0409581e-05
1.0764421e-05
1.1116871e-05
1.1463991e-05
1.1800498e-05
1.2120583e-05
1.2422147e-05
1.2708268e-05
1.2978481e-05
1.3231736e-05
1.3467465e-05
1.3684902e-05
1.3883313e-05
1.4063213e-05
1.4225407e-05
1.4370786e-05
1.4498952e-05
1.4609863e-05
1.4704754e-05
1.4785438e-05
1.4853859e-05
1.4912071e-05
1.4962333e-05
1.5006449e-05
1.5046412e-05
1.5083757e-05
1.5118026e-05
1.5149209e-05
1.5177528e-05
1.5203203e-05
1.5226666e-05
1.5248399e-05
1.5268596e-05
1.5287233e-05
1.5304403e-05
1.5320326e-05
1.5334543e-05
1.5346745e-05
1.5357076e-05
1.5365731e-05
1.5372781e-05
1.5378534e-05
1.5383164e-05
1.5386473e-05
1.5388384e-05
1.5388907e-05
1.5387936e-05
1.5385682e-05
1.5382456e-05
1.5378267e-05
1.5373143e-05
1.5367045e-05
1.5359784e-05
1.5351482e-05
1.5342351e-05
1.5332486e-05
1.532193e-05
1.5310569e-05
1.529839e-05
1.5285472e-05
1.5271904e-05
1.5257801e-05
1.5243123e-05
1.5227669e-05
1.5211888e-05
1.519523e-05
1.5177448e-05
1.515731e-05
1.515408e-05
1.6882496e-07
1.6856649e-07
1.6827214e-07
1.6795699e-07
1.7998492e-07
2.3387131e-07
3.7066149e-07
6.1994032e-07
9.797961e-07
1.4139738e-06
1.8590329e-06
2.2551493e-06
2.5711613e-06
2.804949e-06
2.9700469e-06
3.0862932e-06
3.1760987e-06
3.2764507e-06
3.4092331e-06
3.580181e-06
3.7897975e-06
4.0379693e-06
4.3259886e-06
4.6573604e-06
5.0375023e-06
5.4517099e-06
5.9086705e-06
6.4112175e-06
6.9626064e-06
7.5669328e-06
8.2300782e-06
8.9618561e-06
9.7490886e-06
1.0441498e-05
1.1159127e-05
1.189733e-05
1.2644517e-05
1.3390922e-05
1.4133856e-05
1.486695e-05
1.5587484e-05
1.6292784e-05
1.6970274e-05
1.7614454e-05
1.8230658e-05
1.8817216e-05
1.937445e-05
1.9795169e-05
2.0168064e-05
2.0510551e-05
2.0826804e-05
2.1119848e-05
2.1392506e-05
2.1647956e-05
2.1888804e-05
2.2114981e-05
2.2325278e-05
2.2520885e-05
2.2703803e-05
2.2876011e-05
2.3038867e-05
2.3193385e-05
2.3340195e-05
2.3479654e-05
2.3612134e-05
2.373787e-05
2.3855782e-05
2.3965732e-05
2.4068424e-05
2.4164816e-05
2.4255554e-05
2.4340931e-05
2.4421437e-05
2.4497368e-05
2.4567869e-05
2.4632797e-05
2.4692597e-05
2.4747666e-05
2.4798689e-05
2.4846133e-05
2.4890091e-05
2.4930283e-05
2.4966443e-05
2.4998639e-05
2.5027479e-05
2.5053406e-05
2.5076681e-05
2.5097179e-05
2.5114557e-05
2.5129005e-05
2.5140892e-05
2.515053e-05
2.5158113e-05
2.5163324e-05
2.5166055e-05
2.5166819e-05
2.5165941e-05
2.5159502e-05
2.5161617e-05
2.5117426e-05
1.6885088e-07
1.6864761e-07
1.6843952e-07
1.6822686e-07
1.6818693e-07
1.6896542e-07
1.7200441e-07
1.7977388e-07
1.9582158e-07
2.2501152e-07
2.7252092e-07
3.4287705e-07
4.3897971e-07
5.6140284e-07
7.0817577e-07
8.7496538e-07
1.0557656e-06
1.2452697e-06
1.4385577e-06
1.6317257e-06
1.8219128e-06
2.0080655e-06
2.1905452e-06
2.3709981e-06
2.5526786e-06
2.7515896e-06
2.9713467e-06
3.2171152e-06
3.4959191e-06
3.8170422e-06
4.1928058e-06
4.6394692e-06
5.1787783e-06
5.7986516e-06
6.5088735e-06
7.3170291e-06
8.2236853e-06
9.2226587e-06
1.0049985e-05
1.0924406e-05
1.1839938e-05
1.2790951e-05
1.3770276e-05
1.4770346e-05
1.577731e-05
1.6778545e-05
1.7768184e-05
1.8737434e-05
1.967382e-05
2.0577612e-05
2.1449591e-05
2.2286134e-05
2.3084604e-05
2.3843135e-05
2.4564142e-05
2.5198214e-05
2.5728556e-05
2.6228751e-05
2.6703906e-05
2.7157542e-05
2.7591323e-05
2.8006431e-05
2.8404e-05
2.8785275e-05
2.9151327e-05
2.9501992e-05
2.9834395e-05
3.0149325e-05
3.044854e-05
3.073372e-05
3.1005931e-05
3.1265735e-05
3.1513983e-05
3.1751348e-05
3.1976464e-05
3.2189299e-05
3.2390808e-05
3.2581784e-05
3.2763178e-05
3.2935727e-05
3.3099733e-05
3.3254636e-05
3.3400308e-05
3.3537192e-05
3.3666203e-05
3.3788041e-05
3.3903156e-05
3.4011261e-05
3.4112021e-05
3.420594e-05
3.4293691e-05
3.4375786e-05
3.4452461e-05
3.452328e-05
3.4588165e-05
3.4648308e-05
3.4703451e-05
3.4750431e-05
3.4799372e-05
3.4801309e-05
1.6885088e-07
1.6864877e-07
1.6844341e-07
1.6823497e-07
1.6802592e-07
1.6782784e-07
1.6767382e-07
1.6763633e-07
1.6784743e-07
1.6852882e-07
1.700142e-07
1.7276994e-07
1.7740515e-07
1.8467646e-07
1.9549417e-07
2.1091902e-07
2.321576e-07
2.6056957e-07
2.9767696e-07
3.450819e-07
4.043452e-07
4.7703228e-07
5.6469948e-07
6.6880674e-07
7.907369e-07
9.3170841e-07
1.0920354e-06
1.271182e-06
1.4680024e-06
1.6810698e-06
1.9091731e-06
2.1522017e-06
2.4111432e-06
2.7049059e-06
3.0418919e-06
3.4341057e-06
3.8968075e-06
4.4487185e-06
5.1204888e-06
5.8939189e-06
6.7769901e-06
7.7761013e-06
8.8969322e-06
9.8758921e-06
1.0795327e-05
1.1789283e-05
1.2840777e-05
1.3945061e-05
1.5095258e-05
1.6281334e-05
1.7478792e-05
1.8671489e-05
1.9852364e-05
2.1016506e-05
2.2172998e-05
2.3311722e-05
2.441975e-05
2.5488205e-05
2.6510439e-05
2.7490095e-05
2.8432292e-05
2.9342266e-05
3.0222168e-05
3.1070666e-05
3.1885188e-05
3.2646191e-05
3.3283867e-05
3.3893447e-05
3.4478472e-05
3.5040847e-05
3.5581622e-05
3.610165e-05
3.6602257e-05
3.708434e-05
3.7544588e-05
3.7983166e-05
3.8402037e-05
3.8802657e-05
3.9186296e-05
3.955398e-05
3.9906322e-05
4.0242229e-05
4.056174e-05
4.0865787e-05
4.1155608e-05
4.1432191e-05
4.1696213e-05
4.1947166e-05
4.2184846e-05
4.2410161e-05
4.2624085e-05
4.2827343e-05
4.3020191e-05
4.3202094e-05
4.3373186e-05
4.3535291e-05
4.3687654e-05
4.3828166e-05
4.396213e-05
4.4045878e-05
1.6885051e-07
1.6864848e-07
1.6844331e-07
1.6823507e-07
1.6802383e-07
1.6780983e-07
1.6759374e-07
1.6737731e-07
1.6716431e-07
1.6696201e-07
1.6678325e-07
1.6664902e-07
1.6659144e-07
1.6665709e-07
1.6691089e-07
1.6744035e-07
1.683606e-07
1.698212e-07
1.7201616e-07
1.7519301e-07
1.796569e-07
1.8578912e-07
1.9407564e-07
2.0513732e-07
2.1979671e-07
2.3913439e-07
2.6451653e-07
2.9766851e-07
3.4078401e-07
3.966334e-07
4.6864941e-07
5.6111249e-07
6.7893757e-07
8.2758415e-07
1.0123732e-06
1.238099e-06
1.5082684e-06
1.8239711e-06
2.1824456e-06
2.5773752e-06
3.027212e-06
3.5421299e-06
4.1404877e-06
4.8350835e-06
5.6785853e-06
6.6481217e-06
7.7519037e-06
8.9905934e-06
1.0304339e-05
1.1260122e-05
1.2309243e-05
1.3434608e-05
1.4627572e-05
1.5879875e-05
1.7190002e-05
1.853498e-05
1.9894436e-05
2.1253532e-05
2.2600904e-05
2.3963683e-05
2.5323895e-05
2.6670803e-05
2.7991675e-05
2.927803e-05
3.0534272e-05
3.1762206e-05
3.2953145e-05
3.4103624e-05
3.520761e-05
3.6267628e-05
3.7290057e-05
3.8281202e-05
3.9239197e-05
4.0164581e-05
4.0960862e-05
4.1697102e-05
4.2405406e-05
4.308758e-05
4.3744843e-05
4.4378391e-05
4.498915e-05
4.5574104e-05
4.6133488e-05
4.6669226e-05
4.7183065e-05
4.7676311e-05
4.8149875e-05
4.8602748e-05
4.9034825e-05
4.9447485e-05
4.9842041e-05
5.0219479e-05
5.0580048e-05
5.0923063e-05
5.1249026e-05
5.1560285e-05
5.1855732e-05
5.2134367e-05
5.2396941e-05
5.2603712e-05
1.6885018e-07
1.6864811e-07
1.6844293e-07
1.6823468e-07
1.6802344e-07
1.6780925e-07
1.6759214e-07
1.6737217e-07
1.6714944e-07
1.6692415e-07
1.6669673e-07
1.664679e-07
1.6623898e-07
1.6601209e-07
1.6579046e-07
1.6557893e-07
1.6538445e-07
1.6521681e-07
1.6508958e-07
1.6502121e-07
1.6503593e-07
1.6516541e-07
1.6545122e-07
1.6594795e-07
1.6672894e-07
1.678935e-07
1.6957421e-07
1.7194998e-07
1.7526664e-07
1.7986684e-07
1.8623347e-07
1.9506991e-07
2.0740924e-07
2.2475279e-07
2.4927354e-07
2.8415508e-07
3.3406653e-07
4.0573406e-07
5.085953e-07
6.5403127e-07
8.5473567e-07
1.1225865e-06
1.4655154e-06
1.880197e-06
2.3509473e-06
2.8755119e-06
3.4692224e-06
4.1467933e-06
4.9424287e-06
5.8961136e-06
6.9899955e-06
8.2365971e-06
9.6369158e-06
1.1178858e-05
1.2324595e-05
1.3446904e-05
1.4658067e-05
1.5950582e-05
1.7315999e-05
1.8758619e-05
2.0247722e-05
2.1756896e-05
2.3270266e-05
2.4793342e-05
2.6355672e-05
2.7929476e-05
2.9503176e-05
3.105198e-05
3.2578025e-05
3.4080639e-05
3.5559401e-05
3.7009179e-05
3.8418537e-05
3.9788001e-05
4.1111599e-05
4.2389407e-05
4.3618826e-05
4.4800185e-05
4.5938914e-05
4.7040276e-05
4.8108245e-05
4.9041183e-05
4.9902028e-05
5.0731415e-05
5.1531295e-05
5.2302965e-05
5.3047467e-05
5.3762109e-05
5.4446824e-05
5.5103951e-05
5.5735294e-05
5.6342127e-05
5.6924519e-05
5.7481317e-05
5.8013586e-05
5.8524127e-05
5.9011718e-05
5.9476256e-05
5.9914943e-05
6.0289786e-05
1.6884994e-07
1.6864782e-07
1.6844262e-07
1.6823438e-07
1.6802317e-07
1.67809e-07
1.675919e-07
1.6737187e-07
1.6714894e-07
1.6692312e-07
1.6669444e-07
1.6646295e-07
1.6622869e-07
1.6599179e-07
1.6575238e-07
1.6551071e-07
1.6526713e-07
1.6502217e-07
1.6477662e-07
1.6453159e-07
1.6428864e-07
1.640499e-07
1.6381826e-07
1.6359762e-07
1.6339332e-07
1.6321264e-07
1.630654e-07
1.6296496e-07
1.6292972e-07
1.6298534e-07
1.6316801e-07
1.6353028e-07
1.6414995e-07
1.6514217e-07
1.6667908e-07
1.6902392e-07
1.725883e-07
1.7802627e-07
1.8641396e-07
1.9950812e-07
2.2011468e-07
2.5273277e-07
3.0451258e-07
3.8632403e-07
5.1352614e-07
7.050715e-07
9.8105072e-07
1.3565497e-06
1.8329438e-06
2.3845003e-06
3.0011131e-06
3.6958944e-06
4.4871362e-06
5.4553025e-06
6.5846934e-06
7.8712447e-06
9.3280693e-06
1.095239e-05
1.2719145e-05
1.3969662e-05
1.5211597e-05
1.6548009e-05
1.7970738e-05
1.9479929e-05
2.1073321e-05
2.2712271e-05
2.4377234e-05
2.6050945e-05
2.780382e-05
2.9589477e-05
3.1385143e-05
3.3162616e-05
3.4927553e-05
3.6682436e-05
3.843135e-05
4.015921e-05
4.184573e-05
4.348892e-05
4.5094257e-05
4.6660317e-05
4.8182057e-05
4.9645474e-05
5.105119e-05
5.2404675e-05
5.3707819e-05
5.49639e-05
5.6181261e-05
5.7262814e-05
5.8255079e-05
5.9212022e-05
6.0135671e-05
6.102732e-05
6.1886251e-05
6.2709898e-05
6.3500697e-05
6.4261915e-05
6.4992537e-05
6.5692683e-05
6.6357417e-05
6.6948124e-05
1.6884977e-07
1.6864761e-07
1.6844239e-07
1.6823416e-07
1.6802294e-07
1.6780878e-07
1.6759168e-07
1.6737166e-07
1.6714873e-07
1.669229e-07
1.6669421e-07
1.6646266e-07
1.6622829e-07
1.659911e-07
1.6575114e-07
1.6550843e-07
1.6526301e-07
1.6501492e-07
1.6476424e-07
1.6451104e-07
1.6425544e-07
1.6399758e-07
1.6373767e-07
1.6347597e-07
1.6321285e-07
1.6294881e-07
1.6268455e-07
1.6242099e-07
1.6215943e-07
1.6190167e-07
1.6165022e-07
1.6140871e-07
1.6118247e-07
1.609793e-07
1.6081078e-07
1.6069444e-07
1.6065741e-07
1.6074245e-07
1.6101971e-07
1.6160587e-07
1.6269319e-07
1.6460544e-07
1.6789762e-07
1.7353209e-07
1.8319795e-07
1.9982764e-07
2.284408e-07
2.7751147e-07
3.6085798e-07
4.9875727e-07
7.168056e-07
1.0416748e-06
1.4904897e-06
2.0608145e-06
2.7110349e-06
3.4482017e-06
4.281119e-06
5.2760218e-06
6.4971724e-06
7.8848202e-06
9.4507587e-06
1.1199299e-05
1.3109958e-05
1.4941878e-05
1.6246984e-05
1.7652052e-05
1.915328e-05
2.0749407e-05
2.2455447e-05
2.4229131e-05
2.6042469e-05
2.7871962e-05
2.9799289e-05
3.1784097e-05
3.3791681e-05
3.5795712e-05
3.7806215e-05
3.9820775e-05
4.1826904e-05
4.3804617e-05
4.5742903e-05
4.7654588e-05
4.9536128e-05
5.1369822e-05
5.3147922e-05
5.4875301e-05
5.6556959e-05
5.8174738e-05
5.972282e-05
6.1211374e-05
6.264693e-05
6.4033356e-05
6.5329112e-05
6.6469681e-05
6.7569772e-05
6.8632581e-05
6.9657521e-05
7.0643377e-05
7.1584629e-05
7.2441111e-05
1.6884965e-07
1.6864745e-07
1.6844222e-07
1.6823399e-07
1.6802277e-07
1.6780861e-07
1.6759151e-07
1.6737149e-07
1.6714856e-07
1.6692275e-07
1.6669406e-07
1.6646251e-07
1.6622813e-07
1.6599094e-07
1.6575096e-07
1.6550821e-07
1.6526273e-07
1.6501453e-07
1.6476366e-07
1.6451013e-07
1.6425399e-07
1.6399527e-07
1.6373401e-07
1.6347026e-07
1.6320407e-07
1.629355e-07
1.6266463e-07
1.6239155e-07
1.6211637e-07
1.6183924e-07
1.6156036e-07
1.6128e-07
1.6099855e-07
1.6071655e-07
1.6043478e-07
1.6015441e-07
1.598772e-07
1.5960588e-07
1.5934482e-07
1.5910122e-07
1.5888686e-07
1.5872151e-07
1.5863908e-07
1.5869883e-07
1.5900684e-07
1.597538e-07
1.6128236e-07
1.6421708e-07
1.6970991e-07
1.7988798e-07
1.9861809e-07
2.3281662e-07
2.9453357e-07
4.0403581e-07
5.8983996e-07
8.8613288e-07
1.321903e-06
1.9048291e-06
2.6011194e-06
3.4049587e-06
4.3143308e-06
5.4040328e-06
6.7370437e-06
8.2948236e-06
1.0036732e-05
1.1970035e-05
1.407056e-05
1.6297388e-05
1.7757624e-05
1.9266869e-05
2.0877883e-05
2.2593042e-05
2.4429668e-05
2.6345156e-05
2.8308383e-05
3.0313447e-05
3.2447616e-05
3.4650164e-05
3.6873049e-05
3.9104038e-05
4.135516e-05
4.3620505e-05
4.5881332e-05
4.8114508e-05
5.0315802e-05
5.2486866e-05
5.4613736e-05
5.6695447e-05
5.8731301e-05
6.0713326e-05
6.2634138e-05
6.4495294e-05
6.6296449e-05
6.8019169e-05
6.9672015e-05
7.1260303e-05
7.2806949e-05
7.420692e-05
7.5472867e-05
7.66479e-05
1.6884958e-07
1.6864735e-07
1.6844211e-07
1.6823386e-07
1.6802265e-07
1.6780849e-07
1.6759139e-07
1.6737137e-07
1.6714845e-07
1.6692263e-07
1.6669394e-07
1.6646239e-07
1.6622801e-07
1.6599082e-07
1.6575084e-07
1.6550809e-07
1.6526261e-07
1.6501441e-07
1.6476353e-07
1.6451e-07
1.6425384e-07
1.6399509e-07
1.6373378e-07
1.6346994e-07
1.6320361e-07
1.6293482e-07
1.6266362e-07
1.6239004e-07
1.6211413e-07
1.6183592e-07
1.6155548e-07
1.6127285e-07
1.6098809e-07
1.6070128e-07
1.6041252e-07
1.601219e-07
1.5982957e-07
1.5953576e-07
1.5924076e-07
1.5894505e-07
1.5864936e-07
1.5835492e-07
1.5806376e-07
1.5777937e-07
1.57508e-07
1.5726091e-07
1.570585e-07
1.5693834e-07
1.5697075e-07
1.5728944e-07
1.581486e-07
1.6002965e-07
1.6385196e-07
1.7140506e-07
1.8610576e-07
2.1437513e-07
2.6799036e-07
3.6774359e-07
5.4626825e-07
8.4543983e-07
1.3030701e-06
1.9316624e-06
2.6965089e-06
3.5950399e-06
4.6182446e-06
5.8786051e-06
7.3967142e-06
9.1868764e-06
1.1172209e-05
1.3348962e-05
1.5686484e-05
1.8145036e-05
1.9767629e-05
2.1413313e-05
2.3165604e-05
2.5033471e-05
2.7029519e-05
2.9108704e-05
3.1234759e-05
3.3467232e-05
3.5836336e-05
3.8258908e-05
4.0702539e-05
4.3184293e-05
4.5701521e-05
4.8226187e-05
5.0727041e-05
5.3206956e-05
5.5672466e-05
5.810161e-05
6.0475986e-05
6.2797283e-05
6.5069143e-05
6.7289699e-05
6.9445525e-05
7.1530058e-05
7.3562444e-05
7.5518617e-05
7.7321355e-05
7.9468903e-05
1.6884953e-07
1.6864728e-07
1.6844203e-07
1.6823379e-07
1.6802257e-07
1.6780841e-07
1.6759131e-07
1.6737129e-07
1.6714836e-07
1.6692254e-07
1.6669385e-07
1.6646231e-07
1.6622793e-07
1.6599073e-07
1.6575075e-07
1.6550801e-07
1.6526252e-07
1.6501432e-07
1.6476344e-07
1.645099e-07
1.6425374e-07
1.6399498e-07
1.6373367e-07
1.6346982e-07
1.6320349e-07
1.6293469e-07
1.6266347e-07
1.6238987e-07
1.6211392e-07
1.6183566e-07
1.6155514e-07
1.6127239e-07
1.6098746e-07
1.6070038e-07
1.6041122e-07
1.6012e-07
1.598268e-07
1.5953165e-07
1.5923461e-07
1.5893577e-07
1.586352e-07
1.5833302e-07
1.5802939e-07
1.5772455e-07
1.5741889e-07
1.571131e-07
1.5680838e-07
1.5650691e-07
1.5621278e-07
1.5593379e-07
1.5568499e-07
1.5549537e-07
1.5542125e-07
1.5557437e-07
1.5617715e-07
1.5767021e-07
1.6092847e-07
1.6771283e-07
1.815652e-07
2.0946053e-07
2.647173e-07
3.7169527e-07
5.6965298e-07
9.1071788e-07
1.4384779e-06
2.1591142e-06
3.0372021e-06
4.0713849e-06
5.2929996e-06
6.7995731e-06
8.5920725e-06
1.068521e-05
1.2979502e-05
1.5446695e-05
1.8057454e-05
2.0592314e-05
2.2316052e-05
2.412884e-05
2.605414e-05
2.8118069e-05
3.0302525e-05
3.2560247e-05
3.4897651e-05
3.7411232e-05
4.0032647e-05
4.2686597e-05
4.5388874e-05
4.8149548e-05
5.0936776e-05
5.3715755e-05
5.6479265e-05
5.92252e-05
6.1933959e-05
6.4600434e-05
6.7222418e-05
6.978266e-05
7.2284039e-05
7.4737902e-05
7.7013078e-05
8.0061234e-05
1.6884951e-07
1.6864725e-07
1.6844199e-07
1.6823374e-07
1.6802253e-07
1.6780836e-07
1.6759127e-07
1.6737124e-07
1.6714832e-07
1.669225e-07
1.666938e-07
1.6646226e-07
1.6622787e-07
1.6599068e-07
1.6575069e-07
1.6550795e-07
1.6526246e-07
1.6501426e-07
1.6476337e-07
1.6450983e-07
1.6425366e-07
1.6399491e-07
1.6373359e-07
1.6346974e-07
1.632034e-07
1.629346e-07
1.6266338e-07
1.6238978e-07
1.6211383e-07
1.6183557e-07
1.6155504e-07
1.6127228e-07
1.6098734e-07
1.6070025e-07
1.6041107e-07
1.6011982e-07
1.5982657e-07
1.5953135e-07
1.592342e-07
1.5893518e-07
1.5863434e-07
1.5833172e-07
1.5802737e-07
1.5772135e-07
1.5741374e-07
1.571046e-07
1.5679404e-07
1.5648224e-07
1.5616946e-07
1.5585618e-07
1.5554327e-07
1.5523244e-07
1.5492696e-07
1.546334e-07
1.5436501e-07
1.5414855e-07
1.5403823e-07
1.541455e-07
1.5470202e-07
1.5618822e-07
1.5959747e-07
1.6700818e-07
1.8276001e-07
2.1578489e-07
2.8368226e-07
4.1927175e-07
6.7439499e-07
1.1134039e-06
1.7776946e-06
2.6396693e-06
3.6855931e-06
4.9210499e-06
6.4630533e-06
8.3075331e-06
1.04769e-05
1.2944357e-05
1.5583808e-05
1.8372644e-05
2.1284629e-05
2.3554072e-05
2.5458719e-05
2.7469147e-05
2.9614069e-05
3.1907424e-05
3.4299938e-05
3.6761921e-05
3.9428102e-05
4.2249016e-05
4.5115114e-05
4.8049421e-05
5.1065055e-05
5.4115867e-05
5.7163453e-05
6.0207794e-05
6.324541e-05
6.6243363e-05
6.9195588e-05
7.2119062e-05
7.4841193e-05
7.8510939e-05
1.6884952e-07
1.6864724e-07
1.6844198e-07
1.6823373e-07
1.6802251e-07
1.6780835e-07
1.6759125e-07
1.6737123e-07
1.671483e-07
1.6692248e-07
1.6669378e-07
1.6646223e-07
1.6622785e-07
1.6599065e-07
1.6575066e-07
1.6550791e-07
1.6526242e-07
1.6501422e-07
1.6476333e-07
1.6450978e-07
1.6425361e-07
1.6399485e-07
1.6373353e-07
1.6346968e-07
1.6320334e-07
1.6293454e-07
1.6266331e-07
1.623897e-07
1.6211375e-07
1.6183549e-07
1.6155496e-07
1.612722e-07
1.6098726e-07
1.6070017e-07
1.6041098e-07
1.6011974e-07
1.5982648e-07
1.5953125e-07
1.592341e-07
1.5893508e-07
1.5863422e-07
1.5833157e-07
1.5802719e-07
1.5772111e-07
1.5741339e-07
1.5710406e-07
1.5679319e-07
1.5648083e-07
1.5616702e-07
1.5585185e-07
1.5553539e-07
1.5521779e-07
1.5489926e-07
1.5458022e-07
1.5426145e-07
1.5394453e-07
1.5363264e-07
1.5333245e-07
1.5305792e-07
1.5283864e-07
1.5273707e-07
1.5288691e-07
1.5357738e-07
1.5543473e-07
1.5981015e-07
1.6966039e-07
1.9138331e-07
2.385938e-07
3.3869645e-07
5.4069639e-07
9.1602641e-07
1.5335314e-06
2.3972364e-06
3.4759673e-06
4.7535669e-06
6.3657888e-06
8.3163005e-06
1.0616757e-05
1.3257938e-05
1.6118823e-05
1.9119956e-05
2.2247657e-05
2.5120666e-05
2.7167302e-05
2.9280403e-05
3.1527789e-05
3.3944691e-05
3.6478567e-05
3.9088502e-05
4.193187e-05
4.4961361e-05
4.8052737e-05
5.1232749e-05
5.4508873e-05
5.7829604e-05
6.1157598e-05
6.4494455e-05
6.7837451e-05
7.0986591e-05
7.5136125e-05
1.6884954e-07
1.6864725e-07
1.6844199e-07
1.6823374e-07
1.6802252e-07
1.6780836e-07
1.6759126e-07
1.6737124e-07
1.6714831e-07
1.6692248e-07
1.6669379e-07
1.6646223e-07
1.6622785e-07
1.6599065e-07
1.6575066e-07
1.655079e-07
1.6526241e-07
1.650142e-07
1.647633e-07
1.6450976e-07
1.6425358e-07
1.6399482e-07
1.6373349e-07
1.6346964e-07
1.6320329e-07
1.6293449e-07
1.6266326e-07
1.6238965e-07
1.6211369e-07
1.6183543e-07
1.6155489e-07
1.6127213e-07
1.6098719e-07
1.607001e-07
1.6041091e-07
1.6011966e-07
1.5982641e-07
1.5953118e-07
1.5923403e-07
1.58935e-07
1.5863414e-07
1.583315e-07
1.5802711e-07
1.5772103e-07
1.574133e-07
1.5710397e-07
1.5679308e-07
1.5648069e-07
1.5616683e-07
1.5585156e-07
1.5553491e-07
1.5521695e-07
1.5489772e-07
1.545773e-07
1.5425575e-07
1.5393322e-07
1.5360991e-07
1.5328624e-07
1.5296306e-07
1.5264211e-07
1.5232714e-07
1.5202624e-07
1.5175719e-07
1.5155918e-07
1.5151868e-07
1.5182966e-07
1.5293013e-07
1.5580947e-07
1.6270965e-07
1.7870712e-07
2.1513386e-07
2.9640778e-07
4.7056177e-07
8.1452664e-07
1.4135386e-06
2.3004228e-06
3.437505e-06
4.7984419e-06
6.5263791e-06
8.6359149e-06
1.1125525e-05
1.3978703e-05
1.7097945e-05
2.0345991e-05
2.3713866e-05
2.70544e-05
2.9260347e-05
3.1493725e-05
3.3868843e-05
3.6427744e-05
3.9113023e-05
4.1906266e-05
4.4961426e-05
4.8210949e-05
5.1545092e-05
5.4993818e-05
5.8550848e-05
6.2167464e-05
6.5665089e-05
7.0152307e-05
1.6884957e-07
1.6864728e-07
1.6844201e-07
1.6823377e-07
1.6802255e-07
1.6780839e-07
1.6759129e-07
1.6737127e-07
1.6714833e-07
1.6692251e-07
1.6669381e-07
1.6646226e-07
1.6622787e-07
1.6599066e-07
1.6575067e-07
1.6550791e-07
1.6526241e-07
1.650142e-07
1.647633e-07
1.6450975e-07
1.6425358e-07
1.6399481e-07
1.6373348e-07
1.6346962e-07
1.6320327e-07
1.6293446e-07
1.6266323e-07
1.6238961e-07
1.6211365e-07
1.6183538e-07
1.6155485e-07
1.6127208e-07
1.6098714e-07
1.6070004e-07
1.6041085e-07
1.6011961e-07
1.5982635e-07
1.5953112e-07
1.5923397e-07
1.5893494e-07
1.5863408e-07
1.5833143e-07
1.5802704e-07
1.5772096e-07
1.5741323e-07
1.571039e-07
1.5679302e-07
1.5648062e-07
1.5616676e-07
1.5585148e-07
1.5553483e-07
1.5521685e-07
1.5489759e-07
1.5457709e-07
1.542554e-07
1.5393257e-07
1.5360864e-07
1.5328369e-07
1.529578e-07
1.526311e-07
1.5230385e-07
1.5197654e-07
1.5165025e-07
1.5132734e-07
1.5101306e-07
1.5071934e-07
1.5047363e-07
1.5033907e-07
1.504621e-07
1.5118623e-07
1.5331961e-07
1.5876588e-07
1.7204422e-07
2.0369646e-07
2.7744977e-07
4.4322205e-07
7.8619575e-07
1.4067283e-06
2.3489116e-06
3.5787824e-06
5.0702447e-06
6.9760819e-06
9.3061584e-06
1.204931e-05
1.5169203e-05
1.857735e-05
2.2099349e-05
2.5730679e-05
2.9370445e-05
3.1738825e-05
3.4114531e-05
3.6648126e-05
3.937362e-05
4.2226127e-05
4.5248297e-05
4.8552642e-05
5.2039942e-05
5.5656165e-05
5.9324033e-05
6.3880373e-05
1.6884961e-07
1.6864733e-07
1.6844206e-07
1.6823381e-07
1.680226e-07
1.6780844e-07
1.6759134e-07
1.6737131e-07
1.6714838e-07
1.6692255e-07
1.6669385e-07
1.664623e-07
1.662279e-07
1.659907e-07
1.657507e-07
1.6550794e-07
1.6526244e-07
1.6501422e-07
1.6476332e-07
1.6450976e-07
1.6425358e-07
1.6399481e-07
1.6373347e-07
1.6346961e-07
1.6320326e-07
1.6293444e-07
1.6266321e-07
1.6238959e-07
1.6211362e-07
1.6183535e-07
1.6155481e-07
1.6127205e-07
1.609871e-07
1.607e-07
1.6041081e-07
1.6011956e-07
1.598263e-07
1.5953107e-07
1.5923392e-07
1.5893489e-07
1.5863402e-07
1.5833138e-07
1.5802699e-07
1.5772091e-07
1.5741318e-07
1.5710385e-07
1.5679296e-07
1.5648056e-07
1.561667e-07
1.5585142e-07
1.5553477e-07
1.5521679e-07
1.5489753e-07
1.5457702e-07
1.5425533e-07
1.5393248e-07
1.5360853e-07
1.5328351e-07
1.5295748e-07
1.5263047e-07
1.5230255e-07
1.5197377e-07
1.5164424e-07
1.5131412e-07
1.5098375e-07
1.5065388e-07
1.5032615e-07
1.5000443e-07
1.4969775e-07
1.4942769e-07
1.4924602e-07
1.4927721e-07
1.4982536e-07
1.5163659e-07
1.5653318e-07
1.6902974e-07
2.001105e-07
2.7550457e-07
4.51333e-07
8.2639784e-07
1.5162334e-06
2.5580886e-06
3.9242175e-06
5.6109099e-06
7.75939e-06
1.0384994e-05
1.3450759e-05
1.6891062e-05
2.0611426e-05
2.4429287e-05
2.8346929e-05
3.2092135e-05
3.4624119e-05
3.716802e-05
3.9893633e-05
4.2806066e-05
4.5845607e-05
4.915507e-05
5.2734947e-05
5.6919997e-05
1.6884967e-07
1.6864738e-07
1.6844212e-07
1.6823387e-07
1.6802266e-07
1.678085e-07
1.675914e-07
1.6737137e-07
1.6714844e-07
1.6692261e-07
1.6669391e-07
1.6646235e-07
1.6622796e-07
1.6599075e-07
1.6575075e-07
1.6550798e-07
1.6526248e-07
1.6501426e-07
1.6476335e-07
1.6450979e-07
1.6425361e-07
1.6399483e-07
1.6373349e-07
1.6346962e-07
1.6320326e-07
1.6293444e-07
1.626632e-07
1.6238958e-07
1.6211361e-07
1.6183533e-07
1.6155479e-07
1.6127202e-07
1.6098707e-07
1.6069997e-07
1.6041078e-07
1.6011953e-07
1.5982626e-07
1.5953103e-07
1.5923388e-07
1.5893484e-07
1.5863398e-07
1.5833133e-07
1.5802694e-07
1.5772086e-07
1.5741313e-07
1.571038e-07
1.5679291e-07
1.5648051e-07
1.5616665e-07
1.5585137e-07
1.5553472e-07
1.5521674e-07
1.5489747e-07
1.5457697e-07
1.5425527e-07
1.5393243e-07
1.5360847e-07
1.5328345e-07
1.5295741e-07
1.5263039e-07
1.5230243e-07
1.5197357e-07
1.5164387e-07
1.5131335e-07
1.5098209e-07
1.5065016e-07
1.5031768e-07
1.4998492e-07
1.4965244e-07
1.4932156e-07
1.4899546e-07
1.4868186e-07
1.4839993e-07
1.4819767e-07
1.4819491e-07
1.4869626e-07
1.5047992e-07
1.5552352e-07
1.6891494e-07
2.0352641e-07
2.9053997e-07
4.988596e-07
9.4839955e-07
1.766922e-06
2.9729047e-06
4.5240041e-06
6.4867711e-06
8.9607654e-06
1.1958557e-05
1.5410611e-05
1.9215004e-05
2.3261935e-05
2.7391857e-05
3.1616798e-05
3.5256468e-05
3.7943315e-05
4.0689447e-05
4.3629099e-05
4.6818541e-05
5.0146043e-05
1.6884973e-07
1.6864745e-07
1.6844218e-07
1.6823394e-07
1.6802273e-07
1.6780857e-07
1.6759147e-07
1.6737145e-07
1.6714851e-07
1.6692269e-07
1.6669398e-07
1.6646242e-07
1.6622802e-07
1.6599081e-07
1.6575081e-07
1.6550804e-07
1.6526253e-07
1.6501431e-07
1.647634e-07
1.6450983e-07
1.6425364e-07
1.6399486e-07
1.6373351e-07
1.6346964e-07
1.6320328e-07
1.6293445e-07
1.6266321e-07
1.6238958e-07
1.6211361e-07
1.6183533e-07
1.6155478e-07
1.6127201e-07
1.6098705e-07
1.6069996e-07
1.6041076e-07
1.601195e-07
1.5982624e-07
1.59531e-07
1.5923385e-07
1.5893481e-07
1.5863395e-07
1.583313e-07
1.5802691e-07
1.5772082e-07
1.5741309e-07
1.5710376e-07
1.5679287e-07
1.5648047e-07
1.5616661e-07
1.5585133e-07
1.5553467e-07
1.5521669e-07
1.5489743e-07
1.5457692e-07
1.5425523e-07
1.5393238e-07
1.5360842e-07
1.532834e-07
1.5295736e-07
1.5263034e-07
1.5230238e-07
1.5197352e-07
1.516438e-07
1.5131327e-07
1.5098196e-07
1.5064992e-07
1.5031718e-07
1.499838e-07
1.4964984e-07
1.4931542e-07
1.4898075e-07
1.4864632e-07
1.4831331e-07
1.4798468e-07
1.4766793e-07
1.4738237e-07
1.4717839e-07
1.4718702e-07
1.4775446e-07
1.49801e-07
1.5576038e-07
1.72125e-07
2.1589789e-07
3.2930241e-07
6.0425999e-07
1.1888528e-06
2.2040828e-06
3.6347471e-06
5.4465309e-06
7.7889347e-06
1.0682216e-05
1.4126879e-05
1.800846e-05
2.2209152e-05
2.6593169e-05
3.1050577e-05
3.560912e-05
3.8892507e-05
4.1880311e-05
4.4484081e-05
1.688498e-07
1.6864752e-07
1.6844226e-07
1.6823402e-07
1.6802282e-07
1.6780866e-07
1.6759156e-07
1.6737154e-07
1.671486e-07
1.6692277e-07
1.6669407e-07
1.664625e-07
1.662281e-07
1.6599089e-07
1.6575088e-07
1.6550811e-07
1.652626e-07
1.6501437e-07
1.6476345e-07
1.6450988e-07
1.6425369e-07
1.639949e-07
1.6373355e-07
1.6346967e-07
1.632033e-07
1.6293448e-07
1.6266323e-07
1.623896e-07
1.6211362e-07
1.6183534e-07
1.6155479e-07
1.6127201e-07
1.6098705e-07
1.6069995e-07
1.6041075e-07
1.6011949e-07
1.5982622e-07
1.5953098e-07
1.5923383e-07
1.5893479e-07
1.5863392e-07
1.5833127e-07
1.5802688e-07
1.5772079e-07
1.5741306e-07
1.5710373e-07
1.5679283e-07
1.5648043e-07
1.5616657e-07
1.5585129e-07
1.5553463e-07
1.5521665e-07
1.5489739e-07
1.5457688e-07
1.5425518e-07
1.5393233e-07
1.5360838e-07
1.5328336e-07
1.5295731e-07
1.5263029e-07
1.5230233e-07
1.5197347e-07
1.5164375e-07
1.5131322e-07
1.5098191e-07
1.5064986e-07
1.5031711e-07
1.499837e-07
1.4964966e-07
1.4931504e-07
1.4897989e-07
1.4864426e-07
1.4830825e-07
1.4797207e-07
1.476362e-07
1.4730183e-07
1.4697209e-07
1.4665524e-07
1.4637342e-07
1.4618677e-07
1.4625808e-07
1.4703488e-07
1.4975474e-07
1.5782691e-07
1.8064979e-07
2.4347086e-07
4.0929009e-07
8.0716122e-07
1.6117055e-06
2.8947935e-06
4.6086486e-06
6.8184333e-06
9.6274005e-06
1.3040579e-05
1.6997123e-05
2.1338464e-05
2.5963241e-05
3.0678129e-05
3.5567364e-05
3.957826e-05
1.6884988e-07
1.686476e-07
1.6844234e-07
1.6823411e-07
1.6802291e-07
1.6780875e-07
1.6759165e-07
1.6737163e-07
1.671487e-07
1.6692287e-07
1.6669416e-07
1.6646259e-07
1.6622819e-07
1.6599097e-07
1.6575097e-07
1.6550819e-07
1.6526267e-07
1.6501444e-07
1.6476352e-07
1.6450995e-07
1.6425375e-07
1.6399495e-07
1.637336e-07
1.6346972e-07
1.6320334e-07
1.6293451e-07
1.6266326e-07
1.6238962e-07
1.6211364e-07
1.6183535e-07
1.615548e-07
1.6127202e-07
1.6098705e-07
1.6069995e-07
1.6041074e-07
1.6011948e-07
1.5982621e-07
1.5953097e-07
1.5923381e-07
1.5893478e-07
1.5863391e-07
1.5833125e-07
1.5802686e-07
1.5772077e-07
1.5741304e-07
1.571037e-07
1.5679281e-07
1.5648041e-07
1.5616654e-07
1.5585126e-07
1.555346e-07
1.5521662e-07
1.5489735e-07
1.5457685e-07
1.5425515e-07
1.539323e-07
1.5360834e-07
1.5328332e-07
1.5295727e-07
1.5263025e-07
1.5230229e-07
1.5197343e-07
1.5164371e-07
1.5131318e-07
1.5098186e-07
1.5064981e-07
1.5031706e-07
1.4998365e-07
1.4964961e-07
1.4931498e-07
1.489798e-07
1.486441e-07
1.4830793e-07
1.4797132e-07
1.4763434e-07
1.4729708e-07
1.4695976e-07
1.466229e-07
1.4628788e-07
1.4595847e-07
1.4564501e-07
1.4537645e-07
1.4523456e-07
1.4545024e-07
1.4668344e-07
1.5082668e-07
1.6330623e-07
1.9949648e-07
3.0120222e-07
5.6914115e-07
1.1820623e-06
2.3043474e-06
3.9325365e-06
6.0385828e-06
8.7809113e-06
1.2169887e-05
1.6195658e-05
2.0679353e-05
2.5593935e-05
3.057694e-05
1.6884996e-07
1.6864769e-07
1.6844244e-07
1.682342e-07
1.68023e-07
1.6780885e-07
1.6759176e-07
1.6737173e-07
1.671488e-07
1.6692297e-07
1.6669426e-07