/*--------------------------------*- C++ -*----------------------------------*\
  =========                 |
  \\      /  F ield         | OpenFOAM: The Open Source CFD Toolbox
   \\    /   O peration     | Website:  https://openfoam.org
    \\  /    A nd           | Version:  12
     \\/     M anipulation  |
\*---------------------------------------------------------------------------*/
FoamFile
{
    format      ascii;
    class       volScalarField;
    location    "900";
    object      omega;
}
// * * * * * * * * * * * * * * * * * * * * * * * * * * * * * * * * * * * * * //

dimensions      [0 0 -1 0 0 0 0];

internalField   nonuniform List<scalar> 
7480
(
99.668428
99.668428
99.668428
99.668428
467.2699
658.57473
782.37982
862.97224
913.97876
944.62386
961.56297
969.17796
970.42388
967.32455
961.29349
953.32284
944.12181
934.25928
924.36657
914.5085
904.81611
895.32882
886.20021
877.57604
869.56215
862.23098
855.62025
849.73174
844.53867
839.99363
836.0345
832.59374
829.61213
827.04002
824.81577
822.86585
821.11186
819.48795
817.94599
816.45185
814.97475
813.48666
811.96583
810.3959
808.76861
807.08065
805.32866
803.5018
801.58947
799.59231
797.51965
795.38051
793.18228
790.93737
788.66514
786.38152
784.09184
781.79695
779.50147
777.21277
774.93424
772.668
770.41995
768.19623
765.99741
763.82316
761.67401
759.54692
757.43656
755.34236
753.26772
751.21242
749.17671
747.16556
745.17713
743.20608
741.25283
739.31629
737.39469
735.49172
733.60879
731.74379
729.89703
728.06604
726.24856
724.44668
722.66148
720.89305
719.13978
717.39975
715.67354
713.9607
712.26201
710.57519
708.90207
707.22394
705.60065
703.86253
702.32851
699.99451
53.58093
53.535185
53.495923
53.440159
60.466331
74.605065
96.919911
126.8879
163.04793
203.1754
244.37337
284.24967
318.85124
346.79398
369.58352
388.71597
404.52802
415.61988
423.15108
426.1137
427.71444
430.61985
434.66195
439.16481
443.57172
447.34719
450.10885
451.63913
451.84329
450.72917
448.39133
444.99901
440.78464
436.05098
430.91877
425.37712
419.36734
413.12647
406.81711
400.55639
394.44306
388.55289
382.93761
377.61506
372.58587
367.8465
363.39149
359.26235
355.44689
351.92167
348.66391
345.64921
342.849
340.23239
337.7754
335.45568
333.24733
331.13533
329.10915
327.16399
325.29772
323.50373
321.7738
320.10203
318.48447
316.91437
315.3816
313.88384
312.42104
310.99287
309.60084
308.24682
306.92703
305.64004
304.38475
303.15534
301.94958
300.77037
299.61687
298.48806
297.38581
296.30671
295.2476
294.20913
293.19003
292.19021
291.21053
290.2494
289.30566
288.3776
287.46514
286.56886
285.68808
284.82145
283.96995
283.12481
282.30361
281.48157
280.74409
279.43415
52.974378
52.262318
51.558599
50.863155
50.28956
50.016827
50.328829
51.531407
53.894456
57.794974
63.498043
71.147458
80.696453
91.942911
104.62345
118.44178
133.06959
147.69448
160.98821
172.8792
183.72245
194.30431
205.13995
216.6011
228.96801
240.39399
249.98841
257.91592
264.2641
269.05683
272.25771
273.77299
273.52075
271.63718
268.57952
265.11054
261.96384
258.98825
256.07316
253.12694
250.16093
247.21412
244.19639
240.96651
237.61476
234.21553
230.83229
227.53686
224.39731
221.41989
218.59785
215.92201
213.38504
210.98373
208.71445
206.57966
204.58022
202.69898
200.92098
199.2367
197.63915
196.11913
194.66628
193.27202
191.93111
190.63791
189.3839
188.16919
186.99464
185.85942
184.76258
183.70322
182.67759
181.68328
180.71651
179.77365
178.85437
177.96073
177.0924
176.24817
175.4283
174.62922
173.84797
173.08512
172.34065
171.61452
170.90697
170.21611
169.54036
168.87879
168.23152
167.59906
166.98077
166.37525
165.78231
165.19906
164.62967
164.0738
163.56184
162.7914
52.965619
52.234562
51.502627
50.770327
50.039707
49.315492
48.60725
47.930929
47.309317
46.780559
46.393154
46.204602
46.277496
46.675039
47.459967
48.697224
50.459427
52.804034
55.761146
59.359146
63.631161
68.638858
74.467026
81.221053
89.025027
97.347831
106.06184
115.07613
124.34405
133.86329
143.66846
153.79944
162.7623
170.00437
175.63736
179.92145
183.165
185.41034
186.67427
186.93855
186.22817
184.69993
182.81878
181.00409
179.16167
177.22947
175.21897
173.18008
171.12392
168.90657
166.60018
164.26241
161.94146
159.68273
157.49964
155.39097
153.36604
151.43154
149.59094
147.84604
146.19095
144.61481
143.10684
141.66072
140.27461
138.94723
137.68396
136.47754
135.32309
134.21663
133.15472
132.13394
131.14993
130.19979
129.28004
128.38945
127.52818
126.6967
125.89384
125.11771
124.36738
123.63885
122.92995
122.2415
121.57367
120.92606
120.29831
119.68799
119.09338
118.51411
117.95041
117.40248
116.86951
116.34974
115.84279
115.34749
114.86517
114.39724
113.96844
113.37231
52.965667
52.234195
51.501508
50.767941
50.033823
49.29954
48.565589
47.832769
47.102205
46.375648
45.655709
44.946126
44.252022
43.580003
42.938288
42.337156
41.789258
41.310294
40.91795
40.6323
40.475765
40.475236
40.66422
41.085
41.79514
42.849194
44.309905
46.252935
48.772773
51.988212
56.047471
61.137192
67.351016
74.200374
81.596321
89.489191
97.885773
106.82431
115.66858
123.1643
129.20233
133.76132
137.05113
139.39761
140.88647
141.56008
141.47945
140.74323
139.61567
138.43281
137.12825
135.6925
134.16476
132.62405
131.00851
129.27487
127.47563
125.66303
123.88446
122.16017
120.48265
118.84843
117.25958
115.72428
114.24829
112.82958
111.47067
110.17099
108.92946
107.74308
106.60703
105.51598
104.46623
103.45537
102.48905
101.56486
100.67861
99.82786
99.010054
98.222464
97.463197
96.729401
96.020308
95.336271
94.676508
94.039816
93.425144
92.829777
92.252387
91.692968
91.151473
90.627587
90.120118
89.627115
89.14834
88.68322
88.232162
87.795531
87.396613
86.873753
52.965917
52.234476
51.50179
50.768173
50.033924
49.299358
48.564792
47.830542
47.096949
46.36437
45.633202
44.903896
44.176985
43.453107
42.733033
42.017708
41.308303
40.606277
39.913446
39.232053
38.564797
37.914939
37.28639
36.684192
36.115088
35.58775
35.113621
34.706925
34.386548
34.177955
34.115745
34.248468
34.640964
35.361717
36.500047
38.178749
40.570152
43.913838
48.500623
54.360976
61.060913
68.46482
76.459723
84.813022
92.49496
98.957914
104.10805
107.90057
110.48107
112.23542
113.24593
113.59202
113.36499
112.69995
111.87657
110.94789
109.89072
108.72707
107.52126
106.26695
104.90054
103.47072
102.0193
100.58284
99.169818
97.772843
96.392167
95.042946
93.738428
92.47984
91.263958
90.088581
88.955142
87.863571
86.817413
85.816294
84.857801
83.93982
83.059281
82.212872
81.398124
80.618458
79.8726
79.157573
78.470854
77.810419
77.174507
76.561197
75.969992
75.40052
74.851882
74.323055
73.81251
73.318487
72.84098
72.379423
71.933569
71.502683
71.108789
70.616909
52.966209
52.234809
51.502135
50.768513
50.034252
49.29967
48.565078
47.830785
47.097103
46.364349
45.632838
44.902886
44.174824
43.448978
42.72568
42.005264
41.288077
40.574481
39.864857
39.159617
38.459205
37.764106
37.074859
36.392076
35.716492
35.048993
34.39068
33.742929
33.107529
32.486879
31.884256
31.304046
30.752769
30.23924
29.776244
29.382552
29.08585
28.928265
28.974777
29.313101
30.047712
31.325941
33.362703
36.455835
40.953557
46.67421
53.271173
60.543808
68.153871
75.118513
80.978328
85.666664
89.163136
91.506785
93.00791
93.886046
94.223882
94.102925
93.630412
93.0005
92.271061
91.433942
90.516138
89.5646
88.548106
87.434634
86.259828
85.063726
83.8697
82.673536
81.480311
80.302278
79.151479
78.030782
76.93777
75.875866
74.850722
73.864241
72.914547
71.999638
71.11868
70.274769
69.4679
68.695582
67.955348
67.245018
66.562151
65.908571
65.283797
64.685082
64.110254
63.557651
63.025757
62.513759
62.021406
61.547569
61.09127
60.651107
60.247971
59.764344
52.966532
52.235181
51.502532
50.768923
50.034666
49.300079
48.565474
47.831163
47.097459
46.364677
45.633135
44.903147
44.175031
43.449101
42.725668
42.005039
41.287517
40.5734
39.862983
39.156556
38.454407
37.756818
37.064068
36.376432
35.694186
35.01761
34.346993
33.682633
33.024846
32.373982
31.730438
31.09469
30.467338
29.849168
29.241232
28.645015
28.062705
27.497648
26.955192
26.443363
25.974311
25.567379
25.254595
25.087598
25.149461
25.549013
26.431868
28.014548
30.614137
34.616158
39.83582
45.933349
52.674086
59.361519
65.221518
70.029652
73.774141
76.491325
78.24555
79.282114
79.836161
79.984196
79.801882
79.39042
78.877665
78.27241
77.577235
76.824858
76.034656
75.134796
74.165788
73.165808
72.154748
71.131903
70.097868
69.065019
68.04722
67.049297
66.072946
65.121804
64.200023
63.307404
62.445267
61.615481
60.818383
60.052681
59.316332
58.611117
57.937502
57.293078
56.675489
56.082878
55.514638
54.972154
54.452967
53.954955
53.476401
53.015917
52.593797
52.103083
52.966875
52.235575
51.502957
50.769364
50.035114
49.300522
48.565908
47.831584
47.097865
46.365069
45.633511
44.903509
44.175378
43.449431
42.725979
42.005327
41.287777
40.573624
39.863158
39.156663
38.454418
37.756694
37.063752
36.375845
35.693222
35.01612
34.344774
33.679408
33.020242
32.367485
31.721344
31.082021
30.449718
29.82464
29.207003
28.597036
27.995005
27.401231
26.816147
26.240367
25.67479
25.120791
24.580615
24.058055
23.559776
23.096301
22.684663
22.355014
22.159814
22.187377
22.556597
23.433373
25.072984
27.844198
32.026337
37.174466
43.066883
49.142728
54.686352
59.250991
62.818834
65.452953
67.238175
68.29338
68.858889
69.089518
69.041475
68.772263
68.388476
67.920793
67.36667
66.752542
66.095686
65.35444
64.543098
63.693433
62.821588
61.927162
61.019067
60.111115
59.213443
58.325967
57.452257
56.599477
55.771637
54.969524
54.193913
53.44546
52.725368
52.033824
51.370287
50.733601
50.123037
49.539963
48.982818
48.449456
47.93754
47.447036
46.998419
46.486987
52.967232
52.235984
51.5034
50.769826
50.035583
49.300991
48.56637
47.832036
47.098305
46.365495
45.633923
44.903905
44.175758
43.449795
42.726325
42.005656
41.288088
40.573917
39.863432
39.156918
38.454653
37.756907
37.06394
36.376006
35.693349
35.016207
34.344809
33.679377
33.020122
32.367247
31.720946
31.081403
30.448795
29.823291
29.205053
28.594232
27.990972
27.395412
26.807687
26.227934
25.656302
25.092955
24.538098
23.992018
23.455157
22.928224
22.412385
21.90967
21.423771
20.961593
20.534868
20.163105
19.883104
19.7618
19.90843
20.466688
21.660608
23.830742
27.385131
31.928637
37.236966
42.706915
47.698708
51.8334
55.0085
57.325761
58.89647
59.829902
60.301945
60.506026
60.483967
60.276073
59.966495
59.580459
59.119008
58.599731
58.03547
57.387052
56.679472
55.937125
55.171674
54.381531
53.577492
52.771558
51.969616
51.176032
50.397072
49.635631
48.893203
48.172695
47.476731
46.805763
46.159197
45.537422
44.941354
44.370219
43.822132
43.296364
42.815229
42.266338
52.9676
52.236405
51.503856
50.770302
50.036069
49.301479
48.566853
47.83251
47.098768
46.365945
45.634358
44.904326
44.176164
43.450185
42.726699
42.006014
41.28843
40.574242
39.863741
39.15721
38.454929
37.757165
37.064182
36.376231
35.693557
35.016399
34.344985
33.679537
33.020266
32.367373
31.721052
31.081487
30.448853
29.823317
29.205037
28.594159
27.990821
27.395149
26.807263
26.227271
25.655276
25.091371
24.535641
23.988168
23.44903
22.918319
22.396141
21.882646
21.378071
20.882831
20.397668
19.923898
19.463993
19.022792
18.609698
18.240487
17.944651
17.780125
17.851268
18.298531
19.344815
21.335824
24.629167
28.893376
33.872526
38.791132
43.141974
46.684536
49.322584
51.189762
52.420066
53.128647
53.471225
53.592033
53.540245
53.347734
53.073979
52.730277
52.321124
51.858151
51.347766
50.761796
50.130516
49.467902
48.777024
48.066538
47.348186
46.627735
45.908339
45.196581
44.498347
43.816226
43.152111
42.507486
41.884296
41.283759
40.705868
40.148192
39.63572
39.044982
52.967979
52.236834
51.504321
50.770789
50.036567
49.30198
48.567351
47.833001
47.099248
46.366413
45.634813
44.904766
44.176589
43.450595
42.727093
42.006392
41.288791
40.574586
39.864068
39.157521
38.455222
37.757441
37.064441
36.376473
35.693784
35.016611
34.345183
33.67972
33.020436
32.36753
31.721198
31.081622
30.448978
29.823432
29.205141
28.594253
27.990904
27.39522
26.807318
26.227308
25.655287
25.091346
24.535562
23.988005
23.448735
22.917805
22.395263
21.881148
21.375494
20.87834
20.389737
19.909763
19.438556
18.976386
18.523794
18.081808
17.652421
17.239714
16.852152
16.504943
16.226717
16.076614
16.16199
16.637186
17.754976
19.907033
23.242955
27.474091
32.099193
36.431808
40.083298
42.933521
44.967277
46.337943
47.195605
47.659113
47.851313
47.884049
47.78266
47.586136
47.32347
46.998804
46.618815
46.192981
45.703849
45.162183
44.584627
43.978231
43.347803
42.703455
42.052885
41.400843
40.753451
40.114856
39.487935
38.876334
38.282747
37.704819
37.17046
36.548946
52.968365
52.23727
51.504793
50.771284
50.037075
49.302493
48.567862
47.833505
47.099743
46.366896
45.635283
44.905223
44.17703
43.45102
42.727503
42.006785
41.289167
40.574946
39.864411
39.157846
38.45553
37.757733
37.064715
36.376731
35.694026
35.016838
34.345395
33.679919
33.020621
32.367703
31.721359
31.081772
30.449118
29.823563
29.205264
28.594368
27.991011
27.39532
26.807412
26.227395
25.655368
25.091419
24.535627
23.988061
23.44878
22.917835
22.395269
21.881115
21.375399
20.878136
20.389339
19.909012
19.437156
18.973773
18.518871
18.072486
17.634705
17.205732
16.786032
16.376565
15.979277
15.598366
15.242835
14.929533
14.69242
14.603705
14.785664
15.430634
16.855131
19.472865
23.046481
27.308365
31.463804
35.046277
37.892704
39.986162
41.392458
42.287984
42.802767
43.051026
43.112635
43.063314
42.9176
42.708606
42.443045
42.124504
41.757801
41.341928
40.87048
40.360082
39.820045
39.255083
38.67487
38.086041
37.492836
36.901663
36.317899
35.740713
35.2015
34.567105
52.96876
52.237713
51.505272
50.771786
50.037591
49.303015
48.568383
47.834021
47.100251
46.367393
45.635767
44.905692
44.177485
43.45146
42.727927
42.007192
41.289557
40.575319
39.864767
39.158185
38.455852
37.758037
37.065002
36.377001
35.69428
35.017076
34.345618
33.680127
33.020816
32.367886
31.72153
31.081932
30.449268
29.823704
29.205396
28.594492
27.991127
27.39543
26.807515
26.227492
25.655459
25.091505
24.535708
23.988137
23.448851
22.917901
22.39533
21.88117
21.375447
20.878175
20.389364
19.909015
19.437121
18.973668
18.518635
18.072
17.633734
17.203811
16.782212
16.368947
15.964081
15.567808
15.180619
14.803588
14.43904
14.092287
13.774811
13.508421
13.342735
13.378731
13.772402
14.797108
16.896729
20.005076
23.892719
27.802178
31.234028
33.969054
35.989598
37.359378
38.220731
38.72727
38.980114
39.058813
39.027072
38.909352
38.735288
38.509937
38.235577
37.913672
37.548907
37.1293
36.671526
36.185268
35.674213
35.146923
34.610805
34.06686
33.549632
32.928207
52.969162
52.23816
51.505755
50.772294
50.038114
49.303544
48.568913
47.834547
47.100768
46.3679
45.636262
44.906174
44.177953
43.451912
42.728363
42.007611
41.28996
40.575704
39.865134
39.158535
38.456184
37.758351
37.065299
36.377281
35.694543
35.017323
34.34585
33.680345
33.02102
32.368077
31.721709
31.0821
30.449426
29.823852
29.205536
28.594623
27.991251
27.395546
26.807625
26.227596
25.655557
25.091598
24.535796
23.988219
23.448929
22.917974
22.395399
21.881235
21.375508
20.878232
20.389416
19.909063
19.437164
18.973704
18.518662
18.07201
17.633716
17.203737
16.78203
16.368547
15.963237
15.566053
15.17696
14.795957
14.423117
14.05869
13.703331
13.358505
13.027678
12.71905
12.449518
12.255971
12.223636
12.492594
13.310408
15.09842
17.918047
21.524122
25.17535
28.389285
30.929945
32.787549
34.043022
34.822041
35.275886
35.500322
35.575576
35.543925
35.440683
35.28831
35.089474
34.844455
34.554796
34.225705
33.844901
33.427809
32.984363
32.514792
32.054982
31.482817
52.96957
52.238612
51.506242
50.772806
50.038641
49.30408
48.569451
47.835081
47.101296
46.368417
45.636768
44.906667
44.178431
43.452375
42.728809
42.008041
41.290372
40.576099
39.865512
39.158895
38.456526
37.758676
37.065606
36.377571
35.694816
35.017579
34.346091
33.680571
33.021232
32.368276
31.721895
31.082275
30.44959
29.824007
29.205681
28.59476
27.99138
27.395668
26.80774
26.227705
25.65566
25.091695
24.535888
23.988306
23.449011
22.918052
22.395472
21.881304
21.375573
20.878293
20.389474
19.909117
19.437215
18.973751
18.518706
18.072051
17.633752
17.203768
16.782052
16.368555
15.963218
15.565981
15.176778
14.795543
14.42221
14.056717
13.699026
13.349148
13.007216
12.673652
12.349529
12.037408
11.743766
11.482992
11.286319
11.23027
11.450863
12.190998
13.876077
16.555317
19.953692
23.350415
26.287462
28.566631
30.197858
31.282732
31.943489
32.318751
32.49842
32.553725
32.513923
32.416447
32.275471
32.092941
31.866659
31.599982
31.295273
30.940634
30.576052
30.098001
52.969985
52.239069
51.506733
50.773322
50.039173
49.304621
48.569994
47.835622
47.101831
46.368944
45.637283
44.907169
44.178919
43.452847
42.729266
42.008481
41.290795
40.576504
39.865899
39.159264
38.456877
37.759009
37.065921
36.377868
35.695096
35.017844
34.346339
33.680805
33.021451
32.368481
31.722088
31.082456
30.449761
29.824167
29.205832
28.594902
27.991514
27.395794
26.80786
26.227818
25.655767
25.091796
24.535983
23.988397
23.449096
22.918133
22.395549
21.881377
21.375641
20.878358
20.389535
19.909174
19.437268
18.973802
18.518753
18.072095
17.633793
17.203806
16.782088
16.368587
15.963247
15.566005
15.176794
14.795544
14.422181
14.056625
13.698798
13.348619
13.006011
12.670914
12.343305
12.023256
11.711076
11.40764
11.115117
10.83923
10.593504
10.4081
10.360026
10.589477
11.35397
13.1053
15.766289
18.985768
22.103178
24.718188
26.686138
28.05174
28.936935
29.463241
29.751095
29.881212
29.908755
29.856036
29.75889
29.622749
29.449813
29.233076
28.999591
28.662974
52.970406
52.23953
51.507228
50.773841
50.039709
49.305167
48.570544
47.83617
47.102374
46.369478
45.637807
44.90768
44.179416
43.453329
42.729732
42.008931
41.291227
40.576919
39.866295
39.159642
38.457237
37.75935
37.066244
36.378174
35.695385
35.018115
34.346595
33.681045
33.021676
32.368693
31.722287
31.082643
30.449936
29.824332
29.205988
28.595049
27.991653
27.395925
26.807983
26.227935
25.655878
25.091901
24.536082
23.988491
23.449185
22.918217
22.395628
21.881452
21.375712
20.878424
20.389598
19.909234
19.437324
18.973854
18.518802
18.072141
17.633836
17.203846
16.782126
16.368622
15.963279
15.566035
15.176822
14.795569
14.422202
14.056642
13.698805
13.348607
13.00596
12.670772
12.342954
12.02242
11.709094
11.402936
11.103988
10.812513
10.52932
10.256509
9.9998755
9.7735275
9.610574
9.5977526
9.8900995
10.782647
12.671663
15.417905
18.465576
21.262163
23.506004
25.128816
26.214177
26.896118
27.289632
27.492216
27.574266
27.571738
27.504983
27.404231
27.281106
27.094912
52.970833
52.239996
51.507725
50.774364
50.040249
49.305716
48.571098
47.836724
47.102923
46.37002
45.638338
44.908199
44.179921
43.45382
42.730207
42.009389
41.291668
40.577341
39.8667
39.160029
38.457605
37.7597
37.066576
36.378487
35.69568
35.018393
34.346857
33.681291
33.021908
32.36891
31.722491
31.082835
30.450117
29.824502
29.206148
28.5952
27.991795
27.39606
26.80811
26.228055
25.655992
25.092009
24.536184
23.988587
23.449276
22.918303
22.39571
21.881529
21.375785
20.878493
20.389663
19.909295
19.437382
18.973908
18.518853
18.072189
17.633881
17.203888
16.782165
16.368659
15.963313
15.566066
15.176851
14.795596
14.422228
14.056665
13.698826
13.348625
13.005974
12.67078
12.342949
12.022386
11.708992
11.402669
11.103326
10.810879
10.525279
10.246562
9.9749953
9.7114375
9.4582221
9.2220695
9.0193668
8.891665
8.9415098
9.3605922
10.516595
12.632197
15.442523
18.266738
20.673672
22.505182
23.770886
24.586611
25.080858
25.353862
25.479769
25.517399
25.494848
25.424266
52.971266
52.240466
51.508226
50.774889
50.040791
49.30627
48.571657
47.837283
47.103478
46.370568
45.638876
44.908726
44.180435
43.454319
42.73069
42.009855
41.292117
40.577772
39.867113
39.160423
38.457981
37.760057
37.066914
36.378807
35.695982
35.018679
34.347125
33.681543
33.022145
32.369133
31.7227
31.083032
30.450302
29.824677
29.206312
28.595355
27.991941
27.396198
26.808241
26.228178
25.656108
25.092119
24.536289
23.988686
23.44937
22.918392
22.395793
21.881608
21.375859
20.878564
20.38973
19.909358
19.437441
18.973964
18.518905
18.072237
17.633926
17.203931
16.782205
16.368696
15.963348
15.566099
15.176881
14.795624
14.422254
14.056689
13.698848
13.348646
13.005993
12.670797
12.342964
12.022398
11.708999
11.402666
11.103298
10.810793
10.525046
10.245962
9.9734556
9.7074781
9.4480797
9.1955888
8.9510501
8.7174564
8.5034491
8.3303402
8.2580141
8.4162643
9.0606
10.609717
12.992509
15.700678
18.19072
20.168144
21.585227
22.518283
23.098163
23.431703
23.611374
23.689873
52.971705
52.240939
51.50873
50.775416
50.041337
49.306826
48.572219
47.837847
47.104038
46.371122
45.639421
44.909259
44.180955
43.454825
42.73118
42.010329
41.292573
40.578211
39.867533
39.160825
38.458364
37.760421
37.067259
36.379134
35.696291
35.01897
34.3474
33.681802
33.022388
32.369361
31.722915
31.083234
30.450492
29.824855
29.206481
28.595514
27.992091
27.396339
26.808374
26.228305
25.656228
25.092232
24.536395
23.988787
23.449465
22.918482
22.395879
21.881688
21.375936
20.878636
20.389797
19.909422
19.437501
18.97402
18.518958
18.072287
17.633973
17.203975
16.782245
16.368734
15.963384
15.566132
15.176912
14.795653
14.42228
14.056714
13.698871
13.348667
13.006012
12.670815
12.342981
12.022413
11.709012
11.402678
11.103308
10.810798
10.525042
10.245936
9.9733717
9.7072456
9.4474587
9.1939279
8.9466175
8.7056199
8.471401
8.2454011
8.032067
7.8438793
7.7133681
7.7313221
8.0773562
9.1155102
11.049897
13.571145
16.057917
18.120336
19.647178
20.673919
21.330281
21.730718
52.97215
52.241417
51.509237
50.775946
50.041884
49.307386
48.572785
47.838414
47.104603
46.371681
45.639972
44.909799
44.181483
43.455338
42.731678
42.01081
41.293037
40.578657
39.867961
39.161234
38.458754
37.760792
37.067612
36.379467
35.696607
35.019267
34.34768
33.682066
33.022636
32.369595
31.723134
31.08344
30.450686
29.825038
29.206653
28.595676
27.992244
27.396483
26.80851
26.228433
25.65635
25.092347
24.536504
23.98889
23.449563
22.918574
22.395966
21.881771
21.376013
20.878709
20.389866
19.909487
19.437562
18.974078
18.519012
18.072338
17.63402
17.204019
16.782287
16.368773
15.96342
15.566165
15.176943
14.795682
14.422307
14.056738
13.698894
13.348688
13.006032
12.670833
12.342997
12.022428
11.709026
11.40269
11.103319
10.810808
10.525051
10.245942
9.9733741
9.7072386
9.4474278
9.1938335
8.9463505
8.7048821
8.4693539
8.2397572
8.0162792
7.7996718
7.592261
7.4014336
7.246807
7.1871043
7.3555595
8.027011
9.5733702
11.863093
14.269362
16.358228
17.95724
19.080594
52.9726
52.241899
51.509746
50.776479
50.042434
49.307947
48.573354
47.838985
47.105173
46.372245
45.640528
44.910345
44.182016
43.455858
42.732182
42.011298
41.293508
40.57911
39.868396
39.16165
38.459151
37.76117
37.06797
36.379807
35.696928
35.019571
34.347966
33.682335
33.02289
32.369833
31.723358
31.083651
30.450884
29.825225
29.206828
28.595841
27.9924
27.39663
26.80865
26.228565
25.656474
25.092464
24.536615
23.988995
23.449662
22.918668
22.396054
21.881854
21.376092
20.878783
20.389937
19.909552
19.437624
18.974136
18.519067
18.072389
17.634068
17.204064
16.782329
16.368812
15.963456
15.566199
15.176974
14.795711
14.422334
14.056763
13.698917
13.34871
13.006052
12.670851
12.343014
12.022443
11.70904
11.402703
11.103331
10.810818
10.52506
10.24595
9.9733814
9.7072446
9.4474317
9.193833
8.9463392
8.7048418
8.4692325
8.2394082
8.0152779
7.796787
7.5839878
7.3772679
7.1779529
6.9904567
6.8278331
6.7272301
6.7916586
7.2364411
8.469157
10.473218
12.785131
14.909395
52.973055
52.242385
51.510259
50.777013
50.042986
49.308511
48.573925
47.839559
47.105746
46.372814
45.641089
44.910896
44.182555
43.456383
42.732693
42.011793
41.293986
40.57957
39.868837
39.162072
38.459554
37.761554
37.068335
36.380153
35.697255
35.01988
34.348258
33.68261
33.023148
32.370076
31.723587
31.083865
30.451086
29.825415
29.207008
28.59601
27.992559
27.39678
26.808791
26.228699
25.6566
25.092584
24.536728
23.989101
23.449762
22.918763
22.396144
21.881939
21.376172
20.878858
20.390007
19.909619
19.437686
18.974194
18.519122
18.07244
17.634116
17.204108
16.782371
16.368851
15.963492
15.566233
15.177006
14.79574
14.422361
14.056788
13.69894
13.348731
13.006071
12.670869
12.34303
12.022458
11.709053
11.402715
11.103342
10.810828
10.525069
10.245959
9.9733886
9.7072509
9.4474372
9.1938376
8.9463426
8.7048429
8.4692284
8.2393898
8.0152191
7.79661
7.5834643
7.3757048
7.1733183
6.9764962
6.7860524
6.6047082
6.4415024
6.3219839
6.3275514
6.6254703
7.6794489
9.4410783
52.973516
52.242874
51.510774
50.77755
50.043539
49.309077
48.574498
47.840136
47.106322
46.373386
45.641655
44.911452
44.1831
43.456915
42.733209
42.012293
41.294469
40.580036
39.869284
39.162501
38.459964
37.761944
37.068706
36.380505
35.697588
35.020195
34.348554
33.682889
33.023411
32.370324
31.72382
31.084085
30.451292
29.825609
29.20719
28.596182
27.992721
27.396933
26.808935
26.228835
25.656729
25.092705
24.536842
23.989209
23.449865
22.918859
22.396235
21.882025
21.376253
20.878935
20.390079
19.909686
19.437749
18.974254
18.519177
18.072492
17.634165
17.204154
16.782413
16.36889
15.963529
15.566267
15.177037
14.795769
14.422387
14.056813
13.698963
13.348751
13.00609
12.670886
12.343046
12.022472
11.709067
11.402727
11.103353
10.810838
10.525078
10.245966
9.9733954
9.7072569
9.4474424
9.1938421
8.9463464
8.704846
8.4692306
8.2393908
8.0152172
7.7966006
7.5834334
7.3756088
7.1730254
6.9755954
6.7832721
6.5961395
6.4147164
6.2408163
6.0811095
5.9536971
5.94697
6.146806
52.973982
52.243368
51.511292
50.778089
50.044095
49.309645
48.575074
47.840715
47.106901
46.373962
45.642224
44.912013
44.183649
43.457451
42.733731
42.012799
41.294959
40.580507
39.869738
39.162935
38.460379
37.76234
37.069082
36.380862
35.697926
35.020514
34.348856
33.683174
33.023679
32.370576
31.724057
31.084308
30.451502
29.825806
29.207376
28.596357
27.992886
27.397088
26.809082
26.228973
25.656859
25.092828
24.536959
23.989319
23.449968
22.918957
22.396327
21.882111
21.376334
20.879011
20.390151
19.909754
19.437813
18.974313
18.519233
18.072544
17.634213
17.204199
16.782455
16.368929
15.963565
15.5663
15.177068
14.795798
14.422414
14.056837
13.698985
13.348772
13.006109
12.670903
12.343061
12.022487
11.709079
11.402739
11.103363
10.810847
10.525086
10.245973
9.9734017
9.7072624
9.4474471
9.1938461
8.9463497
8.7048487
8.4692327
8.2393923
8.0152181
7.7966007
7.5834318
7.3756031
7.1730073
6.9755392
6.7830961
6.595585
6.4129416
6.2351917
6.0626919
5.8966804
5.7452299
5.6149272
52.974453
52.243865
51.511812
50.778629
50.044652
49.310214
48.575651
47.841296
47.107482
46.37454
45.642797
44.912577
44.184203
43.457992
42.734258
42.01331
41.295453
40.580984
39.870196
39.163375
38.4608
37.762741
37.069464
36.381225
35.69827
35.020839
34.349163
33.683463
33.023952
32.370832
31.724298
31.084534
30.451715
29.826007
29.207565
28.596535
27.993053
27.397246
26.80923
26.229113
25.656991
25.092953
24.537076
23.98943
23.450072
22.919055
22.39642
21.882199
21.376416
20.879089
20.390224
19.909822
19.437877
18.974373
18.519289
18.072596
17.634262
17.204244
16.782497
16.368968
15.963601
15.566334
15.177099
14.795826
14.42244
14.056861
13.699007
13.348792
13.006127
12.67092
12.343076
12.0225
11.709091
11.40275
11.103372
10.810856
10.525094
10.24598
9.9734074
9.7072673
9.4474512
9.1938494
8.9463524
8.7048508
8.4692343
8.2393934
8.0152187
7.7966008
7.5834314
7.3756021
7.1730053
6.9755347
6.783084
6.5955491
6.412828
6.2348258
6.0614694
5.8927508
5.7291686
5.5710508
52.974928
52.244365
51.512335
50.779172
50.04521
49.310784
48.576229
47.841879
47.108066
46.375121
45.643372
44.913144
44.18476
43.458537
42.734789
42.013826
41.295952
40.581466
39.87066
39.16382
38.461225
37.763148
37.069851
36.381592
35.698618
35.021169
34.349475
33.683757
33.024228
32.371093
31.724543
31.084765
30.451932
29.826211
29.207756
28.596715
27.993223
27.397406
26.809381
26.229255
25.657125
25.093079
24.537195
23.989542
23.450178
22.919155
22.396513
21.882287
21.376499
20.879166
20.390297
19.909891
19.437941
18.974432
18.519344
18.072648
17.63431
17.204289
16.782538
16.369006
15.963637
15.566366
15.177129
14.795854
14.422465
14.056884
13.699028
13.348811
13.006144
12.670936
12.343091
12.022513
11.709103
11.40276
11.103381
10.810863
10.5251
10.245986
9.9734123
9.7072714
9.4474545
9.1938521
8.9463544
8.7048522
8.4692351
8.2393937
8.0152185
7.7966003
7.5834305
7.3756007
7.1730037
6.9755325
6.7830812
6.5955447
6.4128187
6.2348007
6.0613888
5.8924912
5.7280312
5.5680002
52.975408
52.244869
51.51286
50.779716
50.045769
49.311355
48.576808
47.842462
47.108651
46.375704
45.64395
44.913714
44.18532
43.459085
42.735324
42.014346
41.296456
40.581953
39.871129
39.16427
38.461656
37.763559
37.070243
36.381965
35.698972
35.021503
34.34979
33.684055
33.024509
32.371357
31.724792
31.084999
30.452152
29.826418
29.207951
28.596898
27.993395
27.397568
26.809533
26.229398
25.65726
25.093206
24.537315
23.989655
23.450284
22.919255
22.396608
21.882375
21.376582
20.879244
20.39037
19.909959
19.438005
18.974492
18.5194
18.0727
17.634358
17.204333
16.782579
16.369045
15.963672
15.566399
15.177159
14.795881
14.42249
14.056907
13.699049
13.34883
13.006161
12.670951
12.343104
12.022525
11.709113
11.402769
11.10339
10.81087
10.525106
10.245991
9.9734164
9.7072747
9.447457
9.1938539
8.9463556
8.7048527
8.4692352
8.2393932
8.0152176
7.7965989
7.5834287
7.3755987
7.1730013
6.9755299
6.7830783
6.5955414
6.412815
6.2347957
6.0613812
5.8924731
5.727954
5.5677932
52.975893
52.245376
51.513388
50.780261
50.046329
49.311926
48.577388
47.843047
47.109237
46.376288
45.644529
44.914287
44.185883
43.459637
42.735863
42.01487
41.296964
40.582443
39.871601
39.164724
38.462091
37.763975
37.07064
36.382342
35.699329
35.021842
34.35011
33.684357
33.024794
32.371625
31.725044
31.085236
30.452375
29.826627
29.208148
28.597083
27.993569
27.397732
26.809688
26.229544
25.657397
25.093335
24.537436
23.989768
23.450392
22.919356
22.396702
21.882464
21.376666
20.879323
20.390443
19.910027
19.438068
18.974552
18.519455
18.072751
17.634406
17.204377
16.78262
16.369082
15.963706
15.56643
15.177188
14.795907
14.422514
14.056929
13.699068