/*--------------------------------*- C++ -*----------------------------------*\
  =========                 |
  \\      /  F ield         | OpenFOAM: The Open Source CFD Toolbox
   \\    /   O peration     | Website:  https://openfoam.org
    \\  /    A nd           | Version:  12
     \\/     M anipulation  |
\*---------------------------------------------------------------------------*/
FoamFile
{
    format      ascii;
    class       surfaceScalarField;
    location    "900";
    object      phi;
}
// * * * * * * * * * * * * * * * * * * * * * * * * * * * * * * * * * * * * * //

dimensions      [0 3 -1 0 0 0 0];

internalField   nonuniform List<scalar> 
14782
(
0.0007825124
8.8480251e-06
-0.00079136042
0.0007719502
1.0562195e-05
0.0007607996
1.1150602e-05
0.00074960804
1.1191565e-05
0.00073862419
1.0983844e-05
0.00072802982
1.0594376e-05
0.00071785479
1.0175025e-05
0.00070804002
9.8147718e-06
0.00069851877
9.5212464e-06
0.00068917369
9.3450871e-06
0.00067989354
9.2801469e-06
0.00067062226
9.2712838e-06
0.00066134876
9.273499e-06
0.00065208603
9.2627315e-06
0.00064286063
9.2253978e-06
0.00063371908
9.1415493e-06
0.00062474578
8.9732938e-06
0.00061595887
8.78691e-06
0.00060738379
8.5750837e-06
0.00059910932
8.2744673e-06
0.0005911824
7.9269256e-06
0.0005836519
7.5305022e-06
0.00057656003
7.091861e-06
0.00056993976
6.6202776e-06
0.00056382727
6.1124903e-06
0.00055824596
5.5813091e-06
0.00055318844
5.057516e-06
0.00054864061
4.5478315e-06
0.00054457947
4.0611366e-06
0.0005409711
3.608371e-06
0.00053777511
3.1959966e-06
0.00053495572
2.8193834e-06
0.00053248387
2.4718549e-06
0.00053031619
2.1676816e-06
0.00052840336
1.9128246e-06
0.0005266981
1.7052603e-06
0.00052515251
1.545586e-06
0.00052372626
1.4262588e-06
0.00052239899
1.3272673e-06
0.00052114495
1.2540425e-06
0.00051993042
1.2145254e-06
0.00051873247
1.1979551e-06
0.00051753319
1.1992776e-06
0.00051631987
1.2133152e-06
0.00051508803
1.2318406e-06
0.00051382936
1.258675e-06
0.00051252923
1.3001224e-06
0.00051117407
1.3551658e-06
0.00050975668
1.417393e-06
0.00050828192
1.4747542e-06
0.00050675224
1.5296853e-06
0.00050516832
1.5839183e-06
0.00050353666
1.6316551e-06
0.00050187279
1.6638774e-06
0.00050019196
1.6808218e-06
0.00049849931
1.6926556e-06
0.00049679713
1.7021804e-06
0.00049508976
1.7073726e-06
0.00049338476
1.7049971e-06
0.00049168443
1.7003264e-06
0.00048998687
1.6975646e-06
0.00048829792
1.6889487e-06
0.00048662506
1.6728578e-06
0.00048497008
1.6549789e-06
0.00048333078
1.639305e-06
0.00048171196
1.6188207e-06
0.00048011533
1.5966236e-06
0.00047853434
1.5809911e-06
0.00047696678
1.5675597e-06
0.00047541546
1.5513202e-06
0.00047388027
1.5351906e-06
0.00047235743
1.5228365e-06
0.00047085276
1.5046701e-06
0.0004693687
1.4840619e-06
0.00046789848
1.4702208e-06
0.00046644411
1.4543747e-06
0.00046500682
1.4372884e-06
0.0004635802
1.4266219e-06
0.00046216705
1.4131506e-06
0.00046077088
1.3961646e-06
0.00045938735
1.3835319e-06
0.00045801893
1.3684144e-06
0.00045666654
1.3523982e-06
0.00045532439
1.3421428e-06
0.00045399465
1.329745e-06
0.00045267829
1.3163635e-06
0.00045137385
1.3044305e-06
0.00045008311
1.2907488e-06
0.00044880333
1.2797772e-06
0.00044753494
1.2683919e-06
0.00044627786
1.2570736e-06
0.00044503033
1.2475375e-06
0.00044379414
1.2361883e-06
0.00044256656
1.227574e-06
0.00044134636
1.2202043e-06
0.00044013175
1.2146133e-06
0.00043894696
1.1847825e-06
0.00043762383
1.3231354e-06
0.00043659582
1.0280095e-06
1.4090123e-06
0.00082550832
8.0474232e-06
-0.00082470772
0.00082600704
1.0063476e-05
0.00082623891
1.0918739e-05
0.00082612383
1.1306639e-05
0.00082532433
1.1783346e-05
0.00082380919
1.210952e-05
0.00082165417
1.2330043e-05
0.00081891364
1.2555297e-05
0.00081567299
1.2761901e-05
0.00081203725
1.2980821e-05
0.00080812228
1.3195117e-05
0.00080398294
1.3410627e-05
0.00079964063
1.3615805e-05
0.00079510316
1.3800209e-05
0.00079036955
1.3959007e-05
0.00078543408
1.4077016e-05
0.00078026721
1.4140162e-05
0.00077488718
1.4166941e-05
0.00076929876
1.4163509e-05
0.00076349925
1.4073975e-05
0.00075755329
1.3872881e-05
0.00075149815
1.3585641e-05
0.0007453635
1.3226512e-05
0.00073917974
1.2804041e-05
0.00073298572
1.2306511e-05
0.00072681695
1.1750075e-05
0.00072069997
1.1174498e-05
0.00071466866
1.0579145e-05
0.00070875848
9.9713108e-06
0.00070300272
9.3641318e-06
0.00069743236
8.7663577e-06
0.00069208293
8.1688109e-06
0.00068695868
7.596106e-06
0.00068203642
7.0899382e-06
0.00067731669
6.6325608e-06
0.00067280676
6.2151936e-06
0.00066851061
5.8417267e-06
0.00066442401
5.5128649e-06
0.00066054196
5.2093157e-06
0.00065685042
4.9455862e-06
0.00065332781
4.7371308e-06
0.00064995758
4.5681892e-06
0.00064672405
4.4328014e-06
0.00064361514
4.3222263e-06
0.00064062363
4.223354e-06
0.00063773966
4.1426464e-06
0.0006349274
4.1123774e-06
0.00063214964
4.1329314e-06
0.00062940316
4.1638689e-06
0.00062669945
4.1784689e-06
0.00062404364
4.1854914e-06
0.00062143219
4.1953638e-06
0.00061886006
4.2037909e-06
0.00061632863
4.1953035e-06
0.0006138403
4.1691522e-06
0.00061138633
4.1466248e-06
0.00060895566
4.1328502e-06
0.00060654516
4.1178766e-06
0.0006041597
4.0904592e-06
0.00060180276
4.0572598e-06
0.00059947356
4.0267648e-06
0.00059717501
3.9874999e-06
0.00059491156
3.9363114e-06
0.00059268393
3.8826099e-06
0.00059048922
3.8340136e-06
0.00058832765
3.7803861e-06
0.00058619747
3.7268064e-06
0.00058409309
3.6853771e-06
0.00058201281
3.6478359e-06
0.00057995972
3.6044072e-06
0.00057793529
3.5596215e-06
0.00057593693
3.5211985e-06
0.00057396808
3.4735166e-06
0.00057203042
3.4217237e-06
0.0005701176
3.3830369e-06
0.00056822866
3.343318e-06
0.00056636449
3.301458e-06
0.00056452136
3.2697557e-06
0.00056270082
3.2336912e-06
0.00056090576
3.1912239e-06
0.00055913326
3.1560265e-06
0.0005573834
3.1182812e-06
0.000555656
3.0797944e-06
0.00055394698
3.0511588e-06
0.0005522572
3.0195325e-06
0.0005505877
2.9858605e-06
0.00054893775
2.9543812e-06
0.00054730761
2.9208836e-06
0.00054569473
2.8926638e-06
0.00054409883
2.8642908e-06
0.00054251989
2.836008e-06
0.00054095691
2.8105266e-06
0.00053941002
2.7830713e-06
0.00053787821
2.7593846e-06
0.00053635473
2.7436896e-06
0.00053485187
2.7174681e-06
0.00053335088
2.6857755e-06
0.00053183135
2.8426688e-06
0.00053016439
2.6949674e-06
2.9182496e-06
0.0008529355
7.6019861e-06
-0.00085249006
0.00085336388
9.6350968e-06
0.00085372504
1.0557578e-05
0.00085401397
1.1017708e-05
0.00085430352
1.1493792e-05
0.00085453392
1.1879125e-05
0.00085466157
1.2202392e-05
0.00085468734
1.2529522e-05
0.0008546142
1.2835049e-05
0.00085443126
1.3163763e-05
0.00085413047
1.34959e-05
0.00085370613
1.3834971e-05
0.00085314488
1.4177057e-05
0.00085243553
1.4509558e-05
0.00085156352
1.4831017e-05
0.00085051019
1.5130342e-05
0.00084924579
1.5404563e-05
0.00084775438
1.5658348e-05
0.00084601065
1.5907243e-05
0.00084396031
1.6124317e-05
0.00084156936
1.626383e-05
0.000838817
1.6337999e-05
0.0008356841
1.6359415e-05
0.00083216153
1.6326609e-05
0.00082821059
1.6257446e-05
0.0008238142
1.6146474e-05
0.00081902621
1.5962488e-05
0.00081389881
1.5706544e-05
0.00080847682
1.53933e-05
0.00080280957
1.5031376e-05
0.00079695409
1.4621839e-05
0.00079097821
1.4144693e-05
0.00078495927
1.3615046e-05
0.00077896116
1.308805e-05
0.00077303485
1.2558876e-05
0.00076722633
1.202371e-05
0.00076157839
1.1489665e-05
0.00075609012
1.1001138e-05
0.00075075097
1.0548458e-05
0.00074557766
1.0118903e-05
0.0007405817
9.7330883e-06
0.0007357763
9.3735889e-06
0.00073116802
9.0410855e-06
0.00072675101
8.7392292e-06
0.00072251485
8.4595188e-06
0.00071844463
8.2128651e-06
0.00071452688
8.0301231e-06
0.00071075234
7.9074714e-06
0.00070711136
7.8048536e-06
0.00070359828
7.6915478e-06
0.00070020169
7.582082e-06
0.00069690471
7.4923465e-06
0.00069369251
7.415988e-06
0.00069056041
7.3274079e-06
0.00068750262
7.2269412e-06
0.0006844989
7.1503434e-06
0.00068153661
7.0951369e-06
0.00067861789
7.0365993e-06
0.00067574825
6.9600941e-06
0.00067293003
6.8754849e-06
0.00067016077
6.7960211e-06
0.00066744054
6.7077339e-06
0.00066477073
6.6061238e-06
0.00066215
6.5033335e-06
0.00065957421
6.4098055e-06
0.00065703968
6.3149162e-06
0.00065454213
6.2243574e-06
0.00065207811
6.1493999e-06
0.00064964771
6.0782291e-06
0.0006472544
5.9977168e-06
0.00064489964
5.9143884e-06
0.00064258066
5.8401792e-06
0.00064029974
5.7544354e-06
0.00063805715
5.6643153e-06
0.00063584551
5.5946737e-06
0.00063366311
5.5257167e-06
0.00063151143
5.4531424e-06
0.000629388
5.3931833e-06
0.00062729402
5.3276691e-06
0.00062523195
5.2532905e-06
0.00062319881
5.1891699e-06
0.00062119317
5.123922e-06
0.00061921435
5.0586101e-06
0.00061725915
5.0063619e-06
0.00061532826
4.9504194e-06
0.00061342279
4.8913329e-06
0.00061154194
4.835228e-06
0.00060968506
4.7777722e-06
0.00060784942
4.7282957e-06
0.0006060347
4.6790114e-06
0.00060424102
4.6296924e-06
0.00060246758
4.5839692e-06
0.00060071377
4.536882e-06
0.00059897877
4.4943857e-06
0.00059725422
4.4682377e-06
0.00059555663
4.4150503e-06
0.00059385308
4.3893294e-06
0.0005921718
4.5239517e-06
0.00059019793
4.6688309e-06
4.518662e-06
0.00088146919
7.2578125e-06
-0.00088112502
0.00088190032
9.2039741e-06
0.00088226134
1.0196558e-05
0.00088255352
1.0725527e-05
0.00088282294
1.1224373e-05
0.00088303873
1.1663336e-05
0.00088322156
1.2019556e-05
0.00088338261
1.2368475e-05
0.0008835194
1.2698262e-05
0.00088365344
1.3029722e-05
0.00088378312
1.3366221e-05
0.00088389448
1.3723607e-05
0.00088398653
1.4085004e-05
0.00088405927
1.4436815e-05
0.00088410964
1.4780656e-05
0.00088413283
1.5107143e-05
0.00088412365
1.5413751e-05
0.00088407329
1.5708702e-05
0.00088397605
1.6004482e-05
0.00088381873
1.6281639e-05
0.00088357791
1.6504651e-05
0.00088323386
1.6682045e-05
0.00088276374
1.682954e-05
0.00088213968
1.695067e-05
0.00088132383
1.7073291e-05
0.00088026416
1.7206149e-05
0.00087891067
1.7315973e-05
0.00087722227
1.7394951e-05
0.00087515904
1.7456525e-05
0.00087267991
1.7510504e-05
0.00086975153
1.7550218e-05
0.00086630821
1.7588015e-05
0.00086230507
1.7618188e-05
0.00085778982
1.7603303e-05
0.00085283075
1.7517943e-05
0.00084749086
1.7363601e-05
0.00084184547
1.7135056e-05
0.00083599479
1.6851818e-05
0.00083004824
1.6495005e-05
0.00082408306
1.6084083e-05
0.00081815821
1.5657936e-05
0.00081233371
1.5198093e-05
0.00080663364
1.4741151e-05
0.00080104762
1.4325247e-05
0.0007955913
1.3915848e-05
0.00079029084
1.351332e-05
0.00078517661
1.3144352e-05
0.00078027935
1.2804735e-05
0.00077559729
1.2486916e-05
0.00077111033
1.2178499e-05
0.00076679318
1.1899241e-05
0.00076262346
1.1662057e-05
0.0007585879
1.145155e-05
0.0007546845
1.1230809e-05
0.00075091139
1.1000051e-05
0.00074725575
1.0805982e-05
0.00074370039
1.0650503e-05
0.00074023184
1.0505147e-05
0.00073684606
1.0345876e-05
0.000733541
1.0180547e-05
0.00073031066
1.002636e-05
0.00072715086
9.8675352e-06
0.00072405883
9.6981498e-06
0.0007210307
9.5314641e-06
0.00071806043
9.3800722e-06
0.00071513839
9.2369601e-06
0.00071225997
9.1027789e-06
0.00070942785
8.9815153e-06
0.00070664338
8.8627035e-06
0.00070390918
8.7319192e-06
0.00070122558
8.5979855e-06
0.00069858868
8.4770761e-06
0.00069599959
8.3435301e-06
0.00069345603
8.2078749e-06
0.00069094872
8.1019852e-06
0.00068847694
7.9974949e-06
0.00068604365
7.8864252e-06
0.00068364709
7.7897453e-06
0.00068128798
7.6867802e-06
0.00067896825
7.5730193e-06
0.0006766839
7.4735251e-06
0.00067443183
7.3759911e-06
0.00067221135
7.2790869e-06
0.00067002026
7.1974582e-06
0.0006678594
7.1112701e-06
0.00066572984
7.0209009e-06
0.00066363026
6.9348081e-06
0.00066155891
6.8491193e-06
0.00065951293
6.7742784e-06
0.00065749222
6.6997175e-06
0.00065549715
6.6247619e-06
0.00065352693
6.5541911e-06
0.00065158021
6.4836059e-06
0.0006496559
6.4186876e-06
0.00064774507
6.3790659e-06
0.00064586616
6.2939656e-06
0.00064397917
6.2763236e-06
0.00064213715
6.3659667e-06
0.00063992395
6.8820334e-06
6.2223085e-06
0.00091101322
6.9700128e-06
-0.00091072542
0.0009114146
8.802601e-06
0.00091175829
9.8528612e-06
0.0009120376
1.0446224e-05
0.00091229153
1.0970438e-05
0.00091250868
1.1446184e-05
0.00091269253
1.1835709e-05
0.00091286019
1.2200814e-05
0.0009130106
1.2547849e-05
0.00091315019
1.2890134e-05
0.00091327849
1.3237926e-05
0.00091340292
1.3599177e-05
0.00091352314
1.3964778e-05
0.00091363779
1.4322167e-05
0.00091374819
1.4670259e-05
0.00091385371
1.5001622e-05
0.00091395218
1.531528e-05
0.00091404821
1.5612675e-05
0.00091414775
1.5904939e-05
0.0009142429
1.6186489e-05
0.00091432255
1.6425001e-05
0.00091438415
1.6620443e-05
0.00091442584
1.6787854e-05
0.0009144439
1.6932604e-05
0.000914439
1.7078196e-05
0.0009144058
1.7239345e-05
0.00091433007
1.7391705e-05
0.00091419756
1.7527465e-05
0.00091399069
1.7663386e-05
0.00091368622
1.781498e-05
0.00091325361
1.7982826e-05
0.0009126486
1.8193022e-05
0.00091180834
1.8458454e-05
0.00091066355
1.8748095e-05
0.00090914804
1.9033444e-05
0.00090719707
1.9314572e-05
0.0009047425
1.958963e-05
0.00090175663
1.9837684e-05
0.00089816666
2.0084983e-05
0.00089394526
2.0305474e-05
0.00088919334
2.040986e-05
0.00088399405
2.0397385e-05
0.00087844908
2.0286119e-05
0.00087267928
2.0095049e-05
0.00086679372
1.980141e-05
0.00086087371
1.9433331e-05
0.00085498879
1.9029273e-05
0.0008492057
1.8587824e-05
0.00084353011
1.8162498e-05
0.00083795508
1.7753535e-05
0.00083251652
1.7337797e-05
0.00082724136
1.6937218e-05
0.00082214908
1.6543834e-05
0.00081724846
1.6131431e-05
0.00081253249
1.5716011e-05
0.00080799006
1.5348416e-05
0.00080360601
1.5034552e-05
0.00079936436
1.4746802e-05
0.00079526098
1.4449251e-05
0.00079128953
1.4151999e-05
0.0007874338
1.3882094e-05
0.00078368012
1.3621213e-05
0.00078002055
1.3357723e-05
0.00077645092
1.3101093e-05
0.00077296688
1.2864105e-05
0.00076956628
1.2637569e-05
0.00076624479
1.2424264e-05
0.00076299442
1.2231887e-05
0.00075981102
1.2046098e-05
0.00075669489
1.1848052e-05
0.00075364442
1.1648455e-05
0.00075065366
1.1467838e-05
0.00074772226
1.1274931e-05
0.0007448436
1.1086534e-05
0.00074200682
1.0938762e-05
0.0007392154
1.0788918e-05
0.00073647392
1.0627906e-05
0.00073378013
1.0483532e-05
0.00073113382
1.0333097e-05
0.00072853608
1.017075e-05
0.00072598077
1.0028843e-05
0.00072346286
9.8938986e-06
0.00072098277
9.7591806e-06
0.00071853962
9.6406014e-06
0.00071613431
9.5165829e-06
0.00071376754
9.3876721e-06
0.00071143694
9.2654065e-06
0.00070913934
9.1467157e-06
0.00070687198
9.0416403e-06
0.00070463541
8.9362916e-06
0.0007024302
8.8299661e-06
0.00070025533
8.7290671e-06
0.00069810844
8.6304959e-06
0.00069598801
8.5391196e-06
0.00069388499
8.4820762e-06
0.00069181915
8.3598124e-06
0.00068974546
8.350014e-06
0.00068773479
8.3766355e-06
0.00068529124
9.3255828e-06
8.0480032e-06
0.00094154764
6.7312395e-06
-0.00094130887
0.00094190876
8.4414823e-06
0.00094223722
9.5244037e-06
0.00094251109
1.0172354e-05
0.00094276146
1.0720071e-05
0.00094298414
1.1223504e-05
0.00094317389
1.1645955e-05
0.00094334549
1.2029214e-05
0.00094349954
1.2393801e-05
0.0009436403
1.2749375e-05
0.00094376979
1.3108434e-05
0.00094389467
1.34743e-05
0.00094401579
1.3843655e-05
0.00094413253
1.420543e-05
0.00094424625
1.4556537e-05
0.00094435623
1.4891645e-05
0.00094446182
1.5209689e-05
0.00094456264
1.5511856e-05
0.00094466125
1.5806326e-05
0.00094475876
1.608898e-05
0.00094485021
1.633355e-05
0.00094493345
1.6537198e-05
0.00094500819
1.6713119e-05
0.00094507315
1.6867643e-05
0.00094513022
1.7021126e-05
0.0009451854
1.718416e-05
0.00094523807
1.7339035e-05
0.00094528015
1.7485388e-05
0.00094530854
1.7634998e-05
0.00094532449
1.7799026e-05
0.00094532596
1.7981361e-05
0.0009453131
1.8205884e-05
0.00094528215
1.8489406e-05
0.00094522023
1.881001e-05
0.00094510899
1.9144682e-05
0.00094492469
1.9498872e-05
0.0009446333
1.9881025e-05
0.00094418817
2.0282816e-05
0.00094352161
2.0751535e-05
0.00094254365
2.1283439e-05
0.00094116439
2.1789117e-05
0.00093929969
2.2262083e-05
0.00093688925
2.2696557e-05
0.00093389349
2.3090816e-05
0.00093023784
2.3457057e-05
0.00092593119
2.3739982e-05
0.00092108662
2.3873843e-05
0.00091581052
2.3863922e-05
0.00091023623
2.3736791e-05
0.00090449147
2.3498298e-05
0.00089866518
2.3164082e-05
0.0008928325
2.2769896e-05
0.00088706618
2.2310161e-05
0.00088138157
2.1816036e-05
0.000875761
2.1336587e-05
0.00087023499
2.087442e-05
0.00086484754
2.0422e-05
0.00085963431
1.9960032e-05
0.00085461052
1.9473044e-05
0.00084976022
1.90023e-05
0.00084505782
1.858449e-05
0.00084048984
1.81892e-05
0.00083605541
1.7792152e-05
0.00083175684
1.7399661e-05
0.00082758808
1.703286e-05
0.00082354761
1.6678047e-05
0.00081962974
1.6342124e-05
0.0008158196
1.6042032e-05
0.00081211018
1.5755519e-05
0.00080849735
1.5460879e-05
0.00080497362
1.5172184e-05
0.00080152903
1.4912429e-05
0.00079816175
1.4642214e-05
0.00079487122
1.437706e-05
0.000791651
1.4158982e-05
0.00078849786
1.3942057e-05
0.00078541042
1.3715345e-05
0.000782384
1.350996e-05
0.00077941707
1.3300021e-05
0.00077650959
1.3078227e-05
0.00077365172
1.2886721e-05
0.00077083705
1.2708562e-05
0.00076806929
1.252694e-05
0.00076534872
1.2361169e-05
0.00076267546
1.2189849e-05
0.00076004949
1.2013639e-05
0.00075746663
1.1848272e-05
0.00075492206
1.1691284e-05
0.0007524139
1.1549797e-05
0.0007499437
1.1406497e-05
0.00074751197
1.126169e-05
0.00074511704
1.1124001e-05
0.00074275518
1.0992358e-05
0.00074042442
1.0869871e-05
0.00073811618
1.079032e-05
0.00073585112
1.0624869e-05
0.00073358003
1.0621112e-05
0.00073138785
1.0568809e-05
0.0007287091
1.2004336e-05
1.0010253e-05
0.00097310301
6.5322428e-06
-0.00097290401
0.00097342641
8.1180757e-06
0.00097374086
9.2099511e-06
0.00097400978
9.9034427e-06
0.00097425509
1.0474756e-05
0.0009744774
1.1001194e-05
0.00097467021
1.1453145e-05
0.0009748435
1.1855923e-05
0.00097500106
1.2236246e-05
0.00097514501
1.2605419e-05
0.00097527912
1.2974332e-05
0.00097540751
1.3345902e-05
0.00097553223
1.371894e-05
0.0009756525
1.4085156e-05
0.00097576934
1.4439694e-05
0.00097588197
1.4779023e-05
0.00097598978
1.5101879e-05
0.00097609258
1.5409058e-05
0.00097619245
1.5706447e-05
0.00097629063
1.5990803e-05
0.00097638333
1.6240849e-05
0.00097646858
1.645195e-05
0.00097654615
1.6635549e-05
0.0009766148
1.6798996e-05
0.00097667679
1.6959131e-05
0.00097673471
1.712624e-05
0.00097678673
1.7287019e-05
0.00097683209
1.7440028e-05
0.00097687098
1.7596108e-05
0.00097690387
1.776613e-05
0.00097693044
1.7954795e-05
0.00097695315
1.818317e-05
0.00097697734
1.8465215e-05
0.0009770036
1.8783757e-05
0.00097702672
1.9121562e-05
0.00097704433
1.9481254e-05
0.00097705493
1.9870424e-05
0.00097705333
2.0284425e-05
0.00097703939
2.0765473e-05
0.00097700372
2.1319103e-05
0.00097691958
2.1873265e-05
0.00097675717
2.2424485e-05
0.00097647317
2.2980561e-05
0.00097600568
2.355831e-05
0.00097526593
2.4196806e-05
0.00097414676
2.4859145e-05
0.0009725461
2.5474507e-05
0.00097037455
2.6035474e-05
0.00096758009
2.6531247e-05
0.00096409832
2.6980069e-05
0.00095993906
2.7323343e-05
0.00095522381
2.7485144e-05
0.00095006842
2.7465556e-05
0.00094461105
2.7273406e-05
0.00093897023
2.6977399e-05
0.00093322706
2.6617589e-05
0.00092745383
2.6195231e-05
0.00092172819
2.5685679e-05
0.00091606149
2.5139741e-05
0.00091042947
2.463432e-05
0.00090486639
2.4147566e-05
0.00089942135
2.3634249e-05
0.00089413247
2.308103e-05
0.00088900667
2.2525454e-05
0.00088402448
2.201505e-05
0.00087917887
2.1523663e-05
0.00087447536
2.1045638e-05
0.00086991957
2.0597822e-05
0.00086550994
2.0165146e-05
0.00086123457
1.9736242e-05
0.00085707851
1.9328247e-05
0.00085303122
1.8959726e-05
0.00084909281
1.8580618e-05
0.00084526717
1.8202697e-05
0.00084154945
1.7876706e-05
0.00083792935
1.7562157e-05
0.00083440017
1.7244526e-05
0.00083095396
1.6956168e-05
0.00082758607
1.6667917e-05
0.00082429326
1.6371033e-05
0.00082106958
1.6110401e-05
0.00081791277
1.5865371e-05
0.00081482136
1.5618351e-05
0.00081179046
1.5392069e-05
0.00080881809
1.5162222e-05
0.00080590328
1.4928446e-05
0.00080303901
1.471254e-05
0.0008002191
1.4511201e-05
0.00079744403
1.4324863e-05
0.00079471631
1.4134219e-05
0.00079203571
1.3942288e-05
0.00078939937
1.3760344e-05
0.00078680174
1.3589985e-05
0.0007842408
1.343081e-05
0.00078170901
1.3322115e-05
0.0007792275
1.3106376e-05
0.00077674304
1.310557e-05
0.0007743524
1.2959451e-05
0.00077142561
1.4931123e-05
1.2123256e-05
0.0010057135
6.3638064e-06
-0.0010055451
0.0010060026
7.8290471e-06
0.0010063008
8.9116727e-06
0.001006563
9.6412852e-06
0.0010068025
1.0235293e-05
0.0010070233
1.0780383e-05
0.0010072191
1.1257278e-05
0.0010073956
1.1679438e-05
0.0010075571
1.207475e-05
0.0010077055
1.2457007e-05
0.0010078444
1.2835414e-05
0.0010079766
1.3213718e-05
0.0010081046
1.3590984e-05
0.0010082281
1.39616e-05
0.0010083479
1.431997e-05
0.0010084632
1.4663687e-05
0.0010085737
1.499133e-05
0.0010086794
1.5303429e-05
0.0010087817
1.560411e-05
0.0010088818
1.5890696e-05
0.0010089766
1.6146048e-05
0.001009064
1.6364611e-05
0.0010091435
1.6556026e-05
0.0010092142
1.6728246e-05
0.001009278
1.6895413e-05
0.001009337
1.7067217e-05
0.0010093901
1.7233935e-05
0.0010094366
1.7393529e-05
0.0010094769
1.7555774e-05
0.0010095117
1.773136e-05
0.0010095406
1.792588e-05
0.0010095663
1.8157468e-05
0.0010095922
1.8439319e-05
0.0010096183
1.8757615e-05
0.0010096435
1.9096376e-05
0.0010096676
1.9457171e-05
0.0010096906
1.9847369e-05
0.0010097108
2.0264262e-05
0.0010097328
2.0743522e-05
0.001009761
2.1290905e-05
0.0010097923
2.1841899e-05
0.0010098222
2.2394552e-05
0.0010098424
2.2960386e-05
0.0010098489
2.3551842e-05
0.001009838
2.4207681e-05
0.0010097911
2.4906098e-05
0.0010096729
2.5592653e-05
0.0010094379
2.627047e-05
0.0010090173
2.6951822e-05
0.0010083123
2.7685072e-05
0.0010072048
2.8430919e-05
0.0010055822
2.9107728e-05
0.0010033519
2.9695828e-05
0.0010004159
3.0209464e-05
0.00099674718
3.064607e-05
0.00099244275
3.0922023e-05
0.00098762609
3.1011887e-05
0.00098242377
3.0888001e-05
0.00097696431
3.0599202e-05
0.00097134395
3.0254679e-05
0.00096563077
2.9860743e-05
0.00095989617
2.936885e-05
0.00095419669
2.878051e-05
0.00094851513
2.8207021e-05
0.00094283968
2.7690499e-05
0.00093723055
2.7132787e-05
0.00093174779
2.6528403e-05
0.0009264161
2.592951e-05
0.00092122672
2.5354525e-05
0.00091617227
2.4790692e-05
0.0009112531
2.4247423e-05
0.00090647508
2.373774e-05
0.00090184311
2.3212587e-05
0.00089735081
2.2694997e-05
0.00089298774
2.2239773e-05
0.0008887521
2.17978e-05
0.00088464329
2.1353338e-05
0.00088065009
2.0949368e-05
0.00087676251
2.055549e-05
0.00087297429
2.0159256e-05
0.00086928434
1.9800354e-05
0.00086569443
1.9455278e-05
0.00086219657
1.9116215e-05
0.00085877951
1.8809126e-05
0.00085543857
1.8503158e-05
0.00085217034
1.8196685e-05
0.00084897001
1.7912865e-05
0.00084583456
1.7646649e-05
0.00084276048
1.7398946e-05
0.00083974572
1.7148974e-05
0.00083678816
1.689985e-05
0.00083388326
1.666525e-05
0.00083102327
1.6449967e-05
0.00082820705
1.6247036e-05
0.00082542874
1.6100421e-05
0.0008227091
1.5826018e-05
0.0008199907
1.582397e-05
0.00081738057
1.5569582e-05
0.00081418729
1.8124404e-05
1.4401947e-05
0.0010394132
6.2188011e-06
-0.0010392682
0.0010396711
7.5711391e-06
0.0010399517
8.6311438e-06
0.0010402063
9.386648e-06
0.0010404405
1.0001115e-05
0.0010406595
1.0561394e-05
0.0010408576
1.1059108e-05
0.001041037
1.1500092e-05
0.0010412016
1.1910081e-05
0.0010413538
1.2304846e-05
0.0010414964
1.2692852e-05
0.0010416321
1.3077985e-05
0.0010417631
1.3460034e-05
0.0010418899
1.3834766e-05
0.0010420126
1.4197257e-05
0.001042131
1.4545335e-05
0.0010422446
1.4877678e-05
0.0010423534
1.5194592e-05
0.0010424587
1.5498847e-05
0.0010425613
1.5788128e-05
0.0010426586
1.6048681e-05
0.0010427486
1.6274654e-05
0.0010428307
1.6473961e-05
0.0010429041
1.6654772e-05
0.0010429704
1.682917e-05
0.0010430315
1.7006118e-05
0.0010430866
1.7178819e-05
0.001043135
1.7345097e-05
0.0010431771
1.751367e-05
0.0010432135
1.7694982e-05
0.0010432441
1.7895318e-05
0.0010432711
1.8130407e-05
0.0010432979
1.8412545e-05
0.0010433247
1.873079e-05
0.0010433506
1.9070486e-05
0.0010433756
1.9432223e-05
0.0010433998
1.9823124e-05
0.0010434218
2.0242274e-05
0.001043446
2.0719361e-05
0.001043476
2.1260823e-05
0.0010435072
2.1810712e-05
0.0010435388
2.2363026e-05
0.0010435695
2.2929628e-05
0.001043599
2.3522377e-05
0.0010436314
2.4175239e-05
0.001043668
2.4869561e-05
0.0010437076
2.5553033e-05
0.0010437428
2.6235225e-05
0.001043761
2.6933644e-05
0.001043758
2.7688039e-05
0.0010437138
2.847514e-05
0.0010435865
2.9235052e-05
0.0010433191
2.9963239e-05
0.0010428206
3.0707994e-05
0.0010419694
3.149724e-05
0.0010406398
3.225159e-05
0.0010387266
3.2925141e-05
0.0010360999
3.3514699e-05
0.0010326814
3.4017706e-05
0.001028568
3.4368077e-05
0.0010239152
3.4513466e-05
0.001018854
3.4430118e-05
0.0010135031
3.4131425e-05
0.0010079563
3.375378e-05
0.0010022821
3.3364717e-05
0.00099654375
3.2871115e-05
0.0009908136
3.2258557e-05
0.00098507926
3.1663846e-05
0.00097931546
3.111833e-05
0.00097358826
3.0517889e-05
0.00096796577
2.9869913e-05
0.00096247647
2.922704e-05
0.00095711703
2.8572028e-05
0.00095188396
2.7928066e-05
0.00094678214
2.73416e-05
0.00094182952
2.6750419e-05
0.00093703238
2.6150476e-05
0.0009323758
2.5605948e-05
0.00092785063
2.5080661e-05
0.00092345586
2.4554025e-05
0.00091918874
2.4067473e-05
0.0009150469
2.359712e-05
0.00091102412
2.313899e-05
0.00090711087
2.2722381e-05
0.00090330096
2.2313068e-05
0.00089958669
2.1910949e-05
0.00089596517
2.1534393e-05
0.00089243743
2.1174385e-05
0.00088899517
2.0841202e-05
0.00088563013
2.0514017e-05
0.0008823371
2.019288e-05
0.00087911137
1.9890977e-05
0.00087594877
1.961257e-05
0.00087284699
1.9348814e-05
0.0008697947
1.9152719e-05
0.00086681068
1.8810037e-05
0.00086383301
1.8801638e-05
0.00086097801
1.8424585e-05
0.0008574953
2.1607112e-05
1.6862247e-05
0.0010742376
6.0920077e-06
-0.0010741108
0.0010744679
7.3408127e-06
0.0010747302
8.368872e-06
0.0010749766
9.1401966e-06
0.0010752056
9.772102e-06
0.0010754221
1.0344958e-05
0.0010756213
1.0859853e-05
0.001075803
1.1318423e-05
0.0010759705
1.1742588e-05
0.0010761262
1.214919e-05
0.0010762724
1.2546582e-05
0.0010764118
1.2938608e-05
0.0010765462
1.3325639e-05
0.0010766764
1.3704596e-05
0.0010768022
1.407139e-05
0.0010769237
1.4423893e-05
0.0010770404
1.4760944e-05
0.0010771524
1.5082644e-05
0.0010772605
1.5390737e-05
0.0010773654
1.568315e-05
0.0010774652
1.5948874e-05
0.0010775577
1.6182172e-05
0.0010776423
1.6389399e-05
0.0010777184
1.657863e-05
0.0010777872
1.676037e-05
0.0010778505
1.6942819e-05
0.0010779078
1.7121546e-05
0.0010779584
1.7294552e-05
0.0010780025
1.7469567e-05
0.0010780407
1.7656708e-05
0.0010780733
1.7862774e-05
0.0010781022
1.810152e-05
0.0010781304
1.83843e-05
0.0010781585
1.870265e-05
0.0010781857
1.9043318e-05
0.0010782118
1.9406103e-05
0.0010782372
1.9797799e-05
0.0010782605
2.0218961e-05
0.0010782856
2.0694263e-05
0.001078316
2.1230394e-05
0.0010783477
2.1779045e-05
0.0010783797
2.2331012e-05
0.0010784114
2.2897862e-05
0.0010784426
2.3491245e-05
0.0010784773
2.4140521e-05
0.0010785164
2.4830425e-05
0.001078556
2.5513441e-05
0.0010785952
2.6196075e-05
0.001078633
2.6895783e-05
0.0010786738
2.7647276e-05
0.0010787161
2.8432823e-05
0.0010787619
2.918925e-05
0.0010788021
2.992307e-05
0.001078819
3.06911e-05
0.0010788032
3.1513006e-05
0.0010787214
3.2333375e-05
0.0010785196
3.3127004e-05
0.0010781091
3.3925153e-05
0.0010773611
3.476572e-05
0.0010761362
3.5593004e-05
0.0010743184
3.633123e-05
0.0010717717
3.6976864e-05
0.0010683802
3.7522926e-05
0.0010642438
3.7890097e-05
0.0010595741
3.8034501e-05
0.0010545135
3.7931649e-05
0.0010491676
3.7604512e-05
0.0010436181
3.7213318e-05
0.0010379297
3.6806753e-05
0.0010321605
3.6287108e-05
0.001026379
3.5651386e-05
0.0010205722
3.5033851e-05
0.0010147195
3.4424728e-05
0.0010088898
3.3757739e-05
0.0010031492
3.3082223e-05
0.00099753025
3.2369345e-05
0.00099203276
3.1647964e-05
0.00098665739
3.0981317e-05
0.00098142087
3.0317188e-05
0.00097633782
2.9637075e-05
0.00097140267
2.9002619e-05
0.00096660848
2.8391309e-05
0.00096195644
2.7791028e-05
0.00095744459
2.7234229e-05
0.00095306599
2.6691676e-05
0.00094880999
2.616695e-05
0.00094467199
2.5672386e-05
0.00094065273
2.5193644e-05
0.00093674449
2.474945e-05
0.00093293814
2.432036e-05
0.00092922648
2.3904544e-05
0.00092560382
2.3513632e-05
0.00092206951
2.3146881e-05
0.00091862006
2.2798272e-05
0.00091523753
2.2535244e-05
0.00091193673
2.2110837e-05
0.0009086544
2.2083964e-05
0.00090551975
2.1559237e-05
0.00090172115
2.5405718e-05
1.9521037e-05
0.0011102236
5.979571e-06
-0.0011101112
0.0011104299
7.1345341e-06
0.0011106741
8.124715e-06
0.0011109116
8.9027065e-06
0.0011111352
9.5484235e-06
0.0011113486
1.0131616e-05
0.001111548
1.0660409e-05
0.0011117316
1.1134798e-05
0.0011119018
1.1572459e-05
0.0011120607
1.1990258e-05
0.0011122105
1.2396748e-05
0.0011123535
1.27957e-05
0.0011124912
1.3187911e-05
0.0011126245
1.3571272e-05
0.0011127534
1.3942459e-05
0.0011128779
1.4299442e-05
0.0011129976
1.4641187e-05
0.0011131127
1.496763e-05
0.0011132236
1.5279756e-05
0.0011133311
1.5575667e-05
0.0011134334
1.5846559e-05
0.0011135285
1.6087075e-05
0.0011136157
1.6302221e-05
0.0011136946
1.649974e-05
0.0011137661
1.6688908e-05
0.0011138317
1.6877187e-05
0.0011138912
1.7062023e-05
0.001113944
1.7241805e-05
0.0011139902
1.7423372e-05
0.0011140304
1.7616441e-05
0.001114065
1.7828171e-05
0.0011140958
1.8070703e-05
0.0011141257
1.8354455e-05
0.0011141553
1.8673069e-05
0.0011141839
1.9014738e-05
0.0011142113
1.9378652e-05
0.0011142379
1.9771197e-05
0.0011142628
2.0194102e-05
0.0011142892
2.0667856e-05
0.0011143205
2.1199058e-05
0.0011143533
2.1746233e-05
0.0011143864
2.2297916e-05
0.0011144193
2.2864965e-05
0.0011144517
2.3458866e-05
0.0011144872
2.4104963e-05
0.0011145268
2.4790844e-05
0.0011145668
2.5473429e-05
0.0011146067
2.6156201e-05
0.0011146462
2.6856314e-05
0.0011146889
2.7604596e-05
0.0011147359
2.8385827e-05
0.0011147825
2.9142593e-05
0.0011148264
2.9879146e-05
0.0011148702
3.0647359e-05
0.0011149153
3.1467868e-05
0.0011149628
3.2285937e-05
0.0011150089
3.3080838e-05
0.0011150369
3.3897203e-05
0.0011150315
3.4771087e-05
0.0011149634
3.5661094e-05
0.0011147748
3.6519875e-05
0.0011143705
3.7381144e-05
0.0011136064
3.8286986e-05
0.0011123262
3.9170349e-05
0.0011104132
3.9947494e-05