/*--------------------------------*- C++ -*----------------------------------*\
  =========                 |
  \\      /  F ield         | OpenFOAM: The Open Source CFD Toolbox
   \\    /   O peration     | Website:  https://openfoam.org
    \\  /    A nd           | Version:  12
     \\/     M anipulation  |
\*---------------------------------------------------------------------------*/
FoamFile
{
    format      ascii;
    class       volVectorField;
    location    "900";
    object      wallShearStress;
}
// * * * * * * * * * * * * * * * * * * * * * * * * * * * * * * * * * * * * * //

dimensions      [0 2 -2 0 0 0 0];

internalField   uniform (0 0 0);

boundaryField
{
    inlet
    {
        type            calculated;
        value           uniform (0 0 0);
    }
    top
    {
        type            calculated;
        value           uniform (0 0 0);
    }
    outlet
    {
        type            calculated;
        value           uniform (0 0 0);
    }
    slipsurface
    {
        type            calculated;
        value           uniform (0 0 0);
    }
    bottom
    {
        type            calculated;
        value           nonuniform List<vector> 
100
(
(-0.0033445841 -3.5412893e-06 0)
(-0.0032712003 -6.5128244e-06 0)
(-0.0031942872 -8.1574945e-06 0)
(-0.0031132696 -9.5821634e-06 0)
(-0.0030338904 -1.1310951e-05 0)
(-0.0029581247 -1.2320382e-05 0)
(-0.0028861161 -1.2351888e-05 0)
(-0.0028176782 -1.1975003e-05 0)
(-0.0027522024 -1.141733e-05 0)
(-0.002689107 -1.069652e-05 0)
(-0.0026272757 -9.891363e-06 0)
(-0.0025662295 -9.1443693e-06 0)
(-0.0025057973 -8.453977e-06 0)
(-0.0024460054 -7.809865e-06 0)
(-0.0023869747 -7.2046793e-06 0)
(-0.0023289143 -6.6274579e-06 0)
(-0.0022721785 -6.0475126e-06 0)
(-0.0022174922 -5.4797402e-06 0)
(-0.0021642244 -4.9719624e-06 0)
(-0.0021131891 -4.4885662e-06 0)
(-0.0020646461 -4.0262864e-06 0)
(-0.0020187974 -3.5858581e-06 0)
(-0.0019758417 -3.1691651e-06 0)
(-0.0019359347 -2.7793633e-06 0)
(-0.001899203 -2.4136744e-06 0)
(-0.0018657584 -2.0730083e-06 0)
(-0.0018355856 -1.7640451e-06 0)
(-0.0018085561 -1.4863469e-06 0)
(-0.0017844938 -1.2394161e-06 0)
(-0.0017631885 -1.0262012e-06 0)
(-0.0017443911 -8.456931e-07 0)
(-0.001727847 -6.9291062e-07 0)
(-0.0017133558 -5.6329298e-07 0)
(-0.0017007069 -4.5625962e-07 0)
(-0.0016896346 -3.6871347e-07 0)
(-0.0016798539 -3.00265e-07 0)
(-0.0016710846 -2.5138577e-07 0)
(-0.0016630716 -2.1832671e-07 0)
(-0.0016556534 -1.9365138e-07 0)
(-0.0016487108 -1.7727569e-07 0)
(-0.0016420883 -1.7061737e-07 0)
(-0.001635627 -1.7068459e-07 0)
(-0.0016292075 -1.7548979e-07 0)
(-0.0016227457 -1.8297065e-07 0)
(-0.0016162014 -1.9100859e-07 0)
(-0.0016095458 -2.0004484e-07 0)
(-0.0016027363 -2.1193421e-07 0)
(-0.0015956806 -2.2620151e-07 0)
(-0.0015883113 -2.4015818e-07 0)
(-0.0015806274 -2.5183332e-07 0)
(-0.0015726604 -2.6158194e-07 0)
(-0.0015644272 -2.6981892e-07 0)
(-0.0015559423 -2.7576398e-07 0)
(-0.0015472591 -2.7799947e-07 0)
(-0.0015384663 -2.7654981e-07 0)
(-0.0015296299 -2.7312849e-07 0)
(-0.0015207699 -2.6864238e-07 0)
(-0.0015118917 -2.6323068e-07 0)
(-0.001503024 -2.5666202e-07 0)
(-0.0014941994 -2.4966695e-07 0)
(-0.0014854207 -2.4298208e-07 0)
(-0.0014766916 -2.357761e-07 0)
(-0.0014680448 -2.2768637e-07 0)
(-0.0014595112 -2.1937613e-07 0)
(-0.0014510888 -2.1148966e-07 0)
(-0.0014427786 -2.0332543e-07 0)
(-0.0014345987 -1.9508349e-07 0)
(-0.0014265391 -1.8775304e-07 0)
(-0.0014185716 -1.8106023e-07 0)
(-0.001410693 -1.743841e-07 0)
(-0.0014029161 -1.6788592e-07 0)
(-0.0013952309 -1.619604e-07 0)
(-0.001387637 -1.5577392e-07 0)
(-0.0013801598 -1.4945865e-07 0)
(-0.001372791 -1.4387515e-07 0)
(-0.0013655112 -1.3842494e-07 0)
(-0.0013583283 -1.3302447e-07 0)
(-0.0013512322 -1.2829031e-07 0)
(-0.0013442091 -1.2360103e-07 0)
(-0.0013372759 -1.1876458e-07 0)
(-0.0013304341 -1.1435188e-07 0)
(-0.0013236754 -1.0996999e-07 0)
(-0.0013170084 -1.0563887e-07 0)
(-0.0013104212 -1.0182497e-07 0)
(-0.0013039014 -9.8072285e-08 0)
(-0.0012974571 -9.4357512e-08 0)
(-0.0012910893 -9.0842093e-08 0)
(-0.0012847986 -8.7357778e-08 0)
(-0.0012785811 -8.4131154e-08 0)
(-0.0012724293 -8.1014839e-08 0)
(-0.0012663452 -7.8003202e-08 0)
(-0.0012603233 -7.5187462e-08 0)
(-0.0012543659 -7.2389573e-08 0)
(-0.0012484653 -6.9798356e-08 0)
(-0.0012426307 -6.7405301e-08 0)
(-0.001236782 -6.5097922e-08 0)
(-0.0012311785 -6.2673405e-08 0)
(-0.0012250883 -1.5456802e-07 0)
(-0.0012197851 -2.8581077e-07 0)
(-0.0012117842 -2.7229959e-07 0)
)
;
    }
    frontandback
    {
        type            empty;
    }
}


// ************************************************************************* //
