/*--------------------------------*- C++ -*----------------------------------*\
  =========                 |
  \\      /  F ield         | OpenFOAM: The Open Source CFD Toolbox
   \\    /   O peration     | Website:  https://openfoam.org
    \\  /    A nd           | Version:  12
     \\/     M anipulation  |
\*---------------------------------------------------------------------------*/
FoamFile
{
    format      ascii;
    class       volScalarField;
    location    "900";
    object      yPlus;
}
// * * * * * * * * * * * * * * * * * * * * * * * * * * * * * * * * * * * * * //

dimensions      [];

internalField   uniform 0;

boundaryField
{
    inlet
    {
        type            calculated;
        value           uniform 0;
    }
    top
    {
        type            calculated;
        value           uniform 0;
    }
    outlet
    {
        type            calculated;
        value           uniform 0;
    }
    slipsurface
    {
        type            calculated;
        value           uniform 0;
    }
    bottom
    {
        type            calculated;
        value           nonuniform List<scalar> 
100
(
115.85507
114.5753
113.22159
111.77647
110.34282
108.95782
107.62403
106.34042
105.09761
103.88595
102.68472
101.4848
100.2828
99.079182
97.876359
96.678718
95.493897
94.33768
93.197656
92.092196
91.028272
90.01185
89.049036
88.145131
87.304878
86.53272
85.830137
85.195822
84.627133
84.12039
83.670755
83.27301
82.923059
82.616383
82.346997
82.108302
81.893698
81.697112
81.514701
81.34361
81.180074
81.020203
80.86105
80.700534
80.537641
80.371641
80.201445
80.024715
79.839713
79.646355
79.445378
79.237151
79.021983
78.801179
78.576955
78.350971
78.123729
77.895353
77.666575
77.438243
77.210426
76.983226
76.757506
76.534091
76.312943
76.094112
75.878095
75.664653
75.453055
75.243235
75.035546
74.82974
74.625823
74.424493
74.225548
74.028479
73.83352
73.640409
73.448784
73.259121
73.071477
72.885635
72.70185
72.519811
72.339178
72.160196
71.982899
71.807321
71.633361
71.460826
71.289777
71.12007
70.951782
70.784705
70.619109
70.452721
70.292931
70.11885
69.966932
69.737092
)
;
    }
    frontandback
    {
        type            empty;
    }
}


// ************************************************************************* //
