/*--------------------------------*- C++ -*----------------------------------*\
  =========                 |
  \\      /  F ield         | OpenFOAM: The Open Source CFD Toolbox
   \\    /   O peration     | Website:  https://openfoam.org
    \\  /    A nd           | Version:  12
     \\/     M anipulation  |
\*---------------------------------------------------------------------------*/
FoamFile
{
    format      ascii;
    class       volScalarField;
    location    "1000";
    object      nut;
}
// * * * * * * * * * * * * * * * * * * * * * * * * * * * * * * * * * * * * * //

dimensions      [0 2 -1 0 0 0 0];

internalField   nonuniform List<scalar> 
7480
(
1.2563473e-06
1.5132294e-06
1.8343391e-06
2.2094144e-06
2.6366997e-06
3.1127403e-06
3.6298114e-06
4.1753076e-06
4.7323153e-06
5.2805887e-06
5.7986073e-06
6.2672866e-06
6.6720349e-06
7.0041153e-06
7.260696e-06
7.4452208e-06
7.5601577e-06
7.6383911e-06
7.635703e-06
7.6137012e-06
7.5653023e-06
7.4977852e-06
7.4180029e-06
7.3319365e-06
7.2447698e-06
7.1610144e-06
7.084571e-06
7.0186298e-06
6.9655519e-06
6.9264954e-06
6.9008936e-06
6.8862709e-06
6.8786198e-06
6.8734547e-06
6.8671132e-06
6.8575722e-06
6.8444766e-06
6.8285747e-06
6.8109369e-06
6.7923658e-06
6.7732092e-06
6.7534994e-06
6.7332161e-06
6.7124621e-06
6.6914647e-06
6.6704683e-06
6.6496361e-06
6.6290293e-06
6.6086532e-06
6.5885065e-06
6.5685971e-06
6.5489301e-06
6.5295087e-06
6.5103289e-06
6.4913841e-06
6.4726694e-06
6.4541813e-06
6.4359133e-06
6.4178586e-06
6.4000167e-06
6.3823817e-06
6.3649436e-06
6.3476946e-06
6.3306294e-06
6.3137433e-06
6.2970327e-06
6.280494e-06
6.2641229e-06
6.2479154e-06
6.2318677e-06
6.2159755e-06
6.2002352e-06
6.1846434e-06
6.1691965e-06
6.1538907e-06
6.138723e-06
6.1236903e-06
6.1087897e-06
6.0940181e-06
6.0793729e-06
6.0648513e-06
6.0504505e-06
6.0361679e-06
6.022001e-06
6.007947e-06
5.9940034e-06
5.9801676e-06
5.9664368e-06
5.9528083e-06
5.9392784e-06
5.925845e-06
5.912501e-06
5.8992492e-06
5.8860625e-06
5.8729788e-06
5.859864e-06
5.8469647e-06
5.8334553e-06
5.8220082e-06
5.8008686e-06
2.3221775e-05
1.1780897e-05
7.3154571e-06
4.8922636e-06
3.3898316e-06
2.4209073e-06
1.8034579e-06
1.4277155e-06
1.2183112e-06
1.1265186e-06
1.1250805e-06
1.1869006e-06
1.2918062e-06
1.4296445e-06
1.5923084e-06
1.7729421e-06
1.9678275e-06
2.1744478e-06
2.3984763e-06
2.6491288e-06
2.9425828e-06
3.3125647e-06
3.7824897e-06
4.3198439e-06
4.922255e-06
5.5940432e-06
6.3332965e-06
7.1397321e-06
7.9990102e-06
8.8772253e-06
9.7305365e-06
1.0514855e-05
1.1194244e-05
1.1755791e-05
1.2212596e-05
1.2591192e-05
1.2918518e-05
1.3212607e-05
1.3479622e-05
1.3717944e-05
1.3925148e-05
1.4102644e-05
1.4256256e-05
1.4393374e-05
1.4519595e-05
1.4637538e-05
1.4747566e-05
1.48494e-05
1.494348e-05
1.5030871e-05
1.5112546e-05
1.5189071e-05
1.5260655e-05
1.5327498e-05
1.5389916e-05
1.5448233e-05
1.5502674e-05
1.5553394e-05
1.5600609e-05
1.5644617e-05
1.5685436e-05
1.5723146e-05
1.5757882e-05
1.5789785e-05
1.5818996e-05
1.5845646e-05
1.5869842e-05
1.5891695e-05
1.5911308e-05
1.5928772e-05
1.5944184e-05
1.5957634e-05
1.5969202e-05
1.5978975e-05
1.5987041e-05
1.599348e-05
1.5998367e-05
1.6001774e-05
1.6003771e-05
1.6004423e-05
1.6003795e-05
1.6001947e-05
1.5998936e-05
1.5994818e-05
1.5989646e-05
1.5983469e-05
1.5976337e-05
1.5968294e-05
1.5959387e-05
1.5949652e-05
1.5939132e-05
1.592788e-05
1.5915906e-05
1.5903312e-05
1.5889981e-05
1.5876301e-05
1.5861567e-05
1.584688e-05
1.5833176e-05
1.580401e-05
0.0001019335
6.3844869e-05
4.3548722e-05
3.1493437e-05
2.3446232e-05
1.7668857e-05
1.3372918e-05
1.0148493e-05
7.7395834e-06
5.9549388e-06
4.6410889e-06
3.6708244e-06
2.9481649e-06
2.4065225e-06
1.9991193e-06
1.6915192e-06
1.4600998e-06
1.2851132e-06
1.1544402e-06
1.0588884e-06
9.9182421e-07
9.5145142e-07
9.3099867e-07
9.7146638e-07
1.0841883e-06
1.2738189e-06
1.5534478e-06
1.9132898e-06
2.3704738e-06
2.9713118e-06
3.8029509e-06
4.8404325e-06
6.0316985e-06
7.322625e-06
8.6647452e-06
9.9869748e-06
1.1220331e-05
1.231981e-05
1.3272887e-05
1.4096015e-05
1.4822065e-05
1.5483817e-05
1.6102366e-05
1.6684219e-05
1.7227004e-05
1.772748e-05
1.8186944e-05
1.8611588e-05
1.9008458e-05
1.9382336e-05
1.9735253e-05
2.0068054e-05
2.0381908e-05
2.0678556e-05
2.0959706e-05
2.1226572e-05
2.1479986e-05
2.1720703e-05
2.1949461e-05
2.2166785e-05
2.2373394e-05
2.2569887e-05
2.2756791e-05
2.2934573e-05
2.3103656e-05
2.3264428e-05
2.3417243e-05
2.3562433e-05
2.3700307e-05
2.3831154e-05
2.395525e-05
2.4072861e-05
2.4184238e-05
2.4289624e-05
2.4389252e-05
2.4483351e-05
2.4572135e-05
2.4655815e-05
2.473459e-05
2.4808654e-05
2.4878192e-05
2.4943382e-05
2.5004396e-05
2.5061398e-05
2.5114547e-05
2.5163995e-05
2.520989e-05
2.5252374e-05
2.5291582e-05
2.5327666e-05
2.5360739e-05
2.5390942e-05
2.5418346e-05
2.5443191e-05
2.5465315e-05
2.5485525e-05
2.5502321e-05
2.551967e-05
2.5529806e-05
2.5545246e-05
0.00015431895
0.00012736117
0.00010268816
8.3376574e-05
6.8456129e-05
5.6670335e-05
4.71387e-05
3.9310461e-05
3.2841381e-05
2.7497893e-05
2.3100554e-05
1.9492104e-05
1.6532229e-05
1.4102179e-05
1.2104888e-05
1.0459973e-05
9.1033583e-06
7.9801136e-06
7.046267e-06
6.2646755e-06
5.6042996e-06
5.0372357e-06
4.5390328e-06
4.0920199e-06
3.6827499e-06
3.3036934e-06
2.9492717e-06
2.6145652e-06
2.30571e-06
2.0363601e-06
1.821979e-06
1.6908099e-06
1.745902e-06
2.020186e-06
2.4758366e-06
3.1488058e-06
4.1197679e-06
5.400722e-06
6.8724427e-06
8.4528944e-06
1.005857e-05
1.1599029e-05
1.3012677e-05
1.4277844e-05
1.5409235e-05
1.6441278e-05
1.7407178e-05
1.8325541e-05
1.9199473e-05
2.002513e-05
2.0800774e-05
2.1530136e-05
2.2219843e-05
2.2875427e-05
2.3499763e-05
2.4094254e-05
2.4660464e-05
2.5200466e-05
2.5716248e-05
2.6209245e-05
2.6680638e-05
2.7131578e-05
2.7563189e-05
2.7976467e-05
2.8372283e-05
2.8751432e-05
2.9114643e-05
2.946259e-05
2.9795892e-05
3.0115125e-05
3.0420831e-05
3.0713524e-05
3.0993689e-05
3.1261783e-05
3.1518248e-05
3.1763502e-05
3.1997952e-05
3.2221983e-05
3.2435971e-05
3.2640273e-05
3.2835235e-05
3.302119e-05
3.3198457e-05
3.3367347e-05
3.3528155e-05
3.3681171e-05
3.3826672e-05
3.396493e-05
3.4096203e-05
3.4220758e-05
3.4338831e-05
3.4450685e-05
3.4556492e-05
3.4656629e-05
3.4750957e-05
3.4840643e-05
3.4923387e-05
3.5006774e-05
3.5069059e-05
3.5177992e-05
0.00017034003
0.00015998699
0.00014550672
0.00013013728
0.0001156182
0.00010251068
9.0849185e-05
8.0507519e-05
7.1342406e-05
6.3232203e-05
5.60772e-05
4.9787924e-05
4.4277302e-05
3.9460502e-05
3.5257764e-05
3.1595321e-05
2.8406366e-05
2.5629668e-05
2.32097e-05
2.1097362e-05
1.9249071e-05
1.762447e-05
1.6187017e-05
1.4903169e-05
1.3742786e-05
1.2677812e-05
1.1682398e-05
1.0732466e-05
9.80184e-06
8.8785127e-06
7.9276977e-06
6.9775607e-06
6.0186187e-06
5.1193025e-06
4.2992791e-06
3.6029877e-06
3.0630965e-06
2.7034505e-06
2.6871095e-06
2.9712798e-06
3.5516937e-06
4.4808216e-06
5.8053791e-06
7.3809315e-06
9.1077864e-06
1.0879969e-05
1.2598164e-05
1.4201217e-05
1.56733e-05
1.7033438e-05
1.8313125e-05
1.9535953e-05
2.0709754e-05
2.1832177e-05
2.2900638e-05
2.3917476e-05
2.4888285e-05
2.5817993e-05
2.6709298e-05
2.756376e-05
2.8383173e-05
2.9169672e-05
2.9925189e-05
3.0651268e-05
3.1349265e-05
3.2020482e-05
3.2666125e-05
3.3287273e-05
3.3884911e-05
3.4459958e-05
3.5013272e-05
3.5545654e-05
3.6057855e-05
3.6550584e-05
3.702451e-05
3.7480273e-05
3.7918484e-05
3.8339729e-05
3.8744569e-05
3.9133545e-05
3.9507176e-05
3.9865963e-05
4.0210387e-05
4.0540916e-05
4.0858e-05
4.1162075e-05
4.1453566e-05
4.1732885e-05
4.200043e-05
4.2256599e-05
4.2501763e-05
4.2736317e-05
4.2960554e-05
4.3174997e-05
4.3379554e-05
4.357577e-05
4.376035e-05
4.394572e-05
4.4089863e-05
4.434444e-05
0.00017476614
0.00017161766
0.00016566104
0.00015744471
0.00014793058
0.00013793311
0.0001279716
0.0001183307
0.00010915447
0.00010051361
9.2442423e-05
8.4954642e-05
7.8049025e-05
7.1712163e-05
6.5921426e-05
6.064762e-05
5.5859054e-05
5.1521281e-05
4.759856e-05
4.4054979e-05
4.0855408e-05
3.7965347e-05
3.5351349e-05
3.2980701e-05
3.0821626e-05
2.8842759e-05
2.7014334e-05
2.530736e-05
2.3691801e-05
2.2144708e-05
2.063394e-05
1.9132063e-05
1.7610131e-05
1.6063532e-05
1.4459854e-05
1.2850865e-05
1.1205653e-05
9.5690622e-06
8.0263144e-06
6.638496e-06
5.4629651e-06
4.5597094e-06
3.9304177e-06
3.7594962e-06
3.9747783e-06
4.5853973e-06
5.653669e-06
7.1225013e-06
8.8428031e-06
1.0708758e-05
1.2600478e-05
1.4430711e-05
1.6158579e-05
1.7785524e-05
1.9334253e-05
2.0825289e-05
2.2265842e-05
2.3653619e-05
2.4986264e-05
2.6265858e-05
2.7496896e-05
2.868295e-05
2.9825992e-05
3.0927597e-05
3.1989668e-05
3.3014153e-05
3.4002701e-05
3.4956728e-05
3.5877581e-05
3.676654e-05
3.7624777e-05
3.8453377e-05
3.9253359e-05
4.0025679e-05
4.0771238e-05
4.1490892e-05
4.2185455e-05
4.2855707e-05
4.3502394e-05
4.4126232e-05
4.4727909e-05
4.5308087e-05
4.5867408e-05
4.640649e-05
4.6925933e-05
4.7426321e-05
4.790822e-05
4.8372182e-05
4.8818744e-05
4.9248438e-05
4.9661767e-05
5.0059262e-05
5.0441338e-05
5.0808667e-05
5.1161203e-05
5.1500915e-05
5.1823271e-05
5.2146812e-05
5.2403156e-05
5.2856062e-05
0.000176437
0.00017551876
0.00017346597
0.00016999896
0.00016517933
0.00015928519
0.00015265078
0.00014557214
0.00013827882
0.00013093962
0.00012367774
0.00011658407
0.00010972556
0.00010315052
9.6891839e-05
9.0969674e-05
8.5394242e-05
8.0167712e-05
7.5285858e-05
7.0739366e-05
6.6515128e-05
6.2597213e-05
5.896764e-05
5.5606804e-05
5.2493754e-05
4.9606861e-05
4.6921152e-05
4.4411244e-05
4.2051988e-05
3.9819146e-05
3.7686305e-05
3.5625318e-05
3.3603885e-05
3.1597727e-05
2.9578293e-05
2.7529797e-05
2.5436091e-05
2.328154e-05
2.1056345e-05
1.8796878e-05
1.6501854e-05
1.4241956e-05
1.2052939e-05
1.0045567e-05
8.2703013e-06
6.8179871e-06
5.7195991e-06
5.0758106e-06
4.9722931e-06
5.3356828e-06
6.2166141e-06
7.5917828e-06
9.2949736e-06
1.1214805e-05
1.3221123e-05
1.5212328e-05
1.7134266e-05
1.8977753e-05
2.0756863e-05
2.2484743e-05
2.4163655e-05
2.578994e-05
2.7361937e-05
2.8881809e-05
3.0352674e-05
3.1776542e-05
3.3154719e-05
3.4488685e-05
3.5780104e-05
3.7030502e-05
3.8241219e-05
3.941353e-05
4.0548661e-05
4.164776e-05
4.2711906e-05
4.374213e-05
4.4739415e-05
4.5704698e-05
4.6638877e-05
4.7542816e-05
4.8417345e-05
4.9263264e-05
5.0081348e-05
5.0872348e-05
5.1636994e-05
5.2375995e-05
5.3090044e-05
5.3779818e-05
5.4445977e-05
5.5089174e-05
5.5710035e-05
5.6309213e-05
5.688724e-05
5.7444923e-05
5.7982259e-05
5.8501674e-05
5.8997167e-05
5.9494569e-05
5.989355e-05
6.0597058e-05
0.00017763837
0.00017728997
0.0001765849
0.00017528127
0.0001732079
0.0001703116
0.00016664255
0.00016231223
0.00015745423
0.00015220006
0.00014666844
0.00014096261
0.00013517083
0.00012936771
0.00012361538
0.00011796463
0.00011245603
0.00010712106
0.00010198326
9.7059108e-05
9.235904e-05
8.7888385e-05
8.3648214e-05
7.9635949e-05
7.5845774e-05
7.2269375e-05
6.8895298e-05
6.5709459e-05
6.2695904e-05
5.983744e-05
5.7115395e-05
5.4509452e-05
5.1996445e-05
4.9553356e-05
4.715565e-05
4.4784382e-05
4.2397769e-05
3.9972647e-05
3.7490023e-05
3.4940549e-05
3.2312844e-05
2.9591505e-05
2.6836667e-05
2.4016869e-05
2.1175485e-05
1.8378757e-05
1.5672501e-05
1.3140851e-05
1.0889165e-05
8.992695e-06
7.5221955e-06
6.5570899e-06
6.2345657e-06
6.4600993e-06
7.2911714e-06
8.6535392e-06
1.0396788e-05
1.2393838e-05
1.4509458e-05
1.6637633e-05
1.8723374e-05
2.0755657e-05
2.2741356e-05
2.4684019e-05
2.6579968e-05
2.8424854e-05
3.0217951e-05
3.1960775e-05
3.3654659e-05
3.5300411e-05
3.6898981e-05
3.8451572e-05
3.9959367e-05
4.1423466e-05
4.2844954e-05
4.4224907e-05
4.556436e-05
4.6864315e-05
4.8125741e-05
4.9349578e-05
5.0536736e-05
5.1688098e-05
5.2804525e-05
5.3886854e-05
5.4935905e-05
5.5952478e-05
5.6937356e-05
5.7891313e-05
5.8815101e-05
5.970947e-05
6.0575143e-05
6.1412873e-05
6.2223289e-05
6.3007316e-05
6.3764975e-05
6.449917e-05
6.5202228e-05
6.5908287e-05
6.6480044e-05
6.7485554e-05
0.00017890233
0.00017867488
0.00017835138
0.00017782677
0.00017697646
0.00017569248
0.00017390727
0.00017159935
0.00016878589
0.00016551018
0.00016183015
0.00015781
0.00015351505
0.00014900866
0.00014435043
0.00013959515
0.0001347921
0.00012998478
0.00012521092
0.00012050254
0.00011588613
0.00011138314
0.00010701039
0.00010278042
9.8701849e-05
9.4779754e-05
9.1015802e-05
8.7408343e-05
8.3952736e-05
8.0641784e-05
7.7466049e-05
7.4414045e-05
7.1471841e-05
6.8623851e-05
6.5852372e-05
6.3141412e-05
6.0466575e-05
5.7803499e-05
5.5129786e-05
5.2426375e-05
4.9676313e-05
4.6856468e-05
4.3952834e-05
4.0955377e-05
3.786139e-05
3.4678171e-05
3.1427246e-05
2.8130443e-05
2.4836616e-05
2.1597606e-05
1.847408e-05
1.5549245e-05
1.2948492e-05
1.0759488e-05
9.0482047e-06
7.9693253e-06
7.5767175e-06
7.8315644e-06
8.7709641e-06
1.02305e-05
1.2098923e-05
1.4227332e-05
1.6474099e-05
1.8742101e-05
2.0988177e-05
2.3203148e-05
2.5385479e-05
2.7529631e-05
2.9628878e-05
3.1679751e-05
3.3681642e-05
3.5634547e-05
3.7538395e-05
3.939343e-05
4.120025e-05
4.2959567e-05
4.467213e-05
4.6338742e-05
4.7960243e-05
4.9537479e-05
5.1071298e-05
5.2562551e-05
5.4012084e-05
5.5420736e-05
5.6789339e-05
5.8118719e-05
5.9409693e-05
6.0663073e-05
6.1879662e-05
6.306026e-05
6.4205649e-05
6.5316644e-05
6.6393942e-05
6.7438553e-05
6.8450496e-05
6.9433157e-05
7.0377016e-05
7.1325383e-05
7.2099445e-05
7.345718e-05
0.00018032845
0.00018012092
0.00017988759
0.00017959638
0.00017919218
0.00017860702
0.00017777321
0.00017663496
0.000175155
0.00017331607
0.00017111878
0.00016857797
0.00016571876
0.00016257329
0.00015917796
0.00015557134
0.00015179249
0.00014787972
0.00014386966
0.00013979651
0.00013569158
0.00013158303
0.00012749574
0.00012345126
0.00011946781
0.00011556034
0.00011174058
0.0001080171
0.00010439535
0.0001008778
9.7464265e-05
9.4152109e-05
9.0936247e-05
8.7809461e-05
8.4762189e-05
8.1784197e-05
7.8861835e-05
7.5978571e-05
7.311651e-05
7.025776e-05
6.7385127e-05
6.4479957e-05
6.1522807e-05
5.8497079e-05
5.5388888e-05
5.2191443e-05
4.8900644e-05
4.5496714e-05
4.1980616e-05
3.838844e-05
3.4714305e-05
3.1011657e-05
2.7333905e-05
2.374053e-05
2.0287299e-05
1.7096276e-05
1.4283555e-05
1.1964707e-05
1.0201654e-05
9.2479706e-06
8.9865837e-06
9.4892741e-06
1.0651974e-05
1.2346498e-05
1.4428066e-05
1.6734163e-05
1.9135727e-05
2.1560426e-05
2.3979882e-05
2.6382679e-05
2.875847e-05
3.1097385e-05
3.3393228e-05
3.5643093e-05
3.7845315e-05
3.9998701e-05
4.2102653e-05
4.4157055e-05
4.6162038e-05
4.8117905e-05
5.0025102e-05
5.1884172e-05
5.3695724e-05
5.5460418e-05
5.717895e-05
5.8852043e-05
6.0480441e-05
6.2064902e-05
6.3606197e-05
6.5105108e-05
6.6562411e-05
6.7978928e-05
6.9355373e-05
7.0692793e-05
7.1991169e-05
7.325435e-05
7.4470818e-05
7.5693785e-05
7.6698799e-05
7.8457531e-05
0.00018192925
0.0001817232
0.00018150698
0.00018127464
0.0001810079
0.00018067715
0.00018024426
0.00017966734
0.0001789061
0.00017792624
0.00017670223
0.0001752183
0.00017346825
0.00017145445
0.00016918651
0.00016667984
0.00016395427
0.00016103274
0.0001579402
0.00015470261
0.00015134605
0.0001478961
0.00014437728
0.00014081268
0.00013722356
0.00013362913
0.00013004638
0.0001264899
0.0001229718
0.00011950162
0.00011608641
0.00011273084
0.00010943728
0.00010620593
0.00010303478
9.9920181e-05
9.6856306e-05
9.3834704e-05
9.0844567e-05
8.7873434e-05
8.4907881e-05
8.193348e-05
7.8934261e-05
7.5893992e-05
7.2796881e-05
6.962964e-05
6.6382242e-05
6.3038726e-05
5.9586658e-05
5.6029097e-05
5.2364669e-05
4.8578719e-05
4.469488e-05
4.0713852e-05
3.6673355e-05
3.2620282e-05
2.861682e-05
2.4745657e-05
2.1066338e-05
1.7756871e-05
1.492122e-05
1.2644806e-05
1.1162312e-05
1.047634e-05
1.061613e-05
1.1517299e-05
1.3056532e-05
1.5090125e-05
1.7439127e-05
1.9952297e-05
2.2535685e-05
2.5144022e-05
2.7754777e-05
3.0351204e-05
3.2919724e-05
3.5451429e-05
3.7941091e-05
4.0385234e-05
4.2781417e-05
4.5128101e-05
4.7424395e-05
4.9669815e-05
5.1864189e-05
5.4007571e-05
5.610019e-05
5.8142396e-05
6.0134642e-05
6.2077456e-05
6.3971423e-05
6.5817182e-05
6.7615398e-05
6.9366802e-05
7.1072049e-05
7.2732147e-05
7.4346986e-05
7.5920831e-05
7.7440024e-05
7.8968296e-05
8.023175e-05
8.2438516e-05
0.00018370454
0.00018349757
0.00018328323
0.00018306291
0.00018283203
0.00018258044
0.00018229198
0.00018194497
0.0001815138
0.00018097123
0.00018029076
0.00017944876
0.00017842598
0.00017720834
0.00017578731
0.00017415975
0.00017232753
0.00017029694
0.00016807803
0.00016568386
0.00016312978
0.00016043278
0.00015761086
0.00015468246
0.00015166601
0.00014857943
0.00014543983
0.00014226312
0.00013906383
0.00013585478
0.00013264705
0.00012944988
0.00012627065
0.00012311493
0.00011998644
0.0001168872
0.0001138174
0.00011077517
0.00010775637
0.00010475478
0.00010176242
9.8769833e-05
9.5765973e-05
9.2738442e-05
8.9673917e-05
8.6559098e-05
8.3382153e-05
8.0129548e-05
7.6786989e-05
7.3344977e-05
6.9797368e-05
6.6132421e-05
6.2347914e-05
5.8438312e-05
5.4405394e-05
5.0266765e-05
4.6010301e-05
4.1682908e-05
3.7305721e-05
3.2951981e-05
2.8715156e-05
2.4650405e-05
2.0918882e-05
1.7663359e-05
1.4987086e-05
1.3116821e-05
1.2108663e-05
1.1991133e-05
1.2706516e-05
1.4152766e-05
1.6176214e-05
1.8583969e-05
2.1211185e-05
2.3950383e-05
2.67436e-05
2.9558131e-05
3.2370686e-05
3.516397e-05
3.7926519e-05
4.0650917e-05
4.3332001e-05
4.5966139e-05
4.8550874e-05
5.1084561e-05
5.3566122e-05
5.599491e-05
5.8370597e-05
6.0693095e-05
6.2962503e-05
6.5179066e-05
6.7343136e-05
6.9455187e-05
7.1515675e-05
7.3525447e-05
7.5484206e-05
7.7396552e-05
7.9246541e-05
8.1108937e-05
8.2656844e-05
8.5356594e-05
0.00018565364
0.00018544563
0.00018523063
0.00018501169
0.00018478828
0.00018455753
0.00018431384
0.00018404828
0.00018374845
0.00018339886
0.0001829818
0.00018247846
0.00018187018
0.00018113964
0.0001802717
0.00017925417
0.00017807814
0.00017673815
0.00017523221
0.00017356154
0.00017173035
0.00016974538
0.00016761556
0.00016535154
0.00016296525
0.00016046948
0.00015787748
0.00015520258
0.00015245783
0.00014965571
0.00014680787
0.00014392498
0.00014101656
0.00013809093
0.00013515512
0.00013221485
0.00012927443
0.0001263366
0.0001234023
0.00012047058
0.00011753867
0.00011460211
0.00011165479
0.00010868898
0.00010569548
0.00010266398
9.9584042e-05
9.6444423e-05
9.3232662e-05
8.9936988e-05
8.654761e-05
8.3053271e-05
7.9444873e-05
7.5713111e-05
7.1851756e-05
6.7862972e-05
6.3722981e-05
5.947103e-05
5.50736e-05
5.0568548e-05
4.5973814e-05
4.1312726e-05
3.6649056e-05
3.2081584e-05
2.7688362e-05
2.3624778e-05
2.0050799e-05
1.7078056e-05
1.4962533e-05
1.3749033e-05
1.3491584e-05
1.4125213e-05
1.5572346e-05
1.7652241e-05
2.0160058e-05
2.2924511e-05
2.5832027e-05
2.8816746e-05
3.1838191e-05
3.4867795e-05
3.7885313e-05
4.0877154e-05
4.3834044e-05
4.6749396e-05
4.9618544e-05
5.2438202e-05
5.5206053e-05
5.7920491e-05
6.0580437e-05
6.3185215e-05
6.5734446e-05
6.8228015e-05
7.0665915e-05
7.3048612e-05
7.5375447e-05
7.7651214e-05
7.985749e-05
8.2080503e-05
8.3936979e-05
8.7172091e-05
0.00018777633
0.0001875673
0.00018735131
0.00018713171
0.00018690895
0.00018668238
0.00018645029
0.00018620955
0.00018595519
0.00018568011
0.00018537501
0.0001850287
0.00018462846
0.00018416077
0.00018361189
0.00018296864
0.00018221895
0.00018135239
0.0001803605
0.00017923707
0.00017797823
0.00017658244
0.0001750504
0.00017338487
0.00017159046
0.00016967335
0.00016764098
0.00016550177
0.00016326478
0.00016093941
0.00015853517
0.00015606139
0.00015352708
0.00015094077
0.00014831034
0.00014564296
0.00014294493
0.00014022151
0.00013747676
0.0001347133
0.00013193228
0.0001291333
0.00012631446
0.00012347229
0.0001206018
0.00011769651
0.00011474896
0.00011175077
0.00010869233
0.00010556337
0.00010235389
9.9053375e-05
9.5651542e-05
9.2137929e-05
8.8502423e-05
8.4739899e-05
8.0834465e-05
7.6792667e-05
7.2600223e-05
6.8244977e-05
6.3766883e-05
5.9134207e-05
5.437747e-05
4.9524679e-05
4.459029e-05
3.9646206e-05
3.4792559e-05
3.0119935e-05
2.5803801e-05
2.1997896e-05
1.8839257e-05
1.6619747e-05
1.533388e-05
1.5057799e-05
1.5748846e-05
1.7301847e-05
1.9514205e-05
2.217398e-05
2.510971e-05
2.8207529e-05
3.1397736e-05
3.4634829e-05
3.7886862e-05
4.1131695e-05
4.4354193e-05
4.754371e-05
5.0692621e-05
5.3795455e-05
5.684826e-05
5.9848185e-05
6.2793184e-05
6.5681841e-05
6.8513134e-05
7.1286714e-05
7.4001225e-05
7.6661382e-05
7.9245999e-05
8.1853086e-05
8.4039732e-05
8.7849296e-05
0.0001900726
0.00018986253
0.00018964549
0.00018942488
0.00018920135
0.00018897479
0.0001887447
0.00018851006
0.0001882691
0.00018801901
0.00018775572
0.00018747371
0.00018716603
0.00018682441
0.00018643949
0.00018600123
0.00018549923
0.00018492324
0.0001842635
0.00018351117
0.00018265859
0.00018169951
0.00018062929
0.00017944491
0.00017814503
0.00017672988
0.00017520117
0.00017356194
0.00017181635
0.00016996946
0.00016802705
0.00016599539
0.00016388108
0.00016169086
0.00015943147
0.00015710953
0.00015473135
0.00015230279
0.00014982906
0.00014731453
0.00014476256
0.0001421754
0.00013955411
0.00013689845
0.00013420685
0.00013147633
0.00012870267
0.00012588055
0.00012300343
0.00012006367
0.00011705305
0.00011396265
0.00011078314
0.00010750472
0.00010411702
0.00010061183
9.697666e-05
9.320592e-05
8.9289788e-05
8.5214981e-05
8.0988432e-05
7.6595818e-05
7.2035715e-05
6.7319763e-05
6.2441211e-05
5.742939e-05
5.2326349e-05
4.7133154e-05
4.1932282e-05
3.6828605e-05
3.1920326e-05
2.7430203e-05
2.3477838e-05
2.0281118e-05
1.8049839e-05
1.6841842e-05
1.6695779e-05
1.7586683e-05
1.9354666e-05
2.1779653e-05
2.464798e-05
2.7794436e-05
3.1109621e-05
3.4523395e-05
3.798817e-05
4.1470776e-05
4.4948305e-05
4.8404757e-05
5.1828698e-05
5.5211871e-05
5.8548265e-05
6.1833487e-05
6.5064267e-05
6.8238511e-05
7.1353455e-05
7.4413205e-05
7.7393302e-05
8.0403701e-05
8.293864e-05
8.7357298e-05
0.00019254246
0.00019233129
0.00019211315
0.00019189144
0.00019166685
0.00019143938
0.00019120884
0.00019097485
0.00019073678
0.00019049361
0.00019024373
0.00018998479
0.00018971355
0.00018942576
0.00018911617
0.00018877859
0.00018840597
0.00018799068
0.00018752469
0.00018699988
0.00018640833
0.00018574253
0.00018499571
0.00018416195
0.0001832364
0.00018221534
0.00018109623
0.00017987771
0.00017855958
0.00017714265
0.00017562872
0.00017402039
0.00017232096
0.00017053432
0.00016866483
0.00016671715
0.00016469615
0.00016260673
0.00016045368
0.00015824144
0.00015597402
0.00015365475
0.00015128624
0.00014887019
0.0001464073
0.00014389715
0.0001413382
0.00013872781
0.00013606223
0.00013333655
0.00013054492
0.00012768059
0.00012473607
0.00012170318
0.00011857284
0.00011533647
0.00011198361
0.00010850551
0.00010489271
0.00010113271
9.7220586e-05
9.3145746e-05
8.8900935e-05
8.4482397e-05
7.9865258e-05
7.5094522e-05
7.0141585e-05
6.5019055e-05
5.9748451e-05
5.4378271e-05
4.8932957e-05
4.3501843e-05
3.8177702e-05
3.3106505e-05
2.8498373e-05
2.4505516e-05
2.1415301e-05
1.9315421e-05
1.8326316e-05
1.8484842e-05
1.9704699e-05
2.1785956e-05
2.4495459e-05
2.7624556e-05
3.1019828e-05
3.4579426e-05
3.8235419e-05
4.1940894e-05
4.5663286e-05
4.9379881e-05
5.3074536e-05
5.6735603e-05
6.035455e-05
6.3925373e-05
6.7442317e-05
7.0907723e-05
7.429288e-05
7.7719511e-05
8.0615776e-05
8.567178e-05
0.00019518593
0.00019497361
0.00019475428
0.0001945314
0.00019430565
0.00019407706
0.00019384548
0.00019361071
0.00019337247
0.00019313036
0.00019288374
0.00019263169
0.00019237285
0.00019210532
0.00019182655
0.00019153327
0.00019122148
0.00019088647
0.00019052283
0.00019012466
0.00018968566
0.00018919932
0.00018865913
0.00018805876
0.00018739227
0.0001866542
0.00018583981
0.00018494508
0.00018396681
0.00018290269
0.00018175121
0.00018051173
0.00017918436
0.00017776998
0.00017627013
0.00017468693
0.00017302302
0.0001712814
0.00016946535
0.00016757824
0.00016562341
0.00016360402
0.00016152289
0.0001593824
0.00015718431
0.00015492964
0.00015261858
0.00015025044
0.00014782358
0.00014533536
0.00014278216
0.00014015944
0.00013746177
0.00013468289
0.0001318156
0.00012885237
0.00012578453
0.00012260335
0.00011929987
0.00011586311
0.00011228439
0.00010855359
0.00010466054
0.00010059756
9.6347263e-05
9.1915277e-05
8.7290026e-05
8.2465822e-05
7.7443364e-05
7.2237708e-05
6.6855921e-05
6.1326341e-05
5.5691201e-05
5.0009212e-05
4.435958e-05
3.8853141e-05
3.3694437e-05
2.9058684e-05
2.5191723e-05
2.2292665e-05
2.0497753e-05
1.9915043e-05
2.0535058e-05
2.2198671e-05
2.4675521e-05
2.7727939e-05
3.1161211e-05
3.4837873e-05
3.8665366e-05
4.2580276e-05
4.6538587e-05
5.05096e-05
5.4471559e-05
5.8409083e-05
6.2309591e-05
6.6170986e-05
6.9958195e-05
7.380381e-05
7.706646e-05
8.2778289e-05
0.000198003
0.00019778943
0.00019756885
0.00019734472
0.00019711773
0.00019688791
0.00019665513
0.00019641922
0.00019618
0.00019593723
0.00019569063
0.00019543981
0.00019518421
0.00019492304
0.00019465519
0.00019437915
0.00019409293
0.00019379401
0.00019347931
0.00019314515
0.00019278737
0.00019240131
0.00019198195
0.00019152402
0.00019102214
0.00019047094
0.00018986521
0.00018920002
0.00018847085
0.00018767363
0.00018680486
0.00018586163
0.0001848417
0.00018374344
0.00018256591
0.00018130878
0.00017997236
0.00017855746
0.00017706537
0.00017549776
0.00017385655
0.00017214381
0.00017036165
0.00016851208
0.00016659688
0.00016461747
0.00016257476
0.0001604691
0.00015830017
0.00015606686
0.00015376727
0.00015139866
0.00014895745
0.00014643922
0.00014383868
0.00014114983
0.00013836578
0.00013547903
0.00013248162
0.00012936426
0.00012611788
0.00012273281
0.00011919867
0.00011550609
0.00011164081
0.00010759633
0.00010336282
9.8930663e-05
9.4288836e-05
8.9435135e-05
8.4369056e-05
7.9093017e-05
7.3619268e-05
6.7968581e-05
6.2170991e-05
5.6268754e-05
5.0364515e-05
4.4524351e-05
3.8917777e-05
3.3736351e-05
2.9216698e-05
2.560723e-05
2.3068241e-05
2.177426e-05
2.1784709e-05
2.2992872e-05
2.5187854e-05
2.8117969e-05
3.1554413e-05
3.5323958e-05
3.9306636e-05
4.342018e-05
4.7607522e-05
5.1829143e-05
5.6055687e-05
6.0273921e-05
6.4437503e-05
6.8687176e-05
7.2307902e-05
7.8678072e-05
0.0002009936
0.0002007787
0.00020055677
0.00020033131
0.000200103
0.00019987187
0.0001996378
0.00019940063
0.00019916018
0.00019891628
0.00019866874
0.00019841734
0.00019816183
0.00019790186
0.00019763697
0.00019736652
0.00019708961
0.00019680507
0.00019651132
0.00019620639
0.00019588789
0.00019555293
0.00019519822
0.00019482005
0.00019441437
0.00019397686
0.00019350302
0.00019298827
0.00019242805
0.00019181791
0.00019115362
0.00019043121
0.0001896471
0.00018879814
0.00018788164
0.00018689544
0.00018583791
0.00018470793
0.0001835049
0.00018222865
0.00018087945
0.00017945787
0.00017796477
0.00017640116
0.00017476809
0.00017306657
0.00017129744
0.00016946125
0.00016755817
0.00016558789
0.00016354952
0.00016144154
0.00015926174
0.00015700719
0.00015467418
0.00015225828
0.00014975423
0.00014715604
0.0001444571
0.00014164979
0.00013872595
0.00013567688
0.000132493
0.00012916489
0.00012568046
0.00012202971
0.00011820201
0.0001141863
0.00010996974
0.00010554403
0.00010089855
9.6024592e-05
9.092369e-05
8.5594954e-05
8.0044686e-05
7.4282437e-05
6.8349399e-05
6.2275095e-05
5.6129093e-05
5.0018736e-05
4.4049082e-05
3.8419364e-05
3.3346044e-05
2.9105482e-05
2.5899828e-05
2.3951509e-05
2.3375585e-05
2.4122992e-05
2.601332e-05
2.8793458e-05
3.2209279e-05
3.6054577e-05
4.018108e-05
4.4486435e-05
4.8897979e-05
5.3373665e-05
5.784359e-05
6.2449145e-05
6.6395574e-05
7.3398686e-05
0.00020415761
0.0002039413
0.00020371792
0.00020349103
0.00020326131
0.00020302879
0.00020279334
0.00020255481
0.00020231303
0.00020206784
0.00020181907
0.00020156656
0.00020131013
0.00020104962
0.0002007848
0.0002005154
0.00020024105
0.00019996122
0.00019967521
0.00019938208
0.0001990806
0.00019876921
0.00019844599
0.00019810868
0.00019775461
0.0001973808
0.00019698391
0.00019656037
0.00019610638
0.00019561799
0.00019509119
0.00019452198
0.00019390645
0.00019324086
0.00019252169
0.00019174576
0.00019091021
0.00019001256
0.00018905076
0.00018802315
0.00018692849
0.0001857659
0.00018453485
0.00018323511
0.00018186667
0.00018042965
0.00017892425
0.00017735062
0.0001757088
0.00017399858
0.00017221944
0.00017037047
0.00016845027
0.00016645688
0.00016438775
0.00016223969
0.00016000883
0.00015769054
0.0001552796
0.00015276991
0.00015015467
0.0001474264
0.00014457681
0.00014159723
0.0001384774
0.00013520708
0.00013177562
0.00012817185
0.0001243831
0.00012039783
0.00011620368
0.00011178928
0.00010714376
0.00010225857
9.7129899e-05
9.1752087e-05
8.6133417e-05
8.028237e-05
7.4219877e-05
6.7993334e-05
6.1649694e-05
5.5281883e-05
4.9016135e-05
4.300881e-05
3.7471249e-05
3.2674767e-05
2.8877985e-05
2.6342245e-05
2.5225142e-05
2.5532674e-05
2.7120273e-05
2.9742199e-05
3.3127013e-05
3.7040254e-05
4.1304621e-05
4.5805186e-05
5.0417385e-05
5.5262845e-05
5.9455976e-05
6.7014177e-05
0.00020749487
0.00020727704
0.00020705211
0.00020682368
0.00020659245
0.00020635844
0.00020612153
0.00020588156
0.00020563836
0.00020539178
0.00020514166
0.00020488784
0.00020463019
0.00020436857
0.00020410284
0.00020383288
0.0002035585
0.0002032795
0.00020299556
0.00020270629
0.00020241112
0.00020210928
0.00020179979
0.0002014814
0.00020115258
0.00020081147
0.00020045591
0.00020008343
0.00019969127
0.00019927641
0.0001988356
0.00019836542
0.00019786235
0.0001973228
0.00019674322
0.00019612014
0.00019545024
0.00019473039
0.0001939577
0.00019312954
0.00019224362
0.00019129793
0.00019029078
0.00018922079
0.00018808684
0.00018688808
0.0001856238
0.00018429344
0.00018289648
0.00018143239
0.00017990049
0.00017829995
0.00017662965
0.00017488813
0.0001730735
0.00017118341
0.00016921496
0.00016716465
0.00016502838
0.00016280139
0.00016047818
0.00015805258
0.00015551765
0.00015286587
0.00015008858
0.00014717653
0.00014411983
0.00014090798
0.00013752928
0.00013397173
0.0001302227
0.00012626918
0.00012209801
0.00011769738
0.00011305537
0.00010815942
0.00010300439
9.7586144e-05
9.1902341e-05
8.5966548e-05
7.9793884e-05
7.3418806e-05
6.6898941e-05
6.0310768e-05
5.3764517e-05
4.7425369e-05
4.1489503e-05
3.6217433e-05
3.1910125e-05
2.8855163e-05
2.7254325e-05
2.716255e-05
2.8470747e-05
3.0945515e-05
3.4302319e-05
3.8291988e-05
4.2671559e-05
4.7492364e-05
5.1756505e-05
5.9685515e-05
0.00021100512
0.00021078566
0.00021055908
0.00021032901
0.00021009615
0.00020986054
0.00020962207
0.00020938056
0.00020913586
0.0002088878
0.00020863624
0.00020838101