/*--------------------------------*- C++ -*----------------------------------*\
  =========                 |
  \\      /  F ield         | OpenFOAM: The Open Source CFD Toolbox
   \\    /   O peration     | Website:  https://openfoam.org
    \\  /    A nd           | Version:  12
     \\/     M anipulation  |
\*---------------------------------------------------------------------------*/
FoamFile
{
    format      ascii;
    class       volScalarField;
    location    "1000";
    object      p;
}
// * * * * * * * * * * * * * * * * * * * * * * * * * * * * * * * * * * * * * //

dimensions      [0 2 -2 0 0 0 0];

internalField   nonuniform List<scalar> 
7480
(
0.0060788109
0.0061100991
0.006073689
0.0060625029
0.0060823628
0.0060969993
0.0060994903
0.0060661351
0.0059934858
0.0059027207
0.0057854893
0.0056418892
0.0054772428
0.0052976919
0.0051072517
0.0049171937
0.0047251216
0.0045362789
0.0043532291
0.004181456
0.0040176908
0.0038623682
0.0037189936
0.003589286
0.0034731415
0.0033712162
0.0032840603
0.0032117906
0.0031537582
0.0031078581
0.0030724353
0.0030440339
0.0030172225
0.0029885093
0.0029560549
0.0029198319
0.0028817578
0.0028438505
0.0028061073
0.0027679556
0.0027290365
0.0026893548
0.0026498017
0.0026105258
0.0025710563
0.0025314767
0.00249227
0.0024536776
0.0024151676
0.0023765074
0.0023379405
0.0022997523
0.0022616865
0.002223415
0.0021852092
0.0021471961
0.002109069
0.0020707301
0.0020324292
0.0019941077
0.0019554525
0.0019166914
0.0018778188
0.0018385655
0.0017990949
0.0017594058
0.0017192943
0.0016788874
0.0016381605
0.0015969527
0.0015553546
0.0015133222
0.0014708044
0.0014277984
0.001384258
0.0013401892
0.0012955573
0.0012503377
0.0012045186
0.0011580819
0.0011110159
0.0010633111
0.0010149622
0.00096596848
0.00091633774
0.00086608525
0.00081524516
0.00076385671
0.00071201943
0.00065978681
0.000607481
0.00055498617
0.00050363573
0.00045174451
0.00040609576
0.00035441151
0.00033445741
0.000256196
0.00054282973
-0.00044445082
0.0059993026
0.0060255543
0.005990181
0.0059996368
0.0060299071
0.0060480642
0.0060404324
0.0060100244
0.0059618905
0.0058894226
0.0057890568
0.0056619921
0.0055126797
0.0053459981
0.0051682303
0.0049819619
0.0047950501
0.0046081582
0.0044246411
0.0042512289
0.0040855761
0.0039279008
0.0037806865
0.0036463142
0.0035257733
0.0034195274
0.003327927
0.003251018
0.0031879395
0.0031363274
0.0030949
0.0030609858
0.0030296994
0.0029978566
0.0029637401
0.0029270483
0.0028892534
0.0028518921
0.002814543
0.0027764657
0.0027373644
0.0026973895
0.0026575407
0.0026179872
0.0025782486
0.0025384036
0.0024989287
0.0024600649
0.0024212866
0.0023823684
0.0023435532
0.0023051239
0.002266822
0.0022283209
0.0021898954
0.0021516712
0.0021133403
0.002074806
0.002036319
0.001997819
0.0019589924
0.0019200682
0.0018810399
0.0018416378
0.001802026
0.0017622022
0.0017219621
0.0016814331
0.0016405897
0.0015992709
0.0015575674
0.0015154345
0.0014728211
0.0014297243
0.0013860973
0.0013419461
0.0012972359
0.0012519416
0.0012060516
0.0011595472
0.0011124168
0.0010646508
0.0010162434
0.00096719404
0.0009175103
0.00086720731
0.00081631913
0.00076488486
0.00071300397
0.0006607298
0.00060838455
0.00055585212
0.00050446646
0.00045254121
0.00040686266
0.00035514797
0.00033515386
0.00025699412
0.00054368576
-0.00044377973
0.0059378949
0.0059761797
0.0059644302
0.0059790136
0.0060036778
0.006014285
0.0060033415
0.005974977
0.0059253702
0.0058466737
0.0057406337
0.005609396
0.0054569884
0.0052884887
0.0051095759
0.0049237429
0.0047389395
0.0045551544
0.0043760894
0.004207392
0.0040478823
0.0038971441
0.0037568232
0.0036294203
0.0035162446
0.0034174524
0.0033332582
0.0032633967
0.003206774
0.0031611888
0.0031236542
0.0030908163
0.0030589301
0.0030249894
0.0029877225
0.0029471115
0.002905054
0.0028638275
0.0028235416
0.0027835798
0.0027435202
0.0027032781
0.0026635718
0.0026242356
0.0025845624
0.002544606
0.0025049217
0.0024658177
0.0024267982
0.0023876558
0.0023486316
0.0023100017
0.0022715035
0.002232814
0.0021942124
0.0021558202
0.0021173258
0.0020786333
0.0020399954
0.0020013496
0.0019623808
0.0019233212
0.0018841623
0.0018446336
0.0018049011
0.0017649608
0.0017246083
0.0016839717
0.0016430249
0.0016016066
0.0015598078
0.0015175833
0.0014748822
0.0014317012
0.0013879936
0.0013437651
0.0012989809
0.0012536157
0.0012076577
0.0011610882
0.0011138955
0.0010660698
0.0010176053
0.00096850123
0.0009187651
0.00086841195
0.00081747575
0.00076599551
0.00071407066
0.00066175442
0.00060936906
0.00055679813
0.00050537631
0.00045341559
0.00040770632
0.00035595687
0.00033594319
0.00025786852
0.00054458288
-0.00044311219
0.00588088
0.0059256186
0.0059252024
0.0059383052
0.0059584329
0.005967139
0.0059573571
0.0059295675
0.0058798999
0.0058041198
0.0057040723
0.0055808421
0.005437388
0.0052780749
0.0051079179
0.0049305835
0.0047525846
0.004574567
0.0044000493
0.0042336009
0.0040753195
0.0039246319
0.003783229
0.0036537351
0.0035374975
0.0034348287
0.0033461842
0.0032716398
0.0032106725
0.0031619146
0.0031220428
0.0030880084
0.0030570926
0.0030259334
0.0029926064
0.00295675
0.0029189565
0.0028800302
0.0028403153
0.0027996648
0.0027578449
0.0027151233
0.0026728931
0.002631546
0.0025905815
0.0025499513
0.0025100726
0.0024710289
0.0024320712
0.0023928875
0.0023537362
0.0023149401
0.0022762621
0.0022373937
0.0021986225
0.0021600642
0.0021214047
0.0020825534
0.0020437654
0.0020049744
0.0019658638
0.0019266699
0.0018873814
0.0018477264
0.0018078734
0.0017678167
0.0017273509
0.0016866062
0.0016455548
0.0016040352
0.0015621395
0.0015198215
0.0014770304
0.001433763
0.0013899723
0.001345664
0.0013008031
0.0012553644
0.0012093358
0.0011626985
0.0011154408
0.0010675528
0.0010190285
0.0009698671
0.00092007603
0.00086967023
0.00081868358
0.00076715501
0.00071518389
0.00066282332
0.0006103956
0.00055778399
0.00050632367
0.00045432534
0.00040858226
0.00035679541
0.0003367631
0.00025863582
0.00054546278
-0.00044250873
0.0058260165
0.005874658
0.0058832233
0.0058980733
0.005917035
0.005924921
0.0059149525
0.0058867678
0.0058378322
0.0057647165
0.0056679349
0.0055483113
0.0054086032
0.0052529667
0.0050862046
0.0049120146
0.0047362279
0.0045604459
0.0043879574
0.0042229311
0.004066243
0.0039174509
0.0037781055
0.0036506099
0.0035362953
0.0034355198
0.0033486163
0.0032755653
0.0032157037
0.0031674164
0.0031273465
0.003092512
0.0030601843
0.0030270961
0.0029917084
0.0029544352
0.0029159666
0.0028770175
0.0028384954
0.0028002872
0.0027617589
0.0027225863
0.0026827554
0.0026423147
0.0026013291
0.0025597469
0.0025183376
0.0024777778
0.0024376602
0.0023977528
0.002358267
0.0023194016
0.0022807283
0.0022418227
0.0022029667
0.0021642943
0.0021255051
0.002086523
0.0020476074
0.0020086866
0.0019694447
0.0019301263
0.0018907165
0.0018509416
0.0018109737
0.0017708051
0.0017302295
0.0016893793
0.0016482254
0.0016066057
0.0015646135
0.0015222019
0.0014793201
0.0014359652
0.0013920897
0.0013476997
0.0013027599
0.001257245
0.001211143
0.0011644351
0.0011171093
0.0010691557
0.0010205684
0.00097134631
0.00092149692
0.00087103506
0.00081999454
0.00076841423
0.00071639342
0.00066398514
0.00061151165
0.00055885604
0.00050735366
0.0004553145
0.00040953317
0.00035770572
0.00033764695
0.00025942656
0.0005463695
-0.00044179584
0.0057738452
0.0058249702
0.0058409717
0.0058578164
0.0058754627
0.0058819085
0.0058712928
0.0058429756
0.0057948356
0.0057236983
0.0056296503
0.005513721
0.005378505
0.0052278255
0.0050661506
0.0048970946
0.0047259078
0.0045546363
0.004386338
0.0042246069
0.0040707216
0.0039243745
0.0037870361
0.0036609206
0.0035474046
0.0034469628
0.0033598778
0.0032861129
0.0032250636
0.0031752102
0.0031335097
0.0030971717
0.003063594
0.0030297535
0.0029941968
0.0029570414
0.0029185638
0.0028793001
0.0028400555
0.0028007274
0.0027610799
0.0027212345
0.0026810674
0.0026410727
0.0026016739
0.0025625703
0.002523549
0.0024844061
0.002444913
0.0024049107
0.0023647117
0.0023249301
0.0022854469
0.0022459811
0.0022068327
0.0021680672
0.0021292475
0.0020902236
0.002051246
0.0020122447
0.0019729104
0.0019335015
0.0018939972
0.0018541234
0.0018140591
0.0017737946
0.0017331228
0.0016921793
0.0016509333
0.0016092226
0.001567142
0.0015246437
0.0014816772
0.0014382396
0.0013942835
0.0013498151
0.001304799
0.00125921
0.0012130361
0.0011662584
0.001118865
0.001070846
0.0010221954
0.0009729122
0.0009230037
0.00087248478
0.00082138918
0.00076975574
0.0007176837
0.00066522604
0.00061270494
0.00056000343
0.00050845672
0.0004563747
0.00041055166
0.00035868127
0.00033858953
0.00026027575
0.00054728127
-0.0004409217
0.0057240969
0.0057765013
0.0057983182
0.0058167867
0.0058331905
0.0058384046
0.0058274002
0.0057992055
0.0057518676
0.0056826233
0.0055914188
0.0054792979
0.0053485927
0.0052027755
0.0050459905
0.0048817586
0.0047148428
0.0045475574
0.0043827718
0.0042238539
0.0040722067
0.0039278159
0.0037921415
0.0036672715
0.0035545709
0.0034545551
0.0033675157
0.003293416
0.0032317029
0.0031809638
0.0031383383
0.0031010894
0.0030667021
0.0030323249
0.0029964395
0.0029590049
0.0029202882
0.0028808596
0.0028414875
0.0028021233
0.0027625723
0.0027227604
0.0026824713
0.0026421656
0.0026022028
0.002562558
0.0025230356
0.0024836185
0.0024446836
0.0024061294
0.0023676915
0.002329186
0.0022903798
0.0022510959
0.0022116456
0.0021723767
0.0021330614
0.0020936683
0.0020544967
0.0020154241
0.0019760506
0.0019366049
0.0018970518
0.001857117
0.001816991
0.0017766603
0.0017359164
0.0016949006
0.0016535809
0.0016117949
0.00156964
0.0015270672
0.001484027
0.0014405165
0.0013964882
0.001351949
0.0013068631
0.0012612056
0.0012149646
0.0011681213
0.0011206639
0.0010725824
0.0010238709
0.00097452838
0.00092456226
0.00087398736
0.00082283745
0.00077115133
0.00071902822
0.0006665211
0.00061395202
0.0005612041
0.00050961203
0.0004574863
0.00041161908
0.00035970438
0.00033957476
0.00026116342
0.00054816058
-0.00043987461
0.0056764156
0.005729033
0.0057551864
0.0057750175
0.0057904644
0.0057947419
0.0057835164
0.0057555638
0.0057091069
0.005641794
0.0055534474
0.0054450335
0.0053186644
0.0051775184
0.0050254498
0.0048658764
0.0047031521
0.0045397711
0.0043784748
0.0042224225
0.0040731367
0.0039308771
0.0037970383
0.0036735813
0.0035618451
0.0034623871
0.0033755153
0.0033012093
0.0032389269
0.003187309
0.003143687
0.0031054111
0.0030700755
0.0030349963
0.0029986366
0.0029608928
0.0029220172
0.0028825166
0.0028430721
0.002803652
0.0027640434
0.0027241466
0.0026838158
0.0026434813
0.0026034858
0.0025637962
0.0025241737
0.0024846199
0.002445444
0.0024065691
0.0023677707
0.002328936
0.0022903263
0.0022520174
0.0022137603
0.0021753685
0.0021366217
0.0020974259
0.002058125
0.0020187696
0.0019791019
0.0019394459
0.0018997894
0.0018598047
0.0018196499
0.0017792881
0.0017385051
0.0016974485
0.001656083
0.0016142457
0.0015720374
0.0015294084
0.0014863103
0.001442741
0.001398653
0.001354054
0.0013089082
0.001263191
0.0012168907
0.0011699886
0.0011224731
0.0010743343
0.0010255664
0.00097616846
0.00092614802
0.00087551993
0.00082431801
0.0007725811
0.00072040842
0.00066785298
0.00061523668
0.00056244286
0.00051080536
0.00045863596
0.00041272274
0.0003607631
0.00034059114
0.00026207372
0.0005489769
-0.0004386335
0.0056304619
0.0056824685
0.0057117011
0.0057326468
0.0057473605
0.0057508981
0.0057395529
0.0057119553
0.0056664904
0.0056011462
0.0055156462
0.0054108687
0.0052887421
0.0051521803
0.0050047622
0.0048497862
0.0046912575
0.0045317784
0.0043739941
0.0042208671
0.0040740153
0.0039339248
0.0038019398
0.0036799112
0.0035691533
0.0034702645
0.0033835672
0.0033090531
0.0032461918
0.0031936851
0.0031490542
0.0031097614
0.0030734878
0.0030376973
0.0030008768
0.0029628527
0.0029238233
0.0028842225
0.0028446585
0.0028051186
0.0027654012
0.0027254266
0.0026850797
0.0026447422
0.0026047368
0.0025650237
0.0025253859
0.00248583
0.0024466131
0.002407652
0.0023687363
0.0023297901
0.0022910559
0.0022525945
0.0022140496
0.0021753796
0.0021368493
0.0020984177
0.002059902
0.0020211075
0.0019818513
0.0019423301
0.0019026083
0.0018624523
0.0018221292
0.0017816633
0.0017408268
0.0016997449
0.0016583586
0.0016164964
0.0015742617
0.0015316017
0.001488468
0.0014448595
0.0014007289
0.0013560854
0.0013108932
0.0012651283
0.0012187794
0.001171828
0.0011242628
0.0010760742
0.0010272566
0.00097780914
0.00092773951
0.00087706271
0.00082581265
0.00077402827
0.00072180881
0.00066920741
0.00061654575
0.00056370757
0.00051202545
0.00045981325
0.00041385287
0.00036184837
0.0003416298
0.00026299734
0.00054970214
-0.00043716885
0.0055859444
0.0056367416
0.0056679956
0.0056897697
0.0057038863
0.0057068209
0.005695438
0.0056682973
0.0056239186
0.0055605713
0.0054779166
0.0053767412
0.0052588042
0.0051267722
0.0049839609
0.0048335371
0.0046792041
0.004523616
0.0043693405
0.0042191666
0.0040747832
0.0039368697
0.0038067407
0.0036861491
0.0035763844
0.0034780794
0.003391571
0.0033168625
0.0032534419
0.0032000756
0.0031544609
0.0031141734
0.0030769777
0.0030404796
0.0030031952
0.0029648779
0.0029256722
0.0028859506
0.0028462584
0.0028065979
0.0027667836
0.0027267433
0.0026863743
0.0026460164
0.0026059732
0.0025662099
0.0025265344
0.0024869546
0.0024477048
0.0024087144
0.0023697886
0.0023308487
0.0022920901
0.0022535339
0.0022148706
0.0021761222
0.002137525
0.0020989887
0.002060209
0.0020212811
0.0019824094
0.0019434282
0.0019041692
0.0018644483
0.0018243829
0.0017839879
0.0017430825
0.0017018924
0.001660425
0.0016185172
0.0015762614
0.0015335875
0.0014904398
0.0014468148
0.0014026636
0.0013579955
0.0013127746
0.0012669777
0.0012205942
0.001173606
0.0011260023
0.0010777739
0.0010289154
0.00097942637
0.0009293146
0.00087859534
0.00082730266
0.00077547565
0.00072321362
0.0006705699
0.00061786592
0.00056498599
0.00051326102
0.00046100779
0.00041499978
0.00036295123
0.0003426821
0.00026392559
0.00055030976
-0.00043544716
0.0055426185
0.0055917813
0.0056241788
0.0056464786
0.0056600769
0.005662509
0.0056511493
0.0056245395
0.0055813136
0.0055199786
0.0054401624
0.0053425571
0.0052287609
0.00510121
0.004962969
0.0048170634
0.0046669304
0.0045152327
0.0043644706
0.0042172833
0.0040754094
0.0039396943
0.0038114358
0.0036922996
0.0035835497
0.0034858487
0.0033995486
0.0033246655
0.0032607105
0.0032065143
0.0031599378
0.0031186707
0.0030805631
0.0030433552
0.0030055946
0.0029669688
0.0029275721
0.0028877209
0.0028478986
0.0028081179
0.0027682069
0.0027280963
0.0026876951
0.0026473083
0.0026072201
0.002567406
0.0025276935
0.0024880861
0.0024487981
0.002409769
0.002370812
0.0023318457
0.0022930516
0.0022544576
0.0022157921
0.0021770527
0.0021384175
0.0020997827
0.0020609128
0.0020219501
0.0019830619
0.0019438902
0.001904421
0.0018648669
0.0018251441
0.0017851102
0.0017445842
0.0017036787
0.0016623452
0.0016204352
0.0015781187
0.0015353887
0.00149221
0.0014485709
0.001404412
0.0013597372
0.001314507
0.0012686971
0.0012222964
0.0011752871
0.0011276591
0.0010794034
0.0010305153
0.00098099481
0.00093084997
0.00088009636
0.00082876829
0.00077690508
0.00072460616
0.00067192512
0.00061918309
0.00056626517
0.00051450015
0.00046220862
0.00041615325
0.0003640622
0.00034373902
0.00026484864
0.00055077792
-0.00043343026
0.0055002796
0.0055475142
0.0055803402
0.0056028687
0.0056159866
0.0056179884
0.0056066927
0.0055806627
0.0055386321
0.0054793088
0.0054023081
0.0053082296
0.0051985195
0.0050753994
0.0049416952
0.0048002821
0.0046543593
0.0045065638
0.0043593336
0.0042151762
0.0040758626
0.0039423788
0.0038160142
0.0036983575
0.0035906477
0.0034935738
0.0034075032
0.0033324668
0.003268002
0.0032130037
0.0031654861
0.0031232548
0.0030842465
0.0030463275
0.00300808
0.0029691338
0.0029295344
0.0028895444
0.0028495876
0.0028096831
0.0027696715
0.0027294864
0.0026890485
0.0026486307
0.0026084972
0.0025686323
0.0025288805
0.0024892413
0.0024499093
0.0024108315
0.0023718333
0.0023328378
0.0022940108
0.0022553818
0.0022166986
0.0021779355
0.0021392585
0.0021005918
0.0020617295
0.0020227685
0.0019838098
0.0019445516
0.0019050541
0.0018655054
0.0018256468
0.0017854318
0.0017449823
0.0017042853
0.0016632149
0.0016216334
0.0015795894
0.0015370011
0.00149385
0.0014501834
0.0014059914
0.0013612991
0.0013160629
0.0012702512
0.0012238486
0.001176835
0.0011291989
0.0010809312
0.0010320273
0.00098248773
0.000932321
0.00088154307
0.00083018862
0.00077829729
0.00072596869
0.00067325674
0.00062048227
0.00056753132
0.00051573015
0.00046340406
0.00041730241
0.0003651712
0.00034479097
0.00026575555
0.00055105363
-0.00043107526
0.0054587578
0.0055038686
0.0055365518
0.0055590301
0.005571674
0.0055732958
0.0055620909
0.0055366722
0.0054958613
0.005438535
0.0053643116
0.0052737036
0.0051680149
0.0050492682
0.0049200623
0.0047831165
0.0046414132
0.0044975373
0.0043538646
0.004212786
0.0040760897
0.0039448783
0.0038204385
0.0037042915
0.003597653
0.003501234
0.0034154185
0.0033402538
0.0032753064
0.0032195359
0.0031711011
0.0031279237
0.0030880278
0.0030493986
0.0030106558
0.0029713785
0.0029315648
0.0028914258
0.0028513291
0.002811297
0.0027711817
0.0027309192
0.0026904409
0.0026499895
0.0026098098
0.002569893
0.0025300995
0.0024904263
0.0024510486
0.0024119203
0.0023728793
0.0023338523
0.0022949881
0.0022563143
0.002217596
0.0021788038
0.002140095
0.0021014028
0.0020625294
0.002023544
0.0019845415
0.0019452726
0.0019057877
0.0018661996
0.0018262725
0.0017860288
0.0017455903
0.0017047731
0.0016635584
0.0016220156
0.0015801132
0.0015377463
0.0014948731
0.0014514446
0.0014073802
0.0013627213
0.0013174748
0.0012716482
0.0012252394
0.0011782263
0.0011305928
0.0010823267
0.0010334216
0.00098387712
0.00093370168
0.00088291147
0.00083154151
0.00077963186
0.00072728236
0.00067454738
0.00062174742
0.00056876966
0.0005169374
0.00046458154
0.00041843555
0.00036626737
0.00034582765
0.00026663673
0.00055108807
-0.00042834371
0.0054179116
0.0054607764
0.0054928694
0.0055150442
0.0055271974
0.0055284725
0.0055173759
0.0054925879
0.0054530085
0.0053976551
0.005326159
0.0052389545
0.0051372127
0.0050227717
0.0048980167
0.004765507
0.0046280263
0.0044880861
0.0043479983
0.0042100487
0.0040760294
0.0039471374
0.00382466
0.0037100599
0.0036045296
0.0035087996
0.0034232706
0.0033480074
0.003282609
0.0032261
0.0031767754
0.0031326731
0.0030919048
0.0030525683
0.0030133235
0.0029737051
0.0029336658
0.0028933682
0.0028531263
0.0028129629
0.002772741
0.0027323987
0.002691876
0.002651388
0.0026111604
0.0025711906
0.0025313537
0.0024916445
0.0024522204
0.0024130409
0.0023739562
0.0023348957
0.0022959917
0.0022572703
0.0022185139
0.0021796915
0.0021409468
0.0021022175
0.0020633152
0.0020243012
0.00198527
0.0019459898
0.0019064929
0.0018668723
0.0018269255
0.0017866836
0.0017462246
0.0017053597
0.001664123
0.0016225671
0.0015805544
0.0015381061
0.0014952447
0.0014519185
0.0014080647
0.0013636492
0.0013185938
0.0012728684
0.00122649
0.0011794772
0.0011318411
0.0010835771
0.0010346774
0.00098513842
0.00093496663
0.00088417692
0.00083280374
0.00078088717
0.00072852715
0.00067577852
0.00062296141
0.00056996436
0.00051810723
0.00046572751
0.00041954006
0.00036733889
0.00034683792
0.0002674795
0.00055084197
-0.00042518497
0.0053776244
0.0054181756
0.0054493348
0.0054709837
0.0054826132
0.0054835614
0.0054725832
0.0054484364
0.0054100909
0.0053566803
0.005287855
0.0052039794
0.005106102
0.0049958901
0.0048755285
0.0047474158
0.0046141511
0.0044781578
0.0043416797
0.0042069069
0.0040756239
0.0039491013
0.0038286289
0.0037156177
0.0036112381
0.0035162365
0.0034310308
0.0033557047
0.0032898916
0.0032326815
0.0031824985
0.0031374953
0.0030958721
0.0030558337
0.0030160819
0.0029761134
0.0029358381
0.0028953727
0.0028549806
0.0028146826
0.0027743514
0.0027339267
0.0026933555
0.0026528279
0.0026125509
0.0025725272
0.0025326454
0.0024928984
0.0024534269
0.0024141956
0.0023750659
0.00233597
0.002297025
0.0022582552
0.0022194602
0.0021806058
0.0021418222
0.0021030519
0.002064118
0.0020250738
0.0019860081
0.0019467019
0.0019071786
0.00186753
0.0018275702
0.0017873174
0.0017468398
0.0017059612
0.0016647137
0.0016231415
0.0015811046
0.0015386484
0.0014957324
0.0014523047
0.001408404
0.0013640049
0.0013190629
0.001273535
0.00122736
0.0011804936
0.0011329316
0.001084693
0.0010358001
0.00098626635
0.00093610186
0.00088532026
0.00083395403
0.00078204176
0.00072968241
0.00067693074
0.00062410614
0.00057109859
0.00051922402
0.00046682742
0.00042060232
0.00036837298
0.00034780981
0.00026826821
0.00055028089
-0.00042153697
0.0053378
0.0053760103
0.0054059787
0.0054269121
0.0054379752
0.0054386054
0.0054277499
0.0054042473
0.0053671308
0.0053156291
0.0052494138
0.0051687882
0.0050746871
0.0049686206
0.0048525863
0.0047288233
0.0045997583
0.0044677158
0.0043348675
0.0042033144
0.0040748235
0.0039507209
0.0038322982
0.0037209212
0.0036177384
0.0035235094
0.0034386686
0.00336332
0.0032971331
0.0032392633
0.0031882568
0.0031423802
0.0030999222
0.0030591895
0.0030189276
0.0029786015
0.0029380808
0.0028974392
0.0028568921
0.0028164566
0.0027760136
0.0027355039
0.0026948807
0.0026543106
0.0026139828
0.0025739041
0.0025339759
0.0024941894
0.0024546696
0.0024153857
0.0023762098
0.0023370769
0.00229809
0.0022592712
0.0022204363
0.0021815483
0.0021427245
0.0021039123
0.0020649461
0.00202587
0.0019867659
0.0019474296
0.0019078778
0.0018681979
0.0018282145
0.0017879383
0.0017474353
0.0017065428
0.001665284
0.001623699
0.0015816598
0.0015391891
0.0014962549
0.001452821
0.0014088968
0.001364425
0.0013194083
0.0012738486
0.0012277179
0.001180983
0.0011335988
0.0010855222
0.0010367363
0.0009872548
0.00093711122
0.00088634021
0.00083498348
0.00078308106
0.00073073055
0.00067798544
0.00062516327
0.00057215484
0.0005202713
0.00046786583
0.00042160788
0.00036935589
0.00034873043
0.00026898855
0.00054937083
-0.00041734364
0.0052983593
0.0053342317
0.0053628228
0.0053828845
0.0053933343
0.0053936465
0.0053829129
0.0053600515
0.0053241528
0.0052745228
0.0052108541
0.0051333967
0.0050429808
0.0049409712
0.0048291911
0.0047097234
0.0045848325
0.004456737
0.0043275323
0.0041992356
0.004073588
0.0039519542
0.0038356264
0.0037259302
0.0036239926
0.0035305835
0.0034461533
0.0033708267
0.003304311
0.0032458266
0.0031940353
0.0031473158
0.0031040457
0.0030626287
0.0030218556
0.002981166
0.0029403916
0.0028995659
0.0028588597
0.0028182839
0.002777727
0.0027371301
0.0026964514
0.0026558362
0.0026154562
0.0025753219
0.002535346
0.0024955183
0.0024559494
0.0024166123
0.0023773892
0.0023382178
0.0022991879
0.0022603196
0.0022214434
0.0021825205
0.0021436556
0.0021048008
0.0020658008
0.0020266915
0.0019875478
0.0019481804
0.0019085992
0.0018688853
0.0018288742
0.0017885714
0.0017480395
0.001707125
0.0016658456
0.0016242395
0.0015821864
0.0015397024
0.0014967623
0.0014533301
0.0014093962
0.0013649123
0.0013198773
0.0012742713
0.0012280786
0.0011812956
0.0011339102
0.001085906
0.0010372561
0.00098792786
0.00093790718
0.0008872101
0.00083588921
0.00078400435
0.00073166583
0.00067893161
0.00062611832
0.00057311705
0.00052123278
0.00046882689
0.00042254161
0.00037027305
0.00034958616
0.00026962452
0.00054804563
-0.00041254398
0.0052592378
0.0052927978
0.0053198822
0.0053389479
0.0053487374
0.0053487257
0.005338109
0.0053158802
0.0052811825
0.0052333841
0.0051721969
0.0050978243
0.0050110003
0.0049129555
0.0048053512
0.0046901184
0.0045693679
0.0044452082
0.0043196548
0.0041946443
0.0040718855
0.0039527664
0.0038385779
0.0037306094
0.0036299663
0.0035374263
0.0034534551
0.0033781986
0.0033114025
0.0032523517
0.0031998178
0.003152289
0.0031082319
0.0030661432
0.00302486
0.0029838021
0.002942767
0.0029017504
0.0028608812
0.0028201629
0.0027794901
0.0027388042
0.0026980669
0.0026574042
0.002616971
0.0025767804
0.0025367555
0.0024968852
0.0024572665
0.0024178757
0.0023786044
0.0023393931
0.0023003194
0.002261401
0.0022224825
0.0021835233
0.0021446166
0.0021057184
0.0020666834
0.0020275396
0.0019883557
0.001948956
0.0019093443
0.0018695951
0.001829555
0.0017892246
0.001748662
0.0017077223
0.0016664186
0.0016247869
0.0015827125
0.0015402092
0.0014972533
0.0014538077
0.0014098628
0.0013653763
0.0013203402
0.0012747291
0.0012285231
0.0011817102
0.0011342782
0.0010862253
0.001037551
0.00098825343
0.00093832743
0.00088776164
0.0008365647
0.00078476675
0.0007324764
0.0006797666
0.00062696698
0.00057397662
0.00052209644
0.00046969656
0.00042338891
0.00037110959
0.00035036302
0.00027015844
0.00054624701
-0.00040707299
0.005220383
0.005251673
0.0052771671
0.0052951424
0.0053042281
0.0053038819
0.0052933738
0.0052717647
0.0052382462
0.0051922366
0.0051334642
0.0050620915
0.0049787647
0.0048845902
0.0047810789
0.0046700151
0.0045533643
0.0044331225
0.0043112217
0.004189521
0.0040696904
0.0039531288
0.0038411223
0.0037349273
0.0036356284
0.003544008
0.0034605462
0.0033854106
0.0033183853
0.003258819
0.0032055876
0.0031572861
0.0031124696
0.003069724
0.0030279338
0.0029865046
0.0029452028
0.0029039892
0.0028629537
0.0028220911
0.002781301
0.0027405243
0.0026997258
0.0026590134
0.002618526
0.0025782788
0.0025382041
0.0024982899
0.0024586207
0.0024191758
0.0023798557
0.0023406033
0.0023014849
0.0022625159
0.0022235541
0.0021845575
0.0021456082
0.0021066659
0.0020675947
0.0020284154
0.0019891906
0.0019497575
0.0019101141
0.0018703288
0.0018302586
0.0017898996
0.0017493051
0.0017083389
0.0016670096
0.0016253506
0.0015832527
0.0015407266
0.0014977492
0.0014542837
0.0014103214
0.0013658216
0.0013207748
0.0012751575
0.001228949
0.0011821334
0.0011346947
0.0010866233
0.0010379146
0.00098857446
0.00093861584
0.00088805539
0.00083691954
0.00078522728
0.00073305195
0.00068043331
0.00062768889
0.00057472777
0.00052285812
0.00047046764
0.00042413954
0.00037185264
0.0003510479
0.00027057185
0.00054392049
-0.00040086571
0.0051817524
0.0052108278
0.0052346843
0.0052515014
0.0052598459
0.0052591524
0.005248742
0.005227736
0.0051953703
0.005151104
0.0050946784
0.0050262199
0.0049462942
0.0048558934
0.0047563885
0.0046494236
0.0045368254
0.004420477
0.0043022245
0.0041838505
0.0040669819
0.0039530168
0.0038432329
0.0037388563
0.0036409507
0.0035503009
0.0034674005
0.0033924385
0.0033252377
0.0032652093
0.003211328
0.0031622929
0.003116747
0.0030733617
0.0030310697
0.0029892678
0.0029476944
0.0029062786
0.002865074
0.0028240657
0.002783157
0.0027422884
0.0027014263
0.0026606622
0.00262012
0.0025798159
0.0025396906
0.0024997315
0.0024600115
0.0024205123
0.0023811427
0.002341848
0.0023026842
0.0022636644
0.0022246583
0.0021856232
0.0021466307
0.0021076435
0.0020685351
0.0020293196
0.0019900532
0.0019505856
0.0019109096
0.0018710875
0.0018309862
0.0017905975
0.0017499702
0.0017089766
0.0016676207
0.0016259332
0.0015838106
0.0015412602
0.0014982594
0.0014547721
0.0014107891
0.0013662704
0.0013212061
0.0012755742
0.0012293543
0.001182531
0.0011350882
0.0010870143
0.0010383019
0.00098895021
0.00093896704
0.00088837132
0.00083720203
0.00078550112
0.0007333623
0.0006808252
0.00062818103
0.00057530784
0.00052349114
0.00047113094
0.00042478886
0.00037249507
0.00035163207
0.00027084803
0.00054101554
-0.00039386206
0.0051433122
0.0051702381
0.0051924383
0.005208053
0.0052156265
0.0052145723
0.0052042467
0.0051838244
0.0051525816
0.0051100105
0.0050558624
0.0049902314
0.0049136099
0.0048268843
0.0047312961
0.0046283556
0.004519757
0.0044072715
0.0042926572
0.0041776208
0.0040637421
0.0039524086
0.0038448857
0.0037423711
0.0036459072
0.0035562794
0.0034739933
0.0033992593
0.0033319385
0.0032715034
0.0032170224
0.0031672954
0.003121052
0.0030770465
0.00303426
0.0029920854
0.0029502371
0.0029086147
0.0028672387
0.0028260835
0.0027850554
0.0027440938
0.0027031661
0.0026623488
0.0026217513
0.0025813902
0.0025412139
0.002501209
0.002461438
0.0024218844
0.0023824648
0.0023431269
0.0023039172
0.0022648461
0.0022257951
0.0021867205
0.0021476841
0.0021086516
0.002069505
0.0020302522
0.0019909438
0.0019514407
0.0019117313
0.0018718717
0.0018317384
0.0017913192
0.0017506584
0.0017096362
0.0016682528
0.0016265361
0.0015843878
0.001541812
0.0014987869
0.0014552766
0.0014112712
0.0013667317
0.0013216476
0.0012759972
0.0012297604
0.0011829223
0.0011354673
0.0010873845
0.0010386668
0.00098931203
0.00093932582
0.00088872239
0.00083753533
0.00078580578
0.00073363529
0.00068108181
0.00062845605
0.00057564313
0.00052390576
0.00047162384
0.00042530687
0.00037302434
0.00035211057
0.00027097449
0.00053749618
-0.00038601558
0.0051050357
0.0051298848
0.0051504324
0.0051648209
0.0051716018
0.0051701742
0.0051599198
0.0051400594
0.0051099064
0.0050689802
0.0050170392
0.0049541484
0.0048807332
0.0047975829
0.0047058188
0.004606824
0.0045021669
0.0043935079
0.0042825158
0.0041708221
0.0040599556
0.0039512847
0.0038460589
0.0037454479
0.0036504733
0.0035619189
0.0034803009
0.0034058507
0.0033384672
0.0032776825
0.003222654
0.0031722789
0.0031253724
0.0030807683
0.0030374968
0.0029949514
0.0029528259
0.0029109934
0.0028694441
0.0028281414
0.0027869934
0.002745938
0.0027049429
0.002664071
0.0026234179
0.0025830001
0.0025427724
0.0025027211
0.0024628991
0.0024232912
0.0023838213
0.0023444394
0.0023051832
0.0022660609
0.0022269642
0.0021878491
0.0021487684
0.00210969
0.0020705042
0.0020312136
0.0019918625
0.001952323
0.0019125794
0.0018726817
0.0018325155
0.001792065
0.0017513701
0.0017103185
0.0016689068
0.0016271601
0.0015849851
0.0015423832
0.0014993328
0.0014557987
0.0014117698
0.0013672084
0.0013221033
0.0012764328
0.0012301771
0.0011833211
0.0011358497
0.0010877521
0.0010390219
0.00098965734
0.00093966459
0.0008890572
0.00083786687
0.00078613106
0.00073394652
0.00068136885
0.00062871254
0.00057587795
0.00052414131
0.00047189947
0.00042561927
0.00037338108
0.00035245389
0.00027092606
0.00053335888
-0.00037730998
0.0050669026
0.0050897529
0.0051086692
0.0051218246
0.0051278001
0.0051259884
0.005115791
0.0050964693
0.0050673708
0.0050280373
0.0049782321
0.0049179934
0.004847686
0.0047680096
0.0046799743
0.0045848431
0.0044840641
0.0043791894
0.0042717982
0.0041634461
0.0040556083
0.0039496271
0.0038467318
0.0037480645
0.0036546257
0.0035671956
0.0034863001
0.0034121907
0.0033448032
0.0032837277
0.003228206
0.0031772289
0.0031296957
0.0030845168
0.0030407719
0.0029978593
0.0029554556
0.0029134106
0.0028716868
0.0028302362
0.0027889679
0.0027478183
0.0027067545
0.0026658268
0.0026251179
0.0025846436