/*--------------------------------*- C++ -*----------------------------------*\
  =========                 |
  \\      /  F ield         | OpenFOAM: The Open Source CFD Toolbox
   \\    /   O peration     | Website:  https://openfoam.org
    \\  /    A nd           | Version:  12
     \\/     M anipulation  |
\*---------------------------------------------------------------------------*/
FoamFile
{
    format      ascii;
    class       surfaceScalarField;
    location    "1000";
    object      phi;
}
// * * * * * * * * * * * * * * * * * * * * * * * * * * * * * * * * * * * * * //

dimensions      [0 3 -1 0 0 0 0];

internalField   nonuniform List<scalar> 
14782
(
0.00079744322
1.4418433e-06
-0.00079888506
0.00079529204
2.1511806e-06
0.00079258054
2.7115023e-06
0.00078929513
3.285401e-06
0.00078537701
3.918122e-06
0.00078074761
4.629402e-06
0.00077535984
5.3877747e-06
0.00076917526
6.1845712e-06
0.00076216561
7.0096513e-06
0.00075434554
7.8200723e-06
0.0007457524
8.5931435e-06
0.00073645783
9.294568e-06
0.0007265584
9.8994252e-06
0.00071616969
1.038871e-05
0.00070540938
1.0760313e-05
0.00069441454
1.0994839e-05
0.00068329501
1.1119532e-05
0.00067217093
1.1124081e-05
0.00066115889
1.1012036e-05
0.00065035837
1.0800522e-05
0.00063987068
1.0487687e-05
0.00062981219
1.0058498e-05
0.00062029827
9.5139159e-06
0.00061142171
8.8765627e-06
0.00060325482
8.1668912e-06
0.00059584982
7.4049967e-06
0.00058923533
6.6144909e-06
0.00058341445
5.8208759e-06
0.0005783549
5.0595541e-06
0.00057398054
4.3743613e-06
0.00057018233
3.7982055e-06
0.00056683235
3.3499792e-06
0.00056379936
3.0329949e-06
0.00056097225
2.8271031e-06
0.00055827352
2.6987375e-06
0.00055565885
2.6146714e-06
0.0005531085
2.5503476e-06
0.00055061511
2.4933841e-06
0.0005481714
2.4437179e-06
0.00054576632
2.4050791e-06
0.00054338749
2.3788294e-06
0.00054102573
2.3617617e-06
0.00053867979
2.3459329e-06
0.00053635457
2.3252271e-06
0.00053405616
2.2984026e-06
0.00053178863
2.2675342e-06
0.00052955323
2.2354012e-06
0.00052735012
2.2031123e-06
0.0005251791
2.1710117e-06
0.00052304037
2.1387383e-06
0.00052093425
2.1061164e-06
0.00051886117
2.0730756e-06
0.000516821
2.0401725e-06
0.00051481289
2.0081122e-06
0.0005128363
1.9765843e-06
0.00051089104
1.9452612e-06
0.00050897655
1.9144973e-06
0.00050709193
1.8846205e-06
0.00050523667
1.8552573e-06
0.00050341033
1.826336e-06
0.00050161184
1.7984927e-06
0.00049984043
1.7714053e-06
0.00049809551
1.744923e-06
0.00049637614
1.7193722e-06
0.00049468169
1.6944481e-06
0.00049301162
1.6700698e-06
0.00049136509
1.6465278e-06
0.0004897415
1.6235976e-06
0.00048814025
1.6012424e-06
0.00048656059
1.5796598e-06
0.00048500192
1.5586729e-06
0.0004834636
1.5383199e-06
0.000481945
1.5185998e-06
0.00048044555
1.4994468e-06
0.00047896467
1.4808872e-06
0.00047750181
1.4628562e-06
0.00047605645
1.4453562e-06
0.00047462808
1.4283735e-06
0.0004732162
1.411885e-06
0.00047182032
1.3958791e-06
0.00047043998
1.3803375e-06
0.00046907473
1.3652463e-06
0.00046772414
1.3505933e-06
0.00046638777
1.336369e-06
0.00046506521
1.3225653e-06
0.00046375603
1.3091794e-06
0.00046245982
1.2962081e-06
0.00046117615
1.2836666e-06
0.0004599046
1.2715548e-06
0.00045864465
1.2599493e-06
0.00045739586
1.2487898e-06
0.00045615739
1.2384666e-06
0.00045492891
1.2284817e-06
0.00045370801
1.2208985e-06
0.00045249596
1.2120465e-06
0.00045128169
1.214275e-06
0.00045007799
1.2036943e-06
0.00044880517
1.2728232e-06
0.00044770974
1.0954316e-06
1.5938057e-06
0.00082625028
1.5226752e-06
-0.00082633111
0.00082617085
2.2306027e-06
0.00082604973
2.8326245e-06
0.00082589885
3.4362804e-06
0.00082570987
4.1070997e-06
0.00082547458
4.864694e-06
0.00082516849
5.6938714e-06
0.00082475515
6.597905e-06
0.00082419543
7.5693726e-06
0.00082343795
8.5775546e-06
0.00082242501
9.6060864e-06
0.00082109509
1.0624486e-05
0.00081938768
1.1606827e-05
0.00081724585
1.2530543e-05
0.00081462279
1.3383379e-05
0.00081147784
1.4139781e-05
0.00080778333
1.4814044e-05
0.00080352135
1.5386064e-05
0.00079868455
1.5848839e-05
0.00079327188
1.6213188e-05
0.00078728029
1.6479282e-05
0.0007807227
1.6616087e-05
0.00077365652
1.6580091e-05
0.00076616443
1.6368659e-05
0.00075833397
1.5997349e-05
0.00075027092
1.546805e-05
0.00074209744
1.4787966e-05
0.00073394547
1.3972848e-05
0.00072595628
1.3048742e-05
0.00071828386
1.2046779e-05
0.000711076
1.1006064e-05
0.00070442817
9.9978146e-06
0.00069836259
9.0985716e-06
0.00069284155
8.3481479e-06
0.00068778826
7.7520264e-06
0.00068310759
7.2953396e-06
0.00067871128
6.946655e-06
0.00067453468
6.669984e-06
0.00067053727
6.4411336e-06
0.00066669692
6.2454292e-06
0.00066300106
6.074683e-06
0.0006594387
5.9241291e-06
0.00065599783
5.7868013e-06
0.00065266464
5.6584166e-06
0.00064942471
5.5383328e-06
0.00064626574
5.4265029e-06
0.0006431796
5.3215362e-06
0.00064016246
5.2202584e-06
0.00063721202
5.1214516e-06
0.00063432566
5.0250971e-06
0.00063150004
4.9317379e-06
0.00062873212
4.8409919e-06
0.00062601952
4.7527762e-06
0.00062336011
4.6675216e-06
0.00062075218
4.584512e-06
0.00061819422
4.5032208e-06
0.00061568452
4.4241958e-06
0.00061322128
4.347866e-06
0.00061080298
4.2735503e-06
0.00060842832
4.200999e-06
0.00060609572
4.1310929e-06
0.00060380391
4.0632164e-06
0.00060155176
3.9970768e-06
0.00059933788
3.9332479e-06
0.0005971611
3.8712327e-06
0.00059502032
3.8108446e-06
0.0005929143
3.7525466e-06
0.00059084195
3.695945e-06
0.00058880227
3.6409307e-06
0.00058679411
3.5878146e-06
0.00058481649
3.5362939e-06
0.00058286842
3.4863943e-06
0.00058094892
3.4380917e-06
0.0005790571
3.391267e-06
0.00057719204
3.3459479e-06
0.00057535289
3.302007e-06
0.00057353883
3.2594228e-06
0.00057174905
3.218154e-06
0.00056998279
3.1781454e-06
0.0005682393
3.1393604e-06
0.00056651789
3.1017534e-06
0.00056481785
3.0652864e-06
0.00056313852
3.0299253e-06
0.00056147924
2.9956419e-06
0.0005598394
2.9624125e-06
0.00055821835
2.9302226e-06
0.0005566155
2.8990639e-06
0.00055503021
2.8689515e-06
0.00055346187
2.8399015e-06
0.00055190981
2.8120016e-06
0.00055037329
2.7853121e-06
0.00054885154
2.760213e-06
0.0005473433
2.7367229e-06
0.00054584764
2.7165606e-06
0.0005443613
2.6983849e-06
0.00054288267
2.6929101e-06
0.00054139862
2.687741e-06
0.00053992158
2.7498685e-06
0.00053831118
2.7058266e-06
3.1057919e-06
0.00085392358
1.5700476e-06
-0.00085397095
0.00085390668
2.2475039e-06
0.00085388387
2.8554322e-06
0.00085385953
3.4606199e-06
0.0008538384
4.128234e-06
0.00085382641
4.8766865e-06
0.00085382378
5.6964983e-06
0.00085383464
6.5870489e-06
0.00085386284
7.5411667e-06
0.00085390533
8.5350653e-06
0.00085396001
9.5514067e-06
0.00085402084
1.056366e-05
0.00085407984
1.1547826e-05
0.00085412696
1.2483421e-05
0.00085415184
1.3358495e-05
0.00085413784
1.4153783e-05
0.00085407334
1.4878542e-05
0.00085393876
1.5520645e-05
0.0008537111
1.6076508e-05
0.00085336646
1.6557824e-05
0.00085287314
1.6972597e-05
0.00085217336
1.7315867e-05
0.00085116938
1.758407e-05
0.00084975721
1.7780834e-05
0.00084784048
1.7914075e-05
0.00084531783
1.7990703e-05
0.00084208628
1.8019516e-05
0.00083804939
1.8009741e-05
0.00083312864
1.7969493e-05
0.00082727292
1.7902497e-05
0.00082052663
1.7752353e-05
0.0008130499
1.7474539e-05
0.00080507752
1.7070954e-05
0.00079689825
1.6527419e-05
0.0007888025
1.5847779e-05
0.00078104344
1.5054399e-05
0.00077380535
1.418474e-05
0.00076716744
1.3307898e-05
0.00076110197
1.2506598e-05
0.00075552057
1.1826833e-05
0.00075031767
1.1277585e-05
0.00074540183
1.0839971e-05
0.00074071232
1.0476306e-05
0.00073621539
1.0155345e-05
0.00073189278
9.8609518e-06
0.00072773163
9.5876451e-06
0.00072371927
9.3339026e-06
0.00071984221
9.0973129e-06
0.00071608654
8.8771243e-06
0.00071243959
8.6720487e-06
0.0007088914
8.4799249e-06
0.0007054352
8.2971913e-06
0.000702066
8.1219824e-06
0.00069877893
7.9545836e-06
0.00069556931
7.7941399e-06
0.00069243293
7.6395977e-06
0.00068936613
7.4909904e-06
0.00068636566
7.3483444e-06
0.00068342869
7.2105122e-06
0.00068055267
7.0770225e-06
0.0006777349
6.948862e-06
0.00067497314
6.8249795e-06
0.0006722654
6.7048185e-06
0.00066960955
6.5890943e-06
0.0006670037
6.4770815e-06
0.00066444612
6.3684251e-06
0.00066193499
6.2636758e-06
0.00065946869
6.1622494e-06
0.00065704569
6.0639233e-06
0.00065466445
5.9690637e-06
0.00065232351
5.8772313e-06
0.0006500215
5.7884046e-06
0.00064775708
5.7025107e-06
0.00064552898
5.6193656e-06
0.00064333595
5.5389775e-06
0.00064117681
5.4611464e-06
0.00063905043
5.3858077e-06
0.0006369557
5.3128776e-06
0.00063489159
5.2422557e-06
0.00063285708
5.1738677e-06
0.00063085121
5.1076297e-06
0.00062887303
5.0434682e-06
0.00062692163
4.9813174e-06
0.00062499616
4.9211203e-06
0.00062309574
4.8628288e-06
0.00062121955
4.8064079e-06
0.00061936678
4.7518381e-06
0.00061753661
4.6991242e-06
0.0006157282
4.6483044e-06
0.00061394075
4.5994534e-06
0.00061217327
4.5527999e-06
0.00061042489
4.5085843e-06
0.00060869394
4.4676717e-06
0.00060697983
4.430673e-06
0.0006052777
4.4005206e-06
0.00060358885
4.3817548e-06
0.00060189085
4.385744e-06
0.00060023014
4.4105792e-06
0.00059831052
4.6254467e-06
4.6902574e-06
0.00088246657
1.6227344e-06
-0.00088251926
0.00088245086
2.2632173e-06
0.00088244031
2.8659801e-06
0.00088243033
3.4706049e-06
0.00088242547
4.1330886e-06
0.0008824314
4.870754e-06
0.00088245071
5.6771976e-06
0.00088248745
6.5503036e-06
0.00088254449
7.4841255e-06
0.00088262094
8.4586201e-06
0.00088271678
9.4555668e-06
0.00088282946
1.0450973e-05
0.00088295543
1.1421856e-05
0.00088309034
1.2348513e-05
0.00088323054
1.3218302e-05
0.00088336988
1.4014437e-05
0.0008835073
1.4741122e-05
0.00088363814
1.538981e-05
0.00088375761
1.595703e-05
0.0008838636
1.6451836e-05
0.00088395367
1.6882525e-05
0.00088402389
1.7245651e-05
0.00088406838
1.7539578e-05
0.00088407965
1.7769563e-05
0.00088404818
1.7945543e-05
0.00088396084
1.807805e-05
0.00088380005
1.8180299e-05
0.00088354167
1.8268122e-05
0.00088314996
1.8361209e-05
0.00088256892
1.8483538e-05
0.00088167451
1.8646763e-05
0.000880293
1.8856047e-05
0.00087825192
1.9112035e-05
0.00087538166
1.9397676e-05
0.00087154551
1.9683934e-05
0.00086666065
1.9939254e-05
0.00086075709
2.0088303e-05
0.00085402163
2.0043353e-05
0.00084674594
1.9782293e-05
0.00083925717
1.9315596e-05
0.00083186186
1.8672897e-05
0.00082479939
1.7902438e-05
0.0008182
1.7075704e-05
0.00081207592
1.6279418e-05
0.00080636524
1.5571631e-05
0.00080098177
1.4971114e-05
0.00079585264
1.4463037e-05
0.00079093271
1.4017245e-05
0.00078619852
1.3611311e-05
0.0007816368
1.3233775e-05
0.00077723588
1.2880838e-05
0.00077298319
1.2549886e-05
0.00076886549
1.2239683e-05
0.00076487033
1.1949741e-05
0.00076098771
1.1676755e-05
0.00075721017
1.1417141e-05
0.00075353151
1.1169655e-05
0.00074994589
1.0933961e-05
0.00074644803
1.0708371e-05
0.00074303325
1.0491808e-05
0.00073969714
1.0284966e-05
0.00073643601
1.0086114e-05
0.00073324652
9.8943037e-06
0.00073012538
9.7102386e-06
0.00072706965
9.5328061e-06
0.00072407672
9.3613566e-06
0.00072114397
9.1964327e-06
0.00071826902
9.0371925e-06
0.00071544972
8.8832296e-06
0.00071268388
8.734896e-06
0.00070996954
8.5915721e-06
0.0007073048
8.4531459e-06
0.00070468785
8.319458e-06
0.00070211699
8.1902282e-06
0.00069959055
8.0654163e-06
0.00069710697
7.9447284e-06
0.00069466474
7.8280346e-06
0.00069226243
7.7151892e-06
0.00068989866
7.6060293e-06
0.0006875721
7.5004261e-06
0.00068528149
7.3982427e-06
0.0006830256
7.2993566e-06
0.00068080326
7.2036569e-06
0.00067861333
7.1110459e-06
0.00067645472
7.0214399e-06
0.00067432636
6.9347727e-06
0.00067222719
6.8510049e-06
0.00067015619
6.7701207e-06
0.00066811232
6.6921799e-06
0.00066609454
6.6172298e-06
0.00066410166
6.5456806e-06
0.00066213267
6.4775754e-06
0.00066018557
6.4147676e-06
0.00065825982
6.356428e-06
0.0006563497
6.3106451e-06
0.00065445782
6.2736311e-06
0.00065255656
6.2870066e-06
0.0006507126
6.2545362e-06
0.0006485281
6.8099443e-06
6.3875993e-06
0.00091196457
1.6827772e-06
-0.00091202462
0.00091194123
2.2865644e-06
0.00091192953
2.8776772e-06
0.00091192151
3.4786204e-06
0.00091192032
4.1342763e-06
0.00091193092
4.8601591e-06
0.00091195598
5.6521346e-06
0.00091199849
6.5077952e-06
0.00091206098
7.4216353e-06
0.00091214353
8.3760693e-06
0.00091224598
9.353117e-06
0.0009123662
1.0330754e-05
0.00091250096
1.1287101e-05
0.00091264639
1.2203079e-05
0.00091279893
1.3065762e-05
0.00091295328
1.386009e-05
0.00091310767
1.4586725e-05
0.00091325858
1.5238908e-05
0.0009134026
1.5813002e-05
0.00091353853
1.6315916e-05
0.00091366577
1.6755283e-05
0.00091378282
1.7128603e-05
0.0009138876
1.7434791e-05
0.0009139785
1.767867e-05
0.00091405404
1.7870001e-05
0.00091411226
1.8019831e-05
0.0009141513
1.8141258e-05
0.00091416944
1.8249977e-05
0.00091416504
1.8365611e-05
0.00091413709
1.8511492e-05
0.00091408167
1.8702185e-05
0.0009139906
1.8947111e-05
0.00091385047
1.9252166e-05
0.00091363908
1.9609068e-05
0.00091332056
2.0002457e-05
0.00091283997
2.0419836e-05
0.00091208009
2.084819e-05
0.00091084986
2.1273585e-05
0.00090894337
2.168878e-05
0.00090617615
2.208282e-05
0.00090241302
2.2436018e-05
0.00089761479
2.2700674e-05
0.00089190435
2.2786144e-05
0.0008855426
2.2641165e-05
0.00087884044
2.2273792e-05
0.00087210205
2.1709503e-05
0.00086556339
2.1001702e-05
0.00085934733
2.0233302e-05
0.00085347075
1.9487894e-05
0.00084789131
1.8813208e-05
0.00084255349
1.8218665e-05
0.00083741654
1.7686834e-05
0.00083245817
1.7198051e-05
0.0008276664
1.674151e-05
0.00082303182
1.6311335e-05
0.0008185441
1.5904866e-05
0.00081419192
1.5521837e-05
0.0008099646
1.5161281e-05
0.00080585353
1.4819438e-05
0.00080185188
1.4493457e-05
0.00079795338
1.4183463e-05
0.00079415238
1.3887116e-05
0.00079044373
1.3602957e-05
0.0007868226
1.3331369e-05
0.00078328481
1.3070594e-05
0.0007798266
1.2819565e-05
0.00077644431
1.2578721e-05
0.00077313466
1.2346845e-05
0.00076989465
1.212324e-05
0.00076672138
1.1908163e-05
0.00076361221
1.170075e-05
0.00076056461
1.150074e-05
0.00075757623
1.1307837e-05
0.00075464484
1.1121622e-05
0.00075176829
1.0941967e-05
0.00074894457
1.0768452e-05
0.00074617175
1.0600855e-05
0.00074344799
1.0438942e-05
0.00074077156
1.0282467e-05
0.00073814076
1.0131226e-05
0.00073555399
9.9850115e-06
0.00073300971
9.8436345e-06
0.00073050644
9.7069238e-06
0.00072804276
9.5747269e-06
0.00072561729
9.4469109e-06
0.0007232287
9.3233662e-06
0.00072087568
9.2040225e-06
0.00071855697
9.0888325e-06
0.00071627128
8.9778708e-06
0.00071401736
8.8711463e-06
0.00071179378
8.7692551e-06
0.00070959935
8.6720107e-06
0.00070743179
8.5823224e-06
0.00070529047
8.49775e-06
0.0007031691
8.4320203e-06
0.00070107099
8.3717371e-06
0.00069896483
8.3931644e-06
0.00069693261
8.286758e-06
0.00069449471
9.2478446e-06
8.2172419e-06
0.00094245384
1.7476496e-06
-0.00094251872
0.00094242227
2.3181435e-06
0.00094240543
2.8945109e-06
0.00094239558
3.4884708e-06
0.00094239455
4.1353048e-06
0.00094240626
4.8484505e-06
0.0009424331
5.6252992e-06
0.00094247754
6.4633476e-06
0.00094254194
7.3572443e-06
0.00094262659
8.2914137e-06
0.0009427311
9.2486119e-06
0.00094285346
1.0208393e-05
0.00094299056
1.1149997e-05
0.00094313867
1.2054966e-05
0.00094329429
1.2910148e-05
0.00094345278
1.3701599e-05
0.00094361187
1.4427631e-05
0.00094376837
1.5082409e-05
0.0009439192
1.566217e-05
0.00094406289
1.6172232e-05
0.00094419899
1.6619176e-05
0.00094432616
1.7001437e-05
0.00094444271
1.7318237e-05
0.0009445471
1.7574286e-05
0.00094463833
1.7778772e-05
0.00094471591
1.7942247e-05
0.00094477957
1.8077599e-05
0.00094482933
1.8200215e-05
0.00094486583
1.8329116e-05
0.00094489072
1.84866e-05
0.00094490545
1.8687448e-05
0.00094491134
1.8941228e-05
0.0009449094
1.9254107e-05
0.0009448987
1.9619765e-05
0.00094487623
2.0024929e-05
0.00094483752
2.0458547e-05
0.00094477468
2.0911028e-05
0.00094467265
2.1375614e-05
0.00094450877
2.185266e-05
0.00094424988
2.2341711e-05
0.00094384533
2.284057e-05
0.00094320064
2.3345363e-05
0.00094214475
2.384203e-05
0.00094046876
2.4317151e-05
0.00093798507
2.4757484e-05
0.00093455082
2.5143754e-05
0.00093014236
2.5410161e-05
0.00092489916
2.5476506e-05
0.00091906844
2.5318615e-05
0.00091293907
2.4942577e-05
0.00090677682
2.4380912e-05
0.00090076066
2.3702995e-05
0.00089496487
2.2993842e-05
0.00088939145
2.2314929e-05
0.00088401359
2.1689198e-05
0.00087880647
2.111198e-05
0.00087375605
2.0572255e-05
0.00086885518
2.0062154e-05
0.00086409799
1.9576626e-05
0.0008594771
1.9114347e-05
0.00085498386
1.86767e-05
0.0008506105
1.8260485e-05
0.00084635053
1.7862925e-05
0.00084219812
1.7483773e-05
0.00083814799
1.7120724e-05
0.0008341952
1.6772355e-05
0.00083033505
1.6438878e-05
0.00082656335
1.6118541e-05
0.00082287631
1.581028e-05
0.00081927026
1.5514208e-05
0.00081574186
1.5229153e-05
0.00081228795
1.4954646e-05
0.00080890559
1.4690205e-05
0.00080559198
1.4435231e-05
0.00080234448
1.4189469e-05
0.00079916059
1.3952338e-05
0.00079603795
1.3723493e-05
0.0007929743
1.350259e-05
0.00078996749
1.3289276e-05
0.00078701547
1.308325e-05
0.00078411627
1.2884216e-05
0.000781268
1.2691901e-05
0.00077846887
1.2506058e-05
0.00077571713
1.2326465e-05
0.00077301111
1.2152925e-05
0.00077034921
1.1985272e-05
0.00076772984
1.1823395e-05
0.00076515147
1.1667203e-05
0.00076261256
1.1516775e-05
0.00076011163
1.1372074e-05
0.00075764701
1.123388e-05
0.00075521726
1.1101757e-05
0.00075281988
1.0979705e-05
0.00075045405
1.0863576e-05
0.00074811304
1.0773032e-05
0.00074580059
1.0684184e-05
0.00074348233
1.0711428e-05
0.00074125342
1.051567e-05
0.00073856105
1.1940217e-05
1.0193735e-05
0.00097396571
1.8148233e-06
-0.00097403288
0.00097392784
2.3560116e-06
0.00097390562
2.9167312e-06
0.00097389255
3.5015481e-06
0.00097388989
4.1379579e-06
0.00097390086
4.8374853e-06
0.00097392761
5.5985422e-06
0.00097397236
6.4186034e-06
0.00097403716
7.2924442e-06
0.0009741224
8.206171e-06
0.00097422758
9.1434363e-06
0.0009743508
1.0085168e-05
0.00097448908
1.1011718e-05
0.00097463877
1.1905277e-05
0.00097479632
1.2752595e-05
0.00097495742
1.3540498e-05
0.00097511947
1.4265587e-05
0.0009752794
1.4922474e-05
0.00097543424
1.5507339e-05
0.00097558235
1.602412e-05
0.00097572311
1.6478418e-05
0.00097585519
1.6869355e-05
0.00097597702
1.7196402e-05
0.00097608728
1.7464024e-05
0.00097618513
1.7680928e-05
0.00097627004
1.7857336e-05
0.00097634191
1.8005726e-05
0.00097640095
1.8141176e-05
0.00097644809
1.8281973e-05
0.00097648553
1.8449162e-05
0.00097651542
1.8657564e-05
0.00097653995
1.8916697e-05
0.00097656143
1.9232629e-05
0.00097658093
1.9600258e-05
0.00097659834
2.0007517e-05
0.0009766129
2.0443991e-05
0.00097662308
2.0900846e-05
0.00097662646
2.1372238e-05
0.00097662011
2.1859009e-05
0.00097660002
2.2361803e-05
0.00097656074
2.2879842e-05
0.00097649425
2.3411854e-05
0.00097638426
2.3952025e-05
0.00097620423
2.4497182e-05
0.0009759148
2.5046908e-05
0.00097545743
2.560113e-05
0.00097471448
2.6153111e-05
0.00097350261
2.6688373e-05
0.0009716277
2.7193527e-05
0.00096891951
2.7650761e-05
0.0009652906
2.8009829e-05
0.00096080058
2.8193012e-05
0.00095563665
2.8157777e-05
0.00095005143
2.7900141e-05
0.0009442993
2.7441329e-05
0.0009385677
2.6843582e-05
0.00093295263
2.6187324e-05
0.00092748183
2.5532953e-05
0.00092215202
2.4906436e-05
0.00091695538
2.4310994e-05
0.0009118883
2.3743775e-05
0.00090694993
2.3198861e-05
0.00090213804
2.2674808e-05
0.00089744797
2.2173846e-05
0.00089287438
2.1694313e-05
0.00088841237
2.1234364e-05
0.00088405734
2.079391e-05
0.00087980501
2.0370873e-05
0.00087565124
1.9964046e-05
0.00087159198
1.9573467e-05
0.00086762349
1.9197644e-05
0.00086374222
1.8835918e-05
0.00085994479
1.8487639e-05
0.000856228
1.8152021e-05
0.00085258879
1.782867e-05
0.0008490243
1.7516835e-05
0.00084553175
1.7216039e-05
0.00084210853
1.6925814e-05
0.00083875211
1.664569e-05
0.0008354601
1.6375261e-05
0.00083223019
1.6114128e-05
0.00082906017
1.5861923e-05
0.00082594791
1.5618313e-05
0.00082289138
1.5382993e-05
0.00081988861
1.5155695e-05
0.0008169377
1.4936187e-05
0.00081403679
1.4724303e-05
0.00081118409
1.4519903e-05
0.0008083778
1.4323063e-05
0.00080561619
1.4133689e-05
0.00080289733
1.3952742e-05
0.00080021955
1.3779529e-05
0.00079758011
1.3619154e-05
0.00079497798
1.3465705e-05
0.00079240602
1.3344986e-05
0.00078986828
1.3221928e-05
0.00078732758
1.3252123e-05
0.00078489133
1.2951924e-05
0.00078193706
1.4894489e-05
1.2330176e-05
0.0010065323
1.8826139e-06
-0.0010066001
0.0010064903
2.3980223e-06
0.0010064639
2.943138e-06
0.0010064477
3.5176864e-06
0.001006443
4.1427232e-06
0.0010064524
4.8280653e-06
0.0010064781
5.5728405e-06
0.0010065221
6.3745827e-06
0.0010065863
7.2282264e-06
0.0010066712
8.1213093e-06
0.0010067762
9.0384548e-06
0.0010068995
9.9618531e-06
0.0010070383
1.0872949e-05
0.0010071889
1.1754608e-05
0.0010073479
1.2593595e-05
0.0010075111
1.3377306e-05
0.0010076757
1.4101054e-05
0.0010078385
1.475961e-05
0.0010079967
1.5349108e-05
0.0010081486
1.5872292e-05
0.0010082932
1.6333838e-05
0.0010084292
1.6733335e-05
0.0010085551
1.7070498e-05
0.0010086696
1.7349537e-05
0.0010087718
1.7578674e-05
0.0010088613
1.7767807e-05
0.0010089381
1.792901e-05
0.0010090023
1.8076937e-05
0.0010090551
1.8229166e-05
0.0010090986
1.8405655e-05
0.0010091351
1.8621052e-05
0.001009167
1.8884852e-05
0.0010091967
1.9202951e-05
0.0010092257
1.9571175e-05
0.0010092546
1.9978626e-05
0.0010092831
2.0415475e-05
0.0010093106
2.0873416e-05
0.0010093359
2.1346914e-05
0.0010093584
2.183654e-05
0.0010093771
2.2343057e-05
0.0010093911
2.2865879e-05
0.001009399
2.3403978e-05
0.0010093981
2.395288e-05
0.0010093845
2.4510756e-05
0.0010093526
2.5078786e-05
0.0010092953
2.5658504e-05
0.0010091998
2.6248554e-05
0.0010090428
2.6845412e-05
0.001008788
2.7448326e-05
0.0010083824
2.8056359e-05
0.0010077285
2.8663761e-05
0.001006666
2.9255471e-05
0.0010050089
2.9814829e-05
0.0010025847
3.032438e-05
0.00099929733
3.0728707e-05
0.00099518494
3.0955969e-05
0.00099040251
3.0969763e-05
0.0009851768
3.0758663e-05
0.00097973728
3.0345951e-05
0.00097425302
2.979526e-05
0.00096881676
2.9180029e-05
0.00096346504
2.855058e-05
0.00095820864
2.7931209e-05
0.00095305259
2.7329898e-05
0.00094800219
2.6744712e-05
0.00094306099
2.6175561e-05
0.00093822923
2.5625677e-05
0.00093350519
2.5094905e-05
0.00092888655
2.4582689e-05
0.00092437064
2.4089383e-05
0.00091995465
2.3613629e-05
0.00091563558
2.3154988e-05
0.00091141035
2.2712869e-05
0.00090727593
2.2286438e-05
0.00090322932
2.1875282e-05
0.00089926759
2.1478566e-05
0.00089538788
2.1095748e-05
0.00089158741
2.0726282e-05
0.00088786349
2.0369612e-05
0.0008842135
2.0025252e-05
0.00088063491
1.9692717e-05
0.00087712528
1.9371557e-05
0.00087368224
1.9061356e-05
0.00087030349
1.8761734e-05
0.00086698684
1.8472351e-05
0.00086373012
1.8192908e-05
0.00086053123
1.7923188e-05
0.00085738814
1.7662996e-05
0.0008542988
1.7412402e-05
0.00085126124
1.7171254e-05
0.00084827329
1.6940691e-05
0.00084533305
1.6719762e-05
0.00084243753
1.6514679e-05
0.00083958549
1.6317746e-05
0.00083676943
1.6161047e-05
0.00083399358
1.5997771e-05
0.00083121815
1.602756e-05
0.00082856232
1.5607749e-05
0.000825335
1.8121808e-05
1.4639399e-05
0.0010401876
1.9500825e-06
-0.0010402551
0.001040143
2.4426194e-06
0.0010401138
2.9723901e-06
0.0010400955
3.5360256e-06
0.001040089
4.14921e-06
0.0010400969
4.820163e-06
0.0010401212
5.5484734e-06
0.0010401641
6.3317699e-06
0.0010402271
7.1651795e-06
0.0010403109
8.0374921e-06
0.001040415
8.9343445e-06
0.0010405378
9.8391179e-06
0.0010406764
1.0734331e-05
0.0010408274
1.1603551e-05
0.0010409874
1.2433655e-05
0.0010411522
1.3212496e-05
0.0010413188
1.3934408e-05
0.0010414843
1.4594151e-05
0.0010416456
1.5187792e-05
0.0010418009
1.5717042e-05
0.001041949
1.61857e-05
0.0010420887
1.6593656e-05
0.0010422183
1.6940844e-05
0.0010423366
1.7231226e-05
0.0010424428
1.7472548e-05
0.0010425362
1.7674356e-05
0.0010426169
1.7848324e-05
0.0010426852
1.8008641e-05
0.0010427422
1.8172183e-05
0.0010427899
1.8357907e-05
0.0010428308
1.8580206e-05
0.0010428671
1.8848516e-05
0.0010429015
1.9168615e-05
0.0010429355
1.9537154e-05
0.0010429698
1.9944305e-05
0.0010430044
2.0380829e-05
0.0010430389
2.0838911e-05
0.0010430726
2.131325e-05
0.0010431051
2.1804067e-05
0.0010431361
2.2312054e-05
0.0010431653
2.2836658e-05
0.0010431924
2.3376881e-05
0.0010432165
2.3928792e-05
0.0010432364
2.449082e-05
0.0010432509
2.5064358e-05
0.0010432583
2.5651093e-05
0.0010432564
2.6250387e-05
0.0010432414
2.6860436e-05
0.0010432073
2.7482394e-05
0.0010431463
2.8117441e-05
0.0010430453
2.8764686e-05
0.0010428808
2.9419995e-05
0.0010426148
3.0080843e-05
0.0010421923
3.0746914e-05
0.0010415115
3.1409444e-05
0.001040416
3.2051496e-05
0.0010387301
3.2655682e-05
0.0010362941
3.3194677e-05
0.0010330365
3.3603543e-05
0.0010290104
3.3821332e-05
0.0010243688
3.3821607e-05
0.0010193235
3.3595917e-05
0.0010140734
3.3181286e-05
0.0010087579
3.2645359e-05
0.0010034535
3.2049183e-05
0.00099819546
3.1433579e-05
0.00099300231
3.0818826e-05
0.00098788751
3.0209701e-05
0.00098286086
2.960934e-05
0.00097792773
2.9022511e-05
0.00097309042
2.8450942e-05
0.00096834951
2.7895903e-05
0.00096370464
2.7357735e-05
0.00095915478
2.6836297e-05
0.00095469831
2.6331751e-05
0.0009503333
2.584358e-05
0.00094605759
2.5371458e-05
0.00094186889
2.4914983e-05
0.00093776481
2.4473685e-05
0.00093374295
2.4047119e-05
0.00092980085
2.3634809e-05
0.00092593611
2.3236298e-05
0.00092214632
2.2851145e-05
0.00091842912
2.2478938e-05
0.00091478217
2.21193e-05
0.00091120319
2.177189e-05
0.00090768992
2.1436459e-05
0.00090424014
2.1112772e-05
0.00090085164
2.0800906e-05
0.00089752223
2.0500659e-05
0.00089424957
2.0213356e-05
0.00089103154
1.9937796e-05
0.00088786491
1.9681303e-05
0.00088474826
1.9434398e-05
0.00088167375
1.9235555e-05
0.00087864578
1.9025738e-05
0.00087562197
1.9051376e-05
0.00087273319
1.8496523e-05
0.00086921932
2.1635682e-05
1.7134425e-05
0.0010749677
2.0167099e-06
-0.0010750343
0.0010749215
2.4887998e-06
0.0010748904
3.0034981e-06
0.0010748707
3.5557144e-06
0.0010748632
4.1567447e-06
0.00107487
4.8132981e-06
0.0010748933
5.5251987e-06
0.0010749349
6.2901475e-06
0.0010749967
7.1034667e-06
0.0010750791
7.9550463e-06
0.0010751819
8.8315451e-06
0.0010753035
9.71748e-06
0.0010754414
1.0596423e-05
0.0010755923
1.1452674e-05
0.0010757527
1.2273309e-05
0.0010759186
1.3046581e-05
0.0010760869
1.3766081e-05
0.0010762546
1.4426468e-05
0.0010764187
1.5023715e-05
0.0010765771
1.5558636e-05
0.0010767286
1.6034208e-05
0.0010768717
1.6450489e-05
0.001077005
1.6807594e-05
0.001077127
1.7109244e-05
0.0010772368
1.736272e-05
0.0010773339
1.7577195e-05
0.0010774183
1.7763935e-05
0.0010774903
1.7936643e-05
0.001077551
1.8111501e-05
0.0010776024
1.8306522e-05
0.0010776468
1.8535788e-05
0.0010776867
1.880866e-05
0.0010777245
1.9130832e-05
0.0010777619
1.9499701e-05
0.0010777998
1.9906447e-05
0.0010778382
2.0342434e-05
0.0010778768
2.0800315e-05
0.001077915
2.1275015e-05
0.0010779526
2.1766433e-05
0.0010779896
2.2275131e-05
0.0010780257
2.2800547e-05
0.0010780609
2.3341686e-05
0.0010780947
2.3894996e-05
0.0010781265
2.4458983e-05
0.0010781559
2.5034971e-05
0.0010781823
2.5624626e-05
0.0010782052
2.622754e-05
0.0010782233
2.6842342e-05
0.0010782352
2.747051e-05
0.001078239
2.8113633e-05
0.0010782321
2.8771546e-05
0.0010782102
2.9441955e-05
0.0010781661
3.012485e-05
0.0010780908
3.0822265e-05
0.0010779682
3.1532026e-05
0.0010777701
3.2249572e-05
0.0010774532
3.2972578e-05
0.0010769498
3.3698137e-05
0.0010761409
3.44124e-05
0.0010748666
3.5095681e-05
0.0010729581
3.5730039e-05
0.0010702926
3.6261461e-05
0.0010668473
3.6626609e-05
0.0010627061
3.6786542e-05
0.0010580401
3.6715212e-05
0.0010530454
3.6428237e-05
0.0010478838
3.5980414e-05
0.0010426598
3.5433717e-05
0.0010374308
3.4838307e-05
0.0010322296
3.4223775e-05
0.0010270785
3.3602064e-05
0.0010219935
3.2980883e-05
0.001016985
3.2366204e-05
0.0010120593
3.1762039e-05
0.0010072199
3.1171153e-05
0.0010024688
3.0594657e-05
0.00099780677
3.003347e-05
0.00099323366
2.9488095e-05
0.00098874866
2.8958688e-05
0.00098435053
2.8445247e-05
0.00098003772
2.794762e-05
0.00097580844
2.7465573e-05
0.00097166076
2.6998826e-05
0.00096759262
2.6547074e-05
0.00096360191
2.6110014e-05
0.00095968645
2.568735e-05
0.00095584404
2.5278867e-05
0.00095207246
2.4884348e-05
0.00094836945
2.4503917e-05
0.00094473275
2.4137359e-05
0.0009411599
2.3786209e-05
0.00093764865
2.3449047e-05
0.00093419563
2.3134322e-05
0.00093079923
2.2830798e-05
0.00092745136
2.2583425e-05
0.00092415656
2.2320534e-05
0.00092086993
2.2338007e-05
0.00091773407
2.163239e-05
0.00091391864
2.5451107e-05
1.9828617e-05
0.0011109099
2.0821742e-06
-0.0011109753
0.0011108628
2.535889e-06
0.0011108305
3.0358171e-06
0.00111081
3.5761663e-06
0.001110802
4.1647633e-06
0.0011108084
4.8069296e-06
0.001110831
5.5025598e-06
0.0011108718
6.2493889e-06
0.0011109323
7.0429105e-06
0.0011110134
7.8739654e-06
0.0011111147
8.7302048e-06
0.001111235
9.5972231e-06
0.0011113718
1.0459617e-05
0.001111522
1.1302443e-05
0.0011116823
1.2113051e-05
0.0011118488
1.288007e-05
0.0011120183
1.359654e-05
0.0011121878
1.425698e-05
0.0011123543
1.4857253e-05
0.0011125155
1.5397391e-05
0.0011126701
1.5879606e-05
0.0011128166
1.6304025e-05
0.0011129533
1.6670897e-05
0.0011130788
1.6983707e-05
0.0011131923
1.7249283e-05
0.0011132931
1.7476411e-05
0.0011133811
1.7675933e-05
0.0011134566
1.7861056e-05
0.0011135209
1.8047275e-05
0.0011135757
1.8251702e-05
0.0011136234
1.8488068e-05
0.0011136664
1.8765644e-05
0.0011137072
1.9090062e-05
0.0011137475
1.9459394e-05
0.0011137882
1.9865783e-05
0.0011138294
2.0301201e-05
0.001113871
2.0758759e-05
0.0011139124
2.1233605e-05
0.0011139534
2.1725359e-05
0.0011139941
2.2234441e-05
0.0011140344
2.2760263e-05
0.0011140743
2.330183e-05
0.0011141134
2.3855911e-05
0.0011141513
2.4421057e-05
0.0011141878
2.4998459e-05
0.0011142227
2.5589694e-05
0.0011142558
2.6194483e-05
0.0011142865
2.6811665e-05
0.0011143143
2.7442712e-05
0.0011143386
2.8089282e-05
0.0011143587
2.8751434e-05
0.0011143732
2.9427444e-05
0.0011143802
3.0117846e-05
0.0011143774
3.0825054e-05
0.0011143614
3.1548114e-05
0.0011143262
3.2284755e-05
0.0011142632
3.3035518e-05
0.0011141601
3.3801264e-05
0.0011139945
3.4578054e-05
0.0011137291
3.536102e-05
0.0011133102
3.6148943e-05
0.0011126417
3.6929998e-05
0.001111583
3.7685332e-05
0.0011099728
3.8396731e-05
0.0011076703