/*--------------------------------*- C++ -*----------------------------------*\
  =========                 |
  \\      /  F ield         | OpenFOAM: The Open Source CFD Toolbox
   \\    /   O peration     | Website:  https://openfoam.org
    \\  /    A nd           | Version:  12
     \\/     M anipulation  |
\*---------------------------------------------------------------------------*/
FoamFile
{
    format      ascii;
    class       volVectorField;
    location    "1000";
    object      wallShearStress;
}
// * * * * * * * * * * * * * * * * * * * * * * * * * * * * * * * * * * * * * //

dimensions      [0 2 -2 0 0 0 0];

internalField   uniform (0 0 0);

boundaryField
{
    inlet
    {
        type            calculated;
        value           uniform (0 0 0);
    }
    top
    {
        type            calculated;
        value           uniform (0 0 0);
    }
    outlet
    {
        type            calculated;
        value           uniform (0 0 0);
    }
    slipsurface
    {
        type            calculated;
        value           uniform (0 0 0);
    }
    bottom
    {
        type            calculated;
        value           nonuniform List<vector> 
100
(
(-0.00062337004 -3.5695685e-07 1.5247264e-21)
(-0.00072222558 -4.8972251e-07 3.4646109e-23)
(-0.00084166091 -8.0416582e-07 0)
(-0.0009762634 -1.2130257e-06 8.6897973e-21)
(-0.0011241321 -1.7420096e-06 4.7368632e-20)
(-0.0012828878 -2.29106e-06 -4.7719956e-20)
(-0.001448813 -2.8460742e-06 4.6778147e-22)
(-0.001616898 -3.8070863e-06 1.3917945e-19)
(-0.0017810508 -4.9346688e-06 0)
(-0.0019346623 -6.1539109e-06 3.9205603e-19)
(-0.0020713346 -7.4022843e-06 0)
(-0.0021860008 -8.6009966e-06 -6.1731617e-19)
(-0.0022754226 -9.6677888e-06 0)
(-0.0023384355 -1.0512531e-05 1.1933077e-18)
(-0.0023757314 -1.1162662e-05 -2.2405371e-22)
(-0.0023898421 -1.1390611e-05 1.3786591e-18)
(-0.0023829272 -1.1411197e-05 0)
(-0.0023649988 -1.1182153e-05 0)
(-0.0023255878 -1.0664577e-05 3.9279512e-19)
(-0.0022818257 -9.9922414e-06 3.6009882e-19)
(-0.0022325073 -9.1702606e-06 6.4845165e-19)
(-0.0021801105 -8.2281719e-06 0)
(-0.0021269263 -7.2226432e-06 -4.1060264e-19)
(-0.0020748276 -6.2070635e-06 0)
(-0.0020253221 -5.2115311e-06 1.0183656e-19)
(-0.0019796252 -4.2632468e-06 0)
(-0.0019386755 -3.3817474e-06 -0)
(-0.0019031416 -2.5910609e-06 0)
(-0.0018733973 -1.9162313e-06 -5.4883971e-21)
(-0.001849406 -1.3784351e-06 -4.6250987e-20)
(-0.001830625 -9.9445702e-07 0)
(-0.0018160267 -7.6025201e-07 7.0375753e-20)
(-0.0018042327 -6.5111568e-07 -6.038493e-20)
(-0.0017938151 -6.2943738e-07 0)
(-0.0017836495 -6.5234562e-07 0)
(-0.0017731064 -6.8371565e-07 9.8292681e-21)
(-0.0017620259 -7.0139931e-07 0)
(-0.0017505476 -6.9761405e-07 0)
(-0.0017388942 -6.7808114e-07 0)
(-0.0017272144 -6.5357334e-07 -0)
(-0.0017155439 -6.3226337e-07 -0)
(-0.0017038525 -6.1659056e-07 -0)
(-0.0016921193 -6.0411228e-07 -0)
(-0.0016803757 -5.9134737e-07 0)
(-0.0016686921 -5.7637304e-07 -0)
(-0.001657138 -5.5902084e-07 -0)
(-0.0016457546 -5.4015965e-07 0)
(-0.0016345537 -5.2072969e-07 0)
(-0.0016235344 -5.0132781e-07 0)
(-0.0016126955 -4.8209442e-07 -0)
(-0.0016020385 -4.6304145e-07 0)
(-0.0015915643 -4.4421735e-07 0)
(-0.0015812727 -4.2581804e-07 0)
(-0.0015711601 -4.0806775e-07 -0)
(-0.0015612215 -3.9097472e-07 0)
(-0.0015514534 -3.7447097e-07 0)
(-0.0015418532 -3.5859158e-07 0)
(-0.0015324162 -3.4339584e-07 0)
(-0.0015231375 -3.2881759e-07 0)
(-0.0015140146 -3.148158e-07 -0)
(-0.0015050434 -3.0147328e-07 0)
(-0.0014962177 -2.8874911e-07 0)
(-0.0014875329 -2.7658834e-07 0)
(-0.0014789851 -2.6500071e-07 0)
(-0.00147057 -2.5392967e-07 0)
(-0.0014622843 -2.4333538e-07 0)
(-0.0014541246 -2.3323071e-07 0)
(-0.0014460871 -2.235771e-07 0)
(-0.0014381684 -2.1434719e-07 -0)
(-0.0014303652 -2.055443e-07 -0)
(-0.0014226739 -1.9713624e-07 -0)
(-0.0014150913 -1.8910657e-07 0)
(-0.0014076144 -1.8143987e-07 0)
(-0.0014002401 -1.7411367e-07 0)
(-0.0013929653 -1.6711402e-07 0)
(-0.0013857872 -1.6042155e-07 0)
(-0.0013787033 -1.5402251e-07 0)
(-0.001371711 -1.4790362e-07 0)
(-0.0013648076 -1.4205099e-07 0)
(-0.0013579908 -1.3645208e-07 0)
(-0.0013512582 -1.3109461e-07 0)
(-0.0013446076 -1.2596713e-07 0)
(-0.0013380367 -1.2105906e-07 0)
(-0.0013315435 -1.1636039e-07 0)
(-0.0013251257 -1.1186177e-07 -0)
(-0.0013187813 -1.0755456e-07 0)
(-0.0013125083 -1.0343078e-07 -0)
(-0.0013063046 -9.9483541e-08 -0)
(-0.0013001683 -9.570666e-08 0)
(-0.0012940966 -9.2095819e-08 0)
(-0.0012880883 -8.8645563e-08 0)
(-0.0012821385 -8.5360852e-08 0)
(-0.0012762492 -8.2235986e-08 0)
(-0.0012704034 -7.9314439e-08 0)
(-0.0012646256 -7.6544083e-08 0)
(-0.0012588332 -7.4309652e-08 0)
(-0.001253177 -7.038586e-08 1.577242e-23)
(-0.0012472008 -1.0884823e-07 -1.7331574e-22)
(-0.0012422218 -7.3142002e-08 5.5057041e-22)
(-0.0012329586 -1.1034323e-07 2.1423161e-20)
)
;
    }
    frontandback
    {
        type            empty;
    }
}


// ************************************************************************* //
