/*--------------------------------*- C++ -*----------------------------------*\
  =========                 |
  \\      /  F ield         | OpenFOAM: The Open Source CFD Toolbox
   \\    /   O peration     | Website:  https://openfoam.org
    \\  /    A nd           | Version:  12
     \\/     M anipulation  |
\*---------------------------------------------------------------------------*/
FoamFile
{
    format      ascii;
    class       volScalarField;
    location    "500";
    object      epsilon;
}
// * * * * * * * * * * * * * * * * * * * * * * * * * * * * * * * * * * * * * //

dimensions      [0 2 -3 0 0 0 0];

internalField   nonuniform List<scalar> 
7480
(
0.016411643
0.067507945
0.16465216
0.29468248
0.43291894
0.55688224
0.65321254
0.71810039
0.75439216
0.76801472
0.76536041
0.7519364
0.73194742
0.70836348
0.68317048
0.65765113
0.63264108
0.60871315
0.58624629
0.56551292
0.54672733
0.53006777
0.51567431
0.50363708
0.49398249
0.48662258
0.48125778
0.47746611
0.47468631
0.47232224
0.46989053
0.46711399
0.46392453
0.46041291
0.45671902
0.45295225
0.44915789
0.44532964
0.44144393
0.43749196
0.43349301
0.42948494
0.4255062
0.42158101
0.41771736
0.41391504
0.41017365
0.40649466
0.40287972
0.39932938
0.39584277
0.39241801
0.3890532
0.3857471
0.38249858
0.37930583
0.37616686
0.37308027
0.37004534
0.3670602
0.36412305
0.36123236
0.35838669
0.35558478
0.35282562
0.35010817
0.34743136
0.34479421
0.34219566
0.33963473
0.33711047
0.3346219
0.33216812
0.32974827
0.32736148
0.32500692
0.32268381
0.32039136
0.31812885
0.31589554
0.31369073
0.31151374
0.3093639
0.30724056
0.3051431
0.3030709
0.30102333
0.29899978
0.29699964
0.29502218
0.29306687
0.29113245
0.2892192
0.28732263
0.28544932
0.28357542
0.281749
0.27982735
0.27820779
0.27523059
0.00023175609
0.0010098639
0.0033064764
0.0078024745
0.014434078
0.022793542
0.031967075
0.040808881
0.048517522
0.054741229
0.059455406
0.062949934
0.065728831
0.068319517
0.071260631
0.075117792
0.080782039
0.088423562
0.096812597
0.10596417
0.11607464
0.12725201
0.13939929
0.15217
0.16514559
0.17765611
0.188838
0.19785859
0.20410882
0.20740637
0.20804718
0.20667775
0.20407541
0.20093957
0.19775
0.19472883
0.19190604
0.18922365
0.18661969
0.18407168
0.18159647
0.17922444
0.17697372
0.17484486
0.17282227
0.17088695
0.16902481
0.1672271
0.1654872
0.16379878
0.16215623
0.16055515
0.15899214
0.15746424
0.15596882
0.1545037
0.15306722
0.15165809
0.15027493
0.14891719
0.14758384
0.14627391
0.14498663
0.14372138
0.14247763
0.14125485
0.14005249
0.13887003
0.13770696
0.1365628
0.13543708
0.13432936
0.13323921
0.13216622
0.13110997
0.13007007
0.12904613
0.12803778
0.12704465
0.12606637
0.12510258
0.12415295
0.12321713
0.12229479
0.1213856
0.12048925
0.11960542
0.11873379
0.11787406
0.1170259
0.11618901
0.115363
0.11454761
0.11374211
0.11294679
0.11215875
0.11138322
0.11059658
0.10990008
0.10870184
3.0412614e-05
6.3171659e-05
0.00012822161
0.00023037029
0.00037063159
0.00055033437
0.00076913461
0.0010229912
0.0013042727
0.0016025687
0.001906172
0.0022046683
0.0024914725
0.0027655484
0.0030331954
0.0033082257
0.0036205243
0.0040096589
0.0045175321
0.005196413
0.0061137206
0.0073541223
0.009045147
0.011450985
0.014766545
0.019259634
0.025741722
0.033505625
0.042283848
0.05175563
0.061390576
0.070591586
0.078787212
0.085498119
0.090460817
0.09369828
0.095467025
0.096159822
0.096186029
0.095877865
0.095440231
0.09495928
0.094450146
0.093899304
0.09330111
0.092665823
0.09201128
0.091351839
0.09069354
0.090036345
0.089378726
0.088720247
0.088061495
0.087403098
0.086745356
0.086088426
0.085432531
0.084777999
0.084125102
0.083474171
0.082825723
0.082180249
0.081538185
0.080899935
0.080265891
0.079636407
0.079011782
0.07839228
0.077778134
0.077169546
0.076566701
0.075969757
0.075378854
0.074794111
0.074215625
0.073643475
0.073077722
0.072518408
0.071965558
0.071419183
0.070879278
0.070345829
0.06981881
0.069298186
0.068783912
0.068275935
0.067774193
0.067278617
0.066789129
0.066305647
0.065828071
0.065356315
0.06489022
0.064429744
0.063974502
0.063524694
0.063079871
0.062633901
0.062238028
0.061553873
1.9505463e-05
2.3600681e-05
3.1333971e-05
4.2658263e-05
5.7219863e-05
7.4723684e-05
9.4953243e-05
0.00011768299
0.00014262077
0.00016939849
0.00019758238
0.00022670521
0.00025632429
0.00028607954
0.00031575671
0.000345313
0.00037505547
0.00040561082
0.00043817587
0.00047466057
0.0005175078
0.00057067416
0.00063948013
0.000732741
0.00086420595
0.001052497
0.0013438656
0.0017879981
0.0024546964
0.0034260646
0.0048715814
0.0069569332
0.0098306681
0.013941962
0.018878245
0.02437579
0.030076997
0.035624345
0.040670105
0.044931968
0.048270934
0.05070911
0.052395539
0.053539132
0.054337826
0.05492945
0.055384322
0.055726765
0.05596442
0.056107326
0.056171672
0.0561745
0.056128507
0.05604129
0.055917674
0.055761835
0.055577872
0.055369501
0.055139798
0.054891262
0.054626149
0.054346552
0.054054368
0.053751292
0.053438837
0.053118357
0.052791064
0.052458048
0.05212029
0.051778672
0.051433991
0.051086971
0.050738267
0.05038847
0.050038115
0.049687684
0.04933761
0.04898828
0.048640038
0.048293192
0.047948012
0.047604741
0.04726359
0.046924747
0.046588374
0.04625461
0.045923575
0.045595371
0.04527008
0.044947776
0.044628501
0.044312324
0.043999205
0.043689323
0.043382293
0.043078949
0.042778031
0.042477458
0.042211907
0.041748958
1.820172e-05
1.8917057e-05
2.0482428e-05
2.2970424e-05
2.6308624e-05
3.0386641e-05
3.5105838e-05
4.0388013e-05
4.6168562e-05
5.2388818e-05
5.8991466e-05
6.5918158e-05
7.3110153e-05
8.0510773e-05
8.8069314e-05
9.5743443e-05
0.00010350775
0.0001113577
0.00011931948
0.00012747258
0.00013592908
0.00014490643
0.0001546921
0.00016571489
0.00017863421
0.00019428583
0.00021422897
0.00024065976
0.00027673928
0.00032693421
0.00039891741
0.00050534135
0.00066418271
0.00091710819
0.0013171343
0.0019232422
0.0028710355
0.0042580333
0.0062193713
0.0089069536
0.012110673
0.015623685
0.019214266
0.02265057
0.025729057
0.028327737
0.03041977
0.032061347
0.033353538
0.034396613
0.035261175
0.035984682
0.036584802
0.037074304
0.037467817
0.037780678
0.038025757
0.038212421
0.038347688
0.038437514
0.03848732
0.038501922
0.03848545
0.038441448
0.038373044
0.038283025
0.038173856
0.038047726
0.037906585
0.037752174
0.037586063
0.037409662
0.037224239
0.037030945
0.036830815
0.036624788
0.036413711
0.036198351
0.035979398
0.035757476
0.035533146
0.035306917
0.035079246
0.034850545
0.034621184
0.034391496
0.034161776
0.03393229
0.033703275
0.033474945
0.033247478
0.033021064
0.032795794
0.03257195
0.032349297
0.032128739
0.031909236
0.031689585
0.031497125
0.031156935
1.7939669e-05
1.8075066e-05
1.8420758e-05
1.9066298e-05
2.0045412e-05
2.1347538e-05
2.2941564e-05
2.4792393e-05
2.686818e-05
2.9141853e-05
3.1590399e-05
3.4193685e-05
3.6933482e-05
3.9792856e-05
4.2756063e-05
4.5808577e-05
4.8937655e-05
5.2132961e-05
5.5387422e-05
5.8700026e-05
6.2075371e-05
6.5528948e-05
6.9088077e-05
7.2795189e-05
7.6716371e-05
8.0942735e-05
8.5608032e-05
9.0923135e-05
9.7169538e-05
0.00010472898
0.00011414526
0.0001262379
0.00014207013
0.00016355948
0.00019361272
0.00023620594
0.00029883055
0.00039264085
0.00053628558
0.0007656578
0.0011240893
0.0016944691
0.0025598385
0.0038139961
0.0055467497
0.0076517587
0.0099940619
0.012426174
0.014793119
0.016963502
0.018858674
0.020461095
0.021801976
0.022932962
0.023900111
0.024732974
0.025448296
0.026058343
0.026575627
0.027012638
0.027380094
0.027686447
0.027938605
0.028142658
0.028304071
0.028427628
0.028517466
0.02857722
0.028610123
0.028619048
0.028606553
0.028574922
0.028526203
0.028462238
0.028384686
0.02829504
0.028194649
0.028084732
0.02796639
0.027840618
0.027708317
0.027570301
0.02742731
0.027280011
0.027129008
0.026974846
0.026818021
0.026658976
0.026498115
0.026335805
0.026172366
0.026008116
0.025843278
0.025678222
0.025512893
0.025348143
0.025183337
0.025017406
0.024873267
0.024613649
1.7798792e-05
1.7838446e-05
1.7921259e-05
1.8087426e-05
1.8373581e-05
1.8802258e-05
1.9380489e-05
2.0103793e-05
2.0961964e-05
2.194283e-05
2.3034273e-05
2.4225093e-05
2.5505228e-05
2.6865672e-05
2.8298309e-05
2.9795761e-05
3.1351329e-05
3.2958991e-05
3.4613468e-05
3.6310594e-05
3.8047489e-05
3.982317e-05
4.1639184e-05
4.3500132e-05
4.5415054e-05
4.7398639e-05
4.9472392e-05
5.1669856e-05
5.4038332e-05
5.6642223e-05
5.9567573e-05
6.2935468e-05
6.6888203e-05
7.1636266e-05
7.7496224e-05
8.4872099e-05
9.4399959e-05
0.00010696784
0.00012386223
0.00014727264
0.00018043609
0.00022924905
0.00030284417
0.00041630421
0.00059758298
0.00088053753
0.001337451
0.0020241773
0.0030448768
0.0043634616
0.0059221215
0.0076298474
0.0093802523
0.011069469
0.01262026
0.013995352
0.015195382
0.016242034
0.017159551
0.017965366
0.018670835
0.019285476
0.019819063
0.020281063
0.020679654
0.02102166
0.021313029
0.021559119
0.02176471
0.021934008
0.022070742
0.022178244
0.022259497
0.022317173
0.022353672
0.022371151
0.022371558
0.022356645
0.022328
0.022287054
0.022235106
0.022173329
0.02210279
0.022024452
0.021939189
0.021847794
0.021750984
0.021649412
0.021543667
0.021434289
0.021321758
0.021206532
0.021088979
0.020969565
0.020848417
0.020726341
0.020603083
0.020477618
0.020369452
0.020169511
1.7651943e-05
1.7678335e-05
1.7711664e-05
1.7762806e-05
1.7848188e-05
1.798467e-05
1.8185869e-05
1.8460765e-05
1.8813204e-05
1.9243e-05
1.9747344e-05
2.0321998e-05
2.0962113e-05
2.1662733e-05
2.2419058e-05
2.3226549e-05
2.4080969e-05
2.4978387e-05
2.5915182e-05
2.6888093e-05
2.7894265e-05
2.8931352e-05
2.9997679e-05
3.1092409e-05
3.2215818e-05
3.3369714e-05
3.4557686e-05
3.5785903e-05
3.7063918e-05
3.8405369e-05
3.9829136e-05
4.1358567e-05
4.3037414e-05
4.49143e-05
4.7052171e-05
4.9528839e-05
5.2456447e-05
5.5982494e-05
6.0291126e-05
6.5648414e-05
7.2436819e-05
8.1246711e-05
9.2951528e-05
0.00010884136
0.00013107508
0.00016284986
0.00021051035
0.00028287678
0.00039833168
0.0005804387
0.00087284438
0.0013248048
0.002008043
0.0029206724
0.0040327038
0.0052861927
0.0066064111
0.0079162288
0.0091532369
0.010282684
0.011296855
0.012203479
0.013013423
0.013735208
0.014375579
0.014941365
0.015439739
0.015877466
0.01626049
0.016594096
0.016883107
0.017131903
0.017344417
0.017524181
0.017674387
0.017797915
0.017897366
0.017975088
0.018033209
0.018073653
0.018098164
0.018108323
0.018105566
0.018091192
0.018066383
0.018032211
0.017989648
0.01793958
0.017882811
0.017820071
0.017752024
0.017679286
0.017602382
0.017521893
0.017438128
0.017351882
0.01726322
0.017171243
0.017092422
0.016940903
1.7486532e-05
1.7510967e-05
1.7536469e-05
1.7564612e-05
1.7600111e-05
1.7649853e-05
1.7721751e-05
1.7823614e-05
1.7962075e-05
1.8141964e-05
1.8366166e-05
1.8635847e-05
1.8950819e-05
1.9309947e-05
1.9711489e-05
2.0153344e-05
2.0633241e-05
2.1148847e-05
2.1697847e-05
2.2278006e-05
2.2887207e-05
2.3523498e-05
2.4185148e-05
2.4870709e-05
2.5579108e-05
2.6309776e-05
2.7062766e-05
2.7838934e-05
2.8640201e-05
2.946979e-05
3.0332669e-05
3.123519e-05
3.2187977e-05
3.3205167e-05
3.4304975e-05
3.550947e-05
3.684777e-05
3.8354994e-05
4.0085892e-05
4.2106741e-05
4.4499559e-05
4.7374151e-05
5.088576e-05
5.5241553e-05
6.0734459e-05
6.7774882e-05
7.7076483e-05
8.960265e-05
0.00010707686
0.00013202187
0.00016909121
0.00022531518
0.00031451001
0.00045519476
0.00068086099
0.0010327857
0.0015601456
0.0022650484
0.0031257776
0.0041016419
0.0051364903
0.006171998
0.0071619668
0.0080809421
0.0089215684
0.0096856414
0.01037697
0.010999245
0.0115566
0.012053889
0.012496134
0.012888047
0.013233995
0.013538064
0.013804047
0.014035419
0.014235357
0.014406765
0.014552295
0.014674362
0.014775167
0.014856715
0.014920832
0.014969177
0.015003263
0.015024466
0.015034039
0.015033124
0.015022759
0.015003892
0.014977382
0.014944026
0.014904522
0.014859583
0.014809703
0.014755705
0.014697916
0.014635677
0.014582557
0.014473184
1.7303814e-05
1.7327369e-05
1.7351405e-05
1.7375483e-05
1.7400563e-05
1.7428634e-05
1.7462611e-05
1.75062e-05
1.7563549e-05
1.7638797e-05
1.7735665e-05
1.7857191e-05
1.8005601e-05
1.8182314e-05
1.8388028e-05
1.8622843e-05
1.888639e-05
1.9177957e-05
1.9496585e-05
1.984116e-05
2.0210477e-05
2.0603299e-05
2.10184e-05
2.1454617e-05
2.19109e-05
2.2386368e-05
2.288037e-05
2.3392552e-05
2.392295e-05
2.4472085e-05
2.5041125e-05
2.5631854e-05
2.624719e-05
2.6891454e-05
2.7570636e-05
2.8292391e-05
2.9066681e-05
2.9905517e-05
3.0825561e-05
3.1848042e-05
3.2999068e-05
3.4310491e-05
3.5822879e-05
3.758895e-05
3.9691579e-05
4.2221921e-05
4.5315327e-05
4.9155546e-05
5.4016237e-05
6.0266758e-05
6.8528316e-05
7.9686062e-05
9.5286341e-05
0.00011764214
0.00015092059
0.00020179568
0.00028248432
0.00040930595
0.00061304004
0.00093095455
0.0013872742
0.0019830218
0.0026991703
0.0035005266
0.0043417669
0.0051789513
0.0059807898
0.0067314093
0.0074255385
0.0080624275
0.0086428314
0.0091685969
0.0096426027
0.010068256
0.01044904
0.01078837
0.01108956
0.01135577
0.011589963
0.0117949
0.011973143
0.012127057
0.012258818
0.012370425
0.012463711
0.012540357
0.0126019
0.012649746
0.01268518
0.012709378
0.012723411
0.012728268
0.012724833
0.012713969
0.012696357
0.012672884
0.01264409
0.012609669
0.012580312
0.012509641
1.7105741e-05
1.712849e-05
1.7151782e-05
1.7174883e-05
1.7197869e-05
1.7221198e-05
1.7245676e-05
1.7272549e-05
1.7303529e-05
1.7340716e-05
1.7386444e-05
1.7443105e-05
1.7512979e-05
1.7598091e-05
1.7700123e-05
1.7820371e-05
1.7959742e-05
1.8118784e-05
1.8297721e-05
1.8496515e-05
1.871491e-05
1.8952488e-05
1.9208711e-05
1.9482966e-05
1.9774611e-05
2.0083012e-05
2.0407584e-05
2.0747833e-05
2.1103399e-05
2.1474104e-05
2.186001e-05
2.2261457e-05
2.2679172e-05
2.3114413e-05
2.356913e-05
2.4046049e-05
2.4548875e-05
2.5082288e-05
2.5652454e-05
2.6267356e-05
2.6937047e-05
2.767379e-05
2.8492607e-05
2.9411675e-05
3.0456659e-05
3.1658234e-05
3.3054624e-05
3.4696401e-05
3.6652079e-05
3.9022926e-05
4.1942386e-05
4.558931e-05
5.0240878e-05
5.6274914e-05
6.430633e-05
7.5271449e-05
9.0753638e-05
0.00011319118
0.0001469268
0.00019957503
0.00028256152
0.00041463611
0.00062412918
0.00093795496
0.0013665804
0.001904263
0.0025305947
0.0032124445
0.0039126405
0.0046007867
0.0052581258
0.005875521
0.0064490529
0.006977239
0.0074602092
0.0078993473
0.0082967715
0.0086549237
0.008976385
0.0092637753
0.0095196683
0.0097465392
0.009946739
0.010122481
0.010275833
0.010408718
0.010522918
0.010620079
0.010701719
0.010769233
0.010823904
0.010866914
0.010899338
0.010922198
0.01093636
0.010942808
0.010942257
0.01093484
0.010928352
0.010894669
1.689405e-05
1.6916043e-05
1.6938661e-05
1.6961165e-05
1.6983457e-05
1.7005625e-05
1.7027851e-05
1.7050461e-05
1.7073993e-05
1.7099222e-05
1.7127169e-05
1.7159063e-05
1.7196293e-05
1.7240322e-05
1.7292612e-05
1.7354545e-05
1.7427367e-05
1.751214e-05
1.7609726e-05
1.7720779e-05
1.7845752e-05
1.7984912e-05
1.8138367e-05
1.8306086e-05
1.8487934e-05
1.8683698e-05
1.8893117e-05
1.9115912e-05
1.9351816e-05
1.9600601e-05
1.9862107e-05
2.0136276e-05
2.0423188e-05
2.0723123e-05
2.1036637e-05
2.1364635e-05
2.1708464e-05
2.2069959e-05
2.2451583e-05
2.2856576e-05
2.3289128e-05
2.3754484e-05
2.4259125e-05
2.4810804e-05
2.5419545e-05
2.6097805e-05
2.6860526e-05
2.7726552e-05
2.8719348e-05
2.9870813e-05
3.1222553e-05
3.2826872e-05
3.4752923e-05
3.7107129e-05
4.003478e-05
4.3734298e-05
4.8507619e-05
5.4789352e-05
6.3261311e-05
7.5073261e-05
9.2020452e-05
0.00011712063
0.00015567634
0.00021630256
0.00031194836
0.00046486893
0.00069773286
0.0010239226
0.0014444357
0.0019474165
0.0025083475
0.0030968538
0.003686089
0.0042577441
0.0048014013
0.0053115233
0.005785297
0.006221763
0.0066213001
0.0069851099
0.0073148524
0.0076124478
0.0078799444
0.008119422
0.0083329313
0.0085224563
0.0086898913
0.0088370272
0.0089655451
0.009077015
0.0091728969
0.0092545476
0.0093232166
0.0093800814
0.0094261851
0.0094626204
0.0094902471
0.0095097123
0.0095258525
0.0095285437
1.6670391e-05
1.669169e-05
1.6713662e-05
1.6735604e-05
1.675738e-05
1.6778994e-05
1.6800482e-05
1.6821913e-05
1.6843422e-05
1.6865238e-05
1.6887704e-05
1.6911296e-05
1.6936632e-05
1.696446e-05
1.6995634e-05
1.7031081e-05
1.7071761e-05
1.7118625e-05
1.717258e-05
1.7234454e-05
1.7304981e-05
1.7384781e-05
1.7474354e-05
1.7574086e-05
1.7684253e-05
1.7805031e-05
1.7936518e-05
1.8078739e-05
1.8231677e-05
1.839528e-05
1.8569485e-05
1.8754236e-05
1.8949506e-05
1.9155328e-05
1.9371826e-05
1.9599266e-05
1.9838102e-05
2.0089021e-05
2.0353001e-05
2.0631378e-05
2.092594e-05
2.1239004e-05
2.157351e-05
2.1933061e-05
2.2322153e-05
2.2746408e-05
2.3212615e-05
2.3729125e-05
2.4306058e-05
2.4956217e-05
2.5695986e-05
2.6545685e-05
2.7530256e-05
2.8684061e-05
3.0053129e-05
3.1697104e-05
3.3695278e-05
3.6165942e-05
3.9279133e-05
4.3280659e-05
4.8534937e-05
5.5590523e-05
6.5341379e-05
7.9248779e-05
9.9655416e-05
0.00013078014
0.00017949485
0.00025603695
0.00037857791
0.00056523595
0.00082926209
0.001174312
0.0015926471
0.0020649549
0.0025662826
0.0030738662
0.0035713619
0.0040486383
0.0044997275
0.0049212856
0.0053118163
0.0056711159
0.0059998023
0.0062990007
0.0065701488
0.006814858
0.0070348169
0.0072317277
0.0074072643
0.0075630453
0.0077006162
0.0078214419
0.0079268988
0.0080182871
0.0080967995
0.0081636351
0.0082197605
0.0082663888
0.0083053058
0.0083444612
1.6436383e-05
1.6457043e-05
1.6478402e-05
1.6499792e-05
1.6521066e-05
1.6542204e-05
1.6563208e-05
1.6584088e-05
1.6604872e-05
1.6625615e-05
1.664641e-05
1.6667403e-05
1.6688808e-05
1.6710922e-05
1.6734125e-05
1.675888e-05
1.6785725e-05
1.6815259e-05
1.6848119e-05
1.6884961e-05
1.6926439e-05
1.6973184e-05
1.7025782e-05
1.7084771e-05
1.715062e-05
1.7223734e-05
1.7304451e-05
1.7393044e-05
1.7489724e-05
1.7594652e-05
1.7707945e-05
1.7829685e-05
1.7959933e-05
1.8098743e-05
1.8246182e-05
1.8402353e-05
1.8567423e-05
1.8741655e-05
1.8925438e-05
1.9119325e-05
1.9324081e-05
1.9540732e-05
1.9770628e-05
2.0015478e-05
2.0277424e-05
2.0559157e-05
2.0863978e-05
2.1195935e-05
2.1559926e-05
2.1961944e-05
2.2409454e-05
2.2911682e-05
2.3479736e-05
2.4127736e-05
2.4873909e-05
2.5741478e-05
2.6759507e-05
2.7967362e-05
2.9418779e-05
3.1186737e-05
3.3369181e-05
3.611547e-05
3.9645505e-05
4.4279684e-05
5.0501795e-05
5.9085813e-05
7.1312654e-05
8.9199064e-05
0.00011645586
0.00015889547
0.00022565267
0.00033201022
0.00049269752
0.00071951929
0.0010164218
0.0013770321
0.0017848408
0.0022189588
0.0026604298
0.0030953651
0.0035147054
0.003912797
0.0042863244
0.0046336554
0.0049543212
0.0052486166
0.0055173344
0.0057615831
0.0059826575
0.006181949
0.0063608858
0.00652089
0.0066633525
0.0067896162
0.0069009583
0.0069986507
0.0070837134
0.0071579546
0.0072199785
0.0072960868
1.6193608e-05
1.6213677e-05
1.6234454e-05
1.6255307e-05
1.6276082e-05
1.6296749e-05
1.6317299e-05
1.6337731e-05
1.6358047e-05
1.6378256e-05
1.6398377e-05
1.6418445e-05
1.6438518e-05
1.6458688e-05
1.6479088e-05
1.6499902e-05
1.6521364e-05
1.6543766e-05
1.6567449e-05
1.6592805e-05
1.662026e-05
1.6650268e-05
1.6683299e-05
1.671982e-05
1.6760293e-05
1.6805156e-05
1.6854822e-05
1.6909665e-05
1.6970026e-05
1.70362e-05
1.7108446e-05
1.7186981e-05
1.7271986e-05
1.7363614e-05
1.7461998e-05
1.7567262e-05
1.7679534e-05
1.7798968e-05
1.7925758e-05
1.8060162e-05
1.8202531e-05
1.8353336e-05
1.8513203e-05
1.8682953e-05
1.8863628e-05
1.9056555e-05
1.9263387e-05
1.9486171e-05
1.9727409e-05
1.9990141e-05
2.0278098e-05
2.0595861e-05
2.0948957e-05
2.1344143e-05
2.1789847e-05
2.2296626e-05
2.2877452e-05
2.3548754e-05
2.4331883e-05
2.5254816e-05
2.6353284e-05
2.7676601e-05
2.9293623e-05
3.1299169e-05
3.3820658e-05
3.7070542e-05
4.1353164e-05
4.7116252e-05
5.5105371e-05
6.6508695e-05
8.323923e-05
0.00010880175
0.0001484187
0.00021114112
0.00030955975
0.00045675462
0.00066215671
0.00092868659
0.0012495175
0.0016097107
0.0019915414
0.0023794108
0.0027618634
0.0031312005
0.003482475
0.0038127356
0.0041204714
0.0044051668
0.0046669789
0.0049065139
0.005124669
0.0053225177
0.0055012366
0.0056620424
0.0058061676
0.0059348696
0.0060491347
0.0061513585
0.0062368025
0.0063504743
1.5943604e-05
1.5963122e-05
1.5983347e-05
1.6003678e-05
1.6023961e-05
1.6044159e-05
1.6064259e-05
1.6084254e-05
1.6104141e-05
1.6123918e-05
1.6143586e-05
1.6163148e-05
1.6182614e-05
1.6202002e-05
1.6221348e-05
1.6240707e-05
1.6260159e-05
1.6279817e-05
1.6299824e-05
1.6320366e-05
1.6341661e-05
1.6363966e-05
1.6387568e-05
1.6412783e-05
1.6439945e-05
1.6469402e-05
1.6501507e-05
1.653661e-05
1.6575053e-05
1.6617164e-05
1.6663249e-05
1.6713591e-05
1.6768445e-05
1.6828042e-05
1.6892586e-05
1.6962263e-05
1.703724e-05
1.7117681e-05
1.7203749e-05
1.7295622e-05
1.739351e-05
1.7497667e-05
1.7608417e-05
1.7726173e-05
1.7851465e-05
1.7984963e-05
1.8127515e-05
1.828018e-05
1.8444268e-05
1.8621384e-05
1.8813487e-05
1.9022983e-05
1.9252785e-05
1.9506418e-05
1.9788186e-05
2.0103393e-05
2.0458513e-05
2.086149e-05
2.1322262e-05
2.1853461e-05
2.2470848e-05
2.3194778e-05
2.405225e-05
2.5079289e-05
2.6321524e-05
2.7846416e-05
2.9748555e-05
3.2155833e-05
3.5266148e-05
3.9391802e-05
4.4979778e-05
5.2792144e-05
6.3983839e-05
8.0575832e-05
0.00010596508
0.00014530213
0.00020774911
0.00030425279
0.0004458887
0.00064016313
0.00088764721
0.0011802777
0.0015041454
0.0018442231
0.0021878813
0.0025259011
0.0028519897
0.0031620666
0.0034536949
0.0037256176
0.0039774026
0.0042091824
0.00442148
0.0046150594
0.0047908611
0.0049499516
0.0050931317
0.0052233199
0.0053322464
0.0054839023
1.5687843e-05
1.5706845e-05
1.5726548e-05
1.5746374e-05
1.5766175e-05
1.578591e-05
1.5805562e-05
1.5825123e-05
1.5844587e-05
1.5863949e-05
1.5883205e-05
1.5902351e-05
1.5921382e-05
1.5940298e-05
1.5959101e-05
1.59778e-05
1.5996412e-05
1.6014969e-05
1.6033515e-05
1.6052119e-05
1.607087e-05
1.6089882e-05
1.6109299e-05
1.6129289e-05
1.6150047e-05
1.6171793e-05
1.6194766e-05
1.6219221e-05
1.6245427e-05
1.6273656e-05
1.6304182e-05
1.6337275e-05
1.6373196e-05
1.6412192e-05
1.6454497e-05
1.6500329e-05
1.6549893e-05
1.6603379e-05
1.6660967e-05
1.6722833e-05
1.6789154e-05
1.686012e-05
1.6935942e-05
1.7016868e-05
1.7103198e-05
1.7195298e-05
1.7293625e-05
1.7398747e-05
1.7511367e-05
1.7632353e-05
1.7762765e-05
1.7903909e-05
1.8057371e-05
1.8225074e-05
1.8409351e-05
1.8613043e-05
1.8839605e-05
1.9093231e-05
1.9379045e-05
1.9703409e-05
2.0074148e-05
2.050103e-05
2.0996446e-05
2.1576472e-05
2.2261075e-05
2.3077098e-05
2.406103e-05
2.5260465e-05
2.6741558e-05
2.8602331e-05
3.0976887e-05
3.4067018e-05
3.8197103e-05
4.3854267e-05
5.1836693e-05
6.3365745e-05
8.0659825e-05
0.00010719445
0.00014876751
0.00021398069
0.00031296475
0.00045476386
0.00064437646
0.00087948952
0.0011508203
0.0014455036
0.0017510108
0.0020573068
0.0023571312
0.002645518
0.0029192678
0.0031764887
0.003416238
0.0036382227
0.003842637
0.0040300245
0.004200734
0.0043580484
0.0044899442
0.0046794213
1.5427727e-05
1.5446245e-05
1.5465452e-05
1.5484794e-05
1.5504126e-05
1.5523407e-05
1.5542618e-05
1.5561749e-05
1.5580793e-05
1.5599744e-05
1.5618596e-05
1.5637343e-05
1.5655978e-05
1.5674494e-05
1.5692886e-05
1.5711147e-05
1.5729274e-05
1.5747269e-05
1.5765137e-05
1.5782893e-05
1.5800562e-05
1.5818183e-05
1.5835811e-05
1.5853517e-05
1.5871395e-05
1.5889557e-05
1.5908135e-05
1.5927284e-05
1.5947174e-05
1.5967992e-05
1.5989936e-05
1.6013213e-05
1.6038037e-05
1.606462e-05
1.6093174e-05
1.6123909e-05
1.6157026e-05
1.619272e-05
1.6231179e-05
1.6272584e-05
1.6317108e-05
1.6364926e-05
1.6416216e-05
1.6471163e-05
1.6529975e-05
1.6592885e-05
1.6660169e-05
1.6732155e-05
1.6809244e-05
1.6891921e-05
1.698078e-05
1.7076548e-05
1.7180111e-05
1.7292545e-05
1.7415155e-05
1.7549526e-05
1.7697581e-05
1.7861644e-05
1.8044533e-05
1.8249687e-05
1.8481301e-05
1.8744516e-05
1.9045679e-05
1.93928e-05
1.9795766e-05
2.0267129e-05
2.0823305e-05
2.1485333e-05
2.228064e-05
2.3247215e-05
2.4435821e-05
2.591609e-05
2.7791607e-05
3.0210527e-05
3.3392304e-05
3.7684306e-05
4.3641591e-05
5.2137501e-05
6.4613963e-05
8.3490043e-05
0.00011265836
0.00015855505
0.00022955377
0.00033450661
0.00048044101
0.00066901745
0.00089517386
0.0011488913
0.0014186945
0.0016944337
0.0019683036
0.0022347212
0.0024899173
0.00273149
0.0029580858
0.0031691298
0.0033640547
0.003546193
0.0036994909
0.0039254799
1.5164575e-05
1.5182638e-05
1.5201375e-05
1.5220253e-05
1.5239133e-05
1.5257971e-05
1.527675e-05
1.5295459e-05
1.531409e-05
1.5332635e-05
1.5351088e-05
1.5369443e-05
1.5387691e-05
1.5405825e-05
1.5423837e-05
1.5441717e-05
1.5459457e-05
1.5477048e-05
1.5494483e-05
1.5511757e-05
1.5528869e-05
1.5545825e-05
1.5562636e-05
1.5579324e-05
1.5595922e-05
1.5612476e-05
1.5629046e-05
1.5645707e-05
1.5662551e-05
1.5679684e-05
1.5697226e-05
1.571531e-05
1.573408e-05
1.575369e-05
1.5774298e-05
1.5796071e-05
1.5819177e-05
1.5843783e-05
1.587006e-05
1.5898172e-05
1.5928284e-05
1.5960556e-05
1.599515e-05
1.6032226e-05
1.6071953e-05
1.6114506e-05
1.6160079e-05
1.6208889e-05
1.6261185e-05
1.6317262e-05
1.6377469e-05
1.6442228e-05
1.651205e-05
1.6587551e-05
1.6669479e-05
1.675874e-05
1.6856432e-05
1.6963884e-05
1.70827e-05
1.7214826e-05
1.7362619e-05
1.7528945e-05
1.7717295e-05
1.7931978e-05
1.8178284e-05
1.8462744e-05
1.8793621e-05
1.9181332e-05
1.963901e-05
2.0183894e-05
2.0838517e-05
2.1632265e-05
2.2605761e-05
2.3814961e-05
2.5337133e-05
2.7285215e-05
2.982812e-05
3.3213807e-05
3.7847807e-05
4.4372319e-05
5.3809844e-05
6.790296e-05
8.9411095e-05
0.00012312986
0.00017573088
0.00025516991
0.00036898757
0.00052117514
0.00070994329
0.00092809706
0.0011657247
0.0014131097
0.0016623008
0.0019073599
0.0021441416
0.0023699686
0.0025825769
0.0027847819
0.0029561343
0.0032153505
1.4899618e-05
1.4917253e-05
1.4935546e-05
1.4953981e-05
1.4972425e-05
1.4990837e-05
1.5009196e-05
1.5027494e-05
1.504572e-05
1.5063868e-05
1.508193e-05
1.5099899e-05
1.5117767e-05
1.5135527e-05
1.515317e-05
1.5170685e-05
1.5188064e-05
1.5205295e-05
1.5222368e-05
1.5239271e-05
1.5255996e-05
1.5272535e-05
1.5288883e-05
1.5305039e-05
1.5321009e-05
1.5336803e-05
1.5352441e-05
1.5367952e-05
1.5383376e-05
1.5398762e-05
1.541417e-05
1.5429673e-05
1.5445352e-05
1.54613e-05
1.5477618e-05
1.5494416e-05
1.5511814e-05
1.5529935e-05
1.5548909e-05
1.5568869e-05
1.5589949e-05
1.5612287e-05
1.563602e-05
1.5661286e-05
1.5688227e-05
1.5716986e-05
1.5747715e-05
1.5780574e-05
1.5815739e-05
1.5853405e-05
1.5893796e-05
1.5937173e-05
1.5983844e-05
1.6034175e-05
1.6088607e-05
1.6147671e-05
1.6212006e-05
1.6282385e-05
1.6359743e-05
1.6445209e-05
1.6540148e-05
1.6646214e-05
1.6765406e-05
1.6900166e-05
1.7053471e-05
1.7228954e-05
1.7431105e-05
1.7665504e-05
1.7939064e-05
1.8260539e-05
1.8641102e-05
1.9094938e-05
1.9640655e-05
2.0302997e-05
2.1114717e-05
2.2120645e-05
2.3384133e-05
2.4993022e-05
2.7078813e-05
2.9839503e-05
3.3568605e-05
3.8761142e-05
4.6184151e-05
5.7152908e-05
7.3747831e-05
9.9561632e-05
0.00013992516
0.00020169794
0.00029217504
0.00041649721
0.00057513726
0.00076330331
0.00097277165
0.0011945929
0.0014209817
0.0016460066
0.0018645936
0.0020781364
0.0022613015
0.0025472272
1.4633994e-05
1.4651227e-05
1.46691e-05
1.4687115e-05
1.4705143e-05
1.4723143e-05
1.4741098e-05
1.4758997e-05
1.4776831e-05
1.4794591e-05
1.4812272e-05
1.4829865e-05
1.4847362e-05
1.4864756e-05
1.4882038e-05
1.4899199e-05
1.4916227e-05
1.4933114e-05
1.4949846e-05
1.4966413e-05
1.4982803e-05
1.4999004e-05
1.5015007e-05
1.5030801e-05
1.5046381e-05
1.5061743e-05
1.5076888e-05
1.5091821e-05
1.5106554e-05
1.5121103e-05
1.5135493e-05
1.5149754e-05
1.5163924e-05
1.5178049e-05
1.5192182e-05
1.5206386e-05
1.522073e-05
1.5235292e-05
1.5250157e-05
1.5265416e-05
1.5281165e-05
1.5297507e-05
1.5314545e-05
1.5332389e-05
1.5351151e-05
1.5370947e-05
1.5391894e-05
1.5414119e-05
1.5437751e-05
1.5462932e-05
1.5489816e-05
1.5518578e-05
1.5549415e-05
1.5582556e-05
1.5618269e-05
1.5656876e-05
1.5698757e-05
1.5744371e-05
1.579427e-05
1.584912e-05
1.5909726e-05
1.597706e-05
1.6052296e-05
1.6136859e-05
1.6232478e-05
1.6341257e-05
1.6465758e-05
1.6609135e-05
1.6775253e-05
1.6968906e-05
1.719609e-05
1.7464303e-05
1.7783044e-05
1.8164565e-05
1.8624657e-05
1.918399e-05
1.9870419e-05
2.0721129e-05
2.1787898e-05
2.3144799e-05
2.4895206e-05
2.7198812e-05
3.0293172e-05
3.4556118e-05
4.0598634e-05
4.9443893e-05
6.2734177e-05
8.3272728e-05
0.00011533373
0.00016479015
0.00023836667
0.00034160518
0.00047639922
0.00063981223
0.00082516355
0.001024578
0.0012297724
0.0014398161
0.0016240235
0.0019250152
1.4368745e-05
1.4385599e-05
1.4403078e-05
1.4420694e-05
1.4438326e-05
1.4455933e-05
1.44735e-05
1.4491016e-05
1.4508471e-05
1.4525857e-05
1.4543169e-05
1.4560397e-05
1.4577534e-05
1.4594573e-05
1.4611504e-05
1.4628319e-05
1.4645007e-05
1.4661559e-05
1.4677963e-05
1.4694208e-05
1.4710281e-05
1.4726171e-05
1.4741866e-05
1.4757355e-05
1.4772627e-05
1.4787674e-05
1.4802488e-05
1.4817066e-05
1.4831406e-05
1.4845508e-05
1.4859376e-05
1.4873019e-05
1.4886449e-05
1.4899682e-05
1.4912739e-05
1.4925647e-05
1.493844e-05
1.4951156e-05
1.4963843e-05
1.4976551e-05
1.498934e-05
1.5002274e-05
1.5015422e-05
1.5028859e-05
1.5042665e-05
1.5056924e-05
1.5071724e-05
1.5087157e-05
1.5103321e-05
1.5120319e-05
1.5138263e-05
1.5157271e-05
1.5177479e-05
1.5199035e-05
1.5222112e-05
1.5246909e-05
1.527366e-05
1.5302642e-05
1.5334187e-05
1.5368692e-05
1.5406636e-05
1.5448598e-05
1.5495274e-05
1.554751e-05
1.560633e-05
1.5672974e-05
1.5748951e-05
1.5836101e-05
1.5936668e-05
1.6053405e-05
1.618971e-05
1.6349783e-05
1.6538848e-05
1.6763482e-05
1.7032006e-05
1.7355001e-05
1.7746222e-05
1.8223544e-05
1.881064e-05
1.9539871e-05
2.0454623e-05
2.1616954e-05
2.3114998e-05
2.5078861e-05
2.7705901e-05
3.130878e-05
3.6373857e-05
4.3731652e-05
5.4735883e-05
7.1636685e-05
9.7958759e-05
0.00013873549
0.0002000474
0.00028742822
0.00040353987
0.00054698648
0.00071134145
0.00089511339
0.0010631845
0.0013598667
1.4104815e-05
1.4121315e-05
1.4138422e-05
1.4155663e-05
1.4172919e-05
1.4190153e-05
1.420735e-05
1.4224498e-05
1.424159e-05
1.4258618e-05
1.4275574e-05
1.4292451e-05
1.430924e-05
1.4325936e-05
1.4342528e-05
1.4359008e-05
1.4375367e-05
1.4391595e-05
1.4407681e-05
1.4423614e-05
1.4439382e-05
1.4454974e-05
1.4470378e-05
1.4485582e-05
1.4500576e-05
1.4515349e-05
1.4529891e-05
1.4544194e-05
1.4558252e-05
1.4572059e-05
1.4585609e-05
1.45989e-05
1.4611931e-05
1.4624702e-05