/*--------------------------------*- C++ -*----------------------------------*\
  =========                 |
  \\      /  F ield         | OpenFOAM: The Open Source CFD Toolbox
   \\    /   O peration     | Website:  https://openfoam.org
    \\  /    A nd           | Version:  12
     \\/     M anipulation  |
\*---------------------------------------------------------------------------*/
FoamFile
{
    format      ascii;
    class       volScalarField;
    location    "500";
    object      nut;
}
// * * * * * * * * * * * * * * * * * * * * * * * * * * * * * * * * * * * * * //

dimensions      [0 2 -1 0 0 0 0];

internalField   nonuniform List<scalar> 
13056
(
2.7733749e-07
2.115878e-07
1.9983157e-07
1.9545075e-07
1.9312487e-07
1.9160991e-07
1.9054923e-07
1.8977643e-07
1.8919583e-07
1.8874894e-07
1.8839842e-07
1.8811952e-07
1.8789527e-07
1.8771379e-07
1.8756656e-07
1.8744743e-07
1.8735225e-07
1.8727787e-07
1.872249e-07
1.8718539e-07
1.8722585e-07
1.8691319e-07
1.8932507e-07
1.506023e-07
3.8084441e-11
4.6970859e-11
4.312667e-11
3.9231418e-11
3.6193922e-11
3.3735976e-11
3.1699372e-11
2.9999906e-11
2.8567834e-11
2.7343877e-11
2.6282977e-11
2.5353494e-11
2.4531456e-11
2.3796875e-11
2.3135356e-11
2.2536028e-11
2.1989487e-11
2.1488291e-11
2.1026417e-11
2.0598838e-11
2.0201388e-11
1.9830536e-11
1.9483323e-11
1.9157251e-11
1.8850109e-11
1.8560019e-11
1.8285379e-11
1.8024756e-11
1.77769e-11
1.7540726e-11
1.7315263e-11
1.7099637e-11
1.6893076e-11
1.6694898e-11
1.6504481e-11
1.6321258e-11
1.6144721e-11
1.5974414e-11
1.5809921e-11
1.5650856e-11
1.5496865e-11
1.534763e-11
1.5202859e-11
1.5062278e-11
1.4925634e-11
1.4792693e-11
1.4663241e-11
1.4537078e-11
1.4414015e-11
1.4293876e-11
1.4176496e-11
1.4061723e-11
1.3949413e-11
1.3839427e-11
1.3731638e-11
1.3625922e-11
1.3522163e-11
1.3420253e-11
1.3320086e-11
1.3221561e-11
1.3124582e-11
1.3029056e-11
1.2934894e-11
1.2842012e-11
1.2750324e-11
1.2659752e-11
1.2570215e-11
1.2481637e-11
1.2393943e-11
1.230706e-11
1.2220914e-11
1.2135434e-11
1.2050548e-11
1.1966185e-11
1.1882275e-11
1.1798748e-11
1.1715531e-11
1.1632553e-11
1.1549742e-11
1.1467025e-11
1.1384326e-11
1.1301569e-11
1.1218678e-11
1.1135572e-11
1.1052168e-11
1.0968385e-11
1.0884137e-11
1.0799338e-11
1.0713951e-11
1.0629576e-11
1.0548727e-11
1.0472118e-11
1.0399428e-11
1.0330349e-11
1.0264593e-11
1.0201904e-11
1.0142056e-11
1.0084847e-11
1.0030098e-11
9.9776447e-12
9.9273394e-12
9.8790446e-12
9.8326338e-12
9.7879855e-12
9.7449932e-12
9.7035228e-12
9.6635324e-12
9.6246741e-12
9.5874685e-12
9.5498123e-12
9.517649e-12
9.4641521e-12
2.7756623e-07
2.1164718e-07
1.9984329e-07
1.9544344e-07
1.9310683e-07
1.9158485e-07
1.9051922e-07
1.8974274e-07
1.8915935e-07
1.8871027e-07
1.88358e-07
1.8807767e-07
1.8785227e-07
1.8766981e-07
1.8752177e-07
1.8740196e-07
1.873062e-07
1.8723134e-07
1.8717797e-07
1.871381e-07
1.8717859e-07
1.8686315e-07
1.892904e-07
1.5072622e-07
7.8533841e-09
1.0174268e-08
9.4975339e-09
8.725485e-09
8.1048425e-09
7.5943657e-09
7.1667863e-09
6.8069768e-09
6.5016889e-09
6.2392631e-09
6.0106719e-09
5.8095315e-09
5.6309764e-09
5.4708869e-09
5.326279e-09
5.1949061e-09
5.0748075e-09
4.9644223e-09
4.862484e-09
4.767932e-09
4.6798843e-09
4.5975904e-09
4.5204206e-09
4.4478426e-09
4.3793827e-09
4.3146384e-09
4.2532654e-09
4.1949556e-09
4.1394392e-09
4.0864823e-09
4.0358748e-09
3.9874271e-09
3.9409722e-09
3.8963619e-09
3.853461e-09
3.8121457e-09
3.7723055e-09
3.7338412e-09
3.6966614e-09
3.6606817e-09
3.6258249e-09
3.5920212e-09
3.5592063e-09
3.5273204e-09
3.4963075e-09
3.4661164e-09
3.4366997e-09
3.4080135e-09
3.3800161e-09
3.3526685e-09
3.3259344e-09
3.29978e-09
3.2741733e-09
3.249084e-09
3.2244832e-09
3.2003438e-09
3.1766401e-09
3.1533477e-09
3.1304433e-09
3.1079041e-09
3.0857088e-09
3.0638366e-09
3.0422678e-09
3.0209832e-09
2.999964e-09
2.9791919e-09
2.9586494e-09
2.9383192e-09
2.9181844e-09
2.8982283e-09
2.8784344e-09
2.8587864e-09
2.8392682e-09
2.8198637e-09
2.8005568e-09
2.7813314e-09
2.7621712e-09
2.7430598e-09
2.7239808e-09
2.7049171e-09
2.6858517e-09
2.6667669e-09
2.647645e-09
2.6284674e-09
2.6092152e-09
2.5898692e-09
2.5704095e-09
2.550816e-09
2.5310802e-09
2.5115716e-09
2.492872e-09
2.475147e-09
2.458323e-09
2.4423297e-09
2.4271012e-09
2.4125787e-09
2.3987102e-09
2.3854497e-09
2.3727556e-09
2.3605907e-09
2.3489206e-09
2.337714e-09
2.3269417e-09
2.3165758e-09
2.3065919e-09
2.2969589e-09
2.2876675e-09
2.2786366e-09
2.2699878e-09
2.2612318e-09
2.2537497e-09
2.2413036e-09
2.7833979e-07
2.1184407e-07
1.9989541e-07
1.9543681e-07
1.9306721e-07
1.9152358e-07
1.9044263e-07
1.8965483e-07
1.890628e-07
1.8860696e-07
1.882493e-07
1.879646e-07
1.8773559e-07
1.8755014e-07
1.8739959e-07
1.8727767e-07
1.8718013e-07
1.8710375e-07
1.8704915e-07
1.8700813e-07
1.8704861e-07
1.8672592e-07
1.8919127e-07
1.5068838e-07
3.9184026e-08
5.4649076e-08
5.2685597e-08
4.9420708e-08
4.6596887e-08
4.4188627e-08
4.2124116e-08
4.0355365e-08
3.8831988e-08
3.7505659e-08
3.6337405e-08
3.529926e-08
3.4369626e-08
3.3529606e-08
3.276537e-08
3.2066544e-08
3.1423886e-08
3.0829948e-08
3.0278655e-08
2.9764874e-08
2.9284308e-08
2.8833268e-08
2.8408648e-08
2.8007813e-08
2.762839e-08
2.7268361e-08
2.6925994e-08
2.6599727e-08
2.6288189e-08
2.5990189e-08
2.5704651e-08
2.54306e-08
2.5167175e-08
2.491361e-08
2.4669203e-08
2.443331e-08
2.4205353e-08
2.3984814e-08
2.3771213e-08
2.3564106e-08
2.3363084e-08
2.3167778e-08
2.2977847e-08
2.2792974e-08
2.2612859e-08
2.2437228e-08
2.2265828e-08
2.2098422e-08
2.1934787e-08
2.177471e-08
2.1617996e-08
2.1464461e-08
2.1313931e-08
2.1166241e-08
2.1021232e-08
2.0878755e-08
2.0738669e-08
2.060084e-08
2.0465137e-08
2.0331436e-08
2.0199615e-08
2.0069561e-08
1.9941161e-08
1.9814307e-08
1.9688894e-08
1.9564818e-08
1.9441977e-08
1.9320275e-08
1.9199613e-08
1.9079895e-08
1.8961026e-08
1.884291e-08
1.8725453e-08
1.8608561e-08
1.8492139e-08
1.8376091e-08
1.826032e-08
1.8144728e-08
1.8029216e-08
1.7913681e-08
1.7798018e-08
1.7682122e-08
1.7565883e-08
1.7449186e-08
1.7331914e-08
1.7213948e-08
1.7095164e-08
1.6975434e-08
1.6854703e-08
1.6735229e-08
1.6620581e-08
1.6511787e-08
1.6408413e-08
1.6310044e-08
1.6216288e-08
1.6126796e-08
1.6041258e-08
1.5959398e-08
1.5880969e-08
1.5805746e-08
1.5733527e-08
1.5664121e-08
1.5597354e-08
1.553306e-08
1.547109e-08
1.5411258e-08
1.5353508e-08
1.5297339e-08
1.5243511e-08
1.5188985e-08
1.5142346e-08
1.5064721e-08
2.7968917e-07
2.1218919e-07
1.9999272e-07
1.9543313e-07
1.9300688e-07
1.9142605e-07
1.9031876e-07
1.8951151e-07
1.8890463e-07
1.8843717e-07
1.8807024e-07
1.8777801e-07
1.8754281e-07
1.8735222e-07
1.8719735e-07
1.8707179e-07
1.8697117e-07
1.8689218e-07
1.8683545e-07
1.8679241e-07
1.8683283e-07
1.8649926e-07
1.8902512e-07
1.5047961e-07
8.4791016e-08
1.2573445e-07
1.2485014e-07
1.1939403e-07
1.1417207e-07
1.0953189e-07
1.0546179e-07
1.0191572e-07
9.8818647e-08
9.6089648e-08
9.3660379e-08
9.1481122e-08
8.951314e-08
8.7721282e-08
8.6079501e-08
8.4568465e-08
8.3170575e-08
8.1871447e-08
8.0659299e-08
7.9524096e-08
7.8457386e-08
7.7451843e-08
7.6501286e-08
7.5600449e-08
7.4744541e-08
7.3929474e-08
7.3151735e-08
7.2408133e-08
7.1695855e-08
7.1012455e-08
7.035572e-08
6.972362e-08
6.9114367e-08
6.8526368e-08
6.7958156e-08
6.7408376e-08
6.6875812e-08
6.635937e-08
6.5858038e-08
6.5370871e-08
6.4896997e-08
6.443563e-08
6.3986043e-08
6.3547551e-08
6.3119511e-08
6.270133e-08
6.2292461e-08
6.1892391e-08
6.1500634e-08
6.1116727e-08
6.0740239e-08
6.0370768e-08
6.0007931e-08
5.9651364e-08
5.9300714e-08
5.8955649e-08
5.8615855e-08
5.828103e-08
5.7950884e-08
5.7625131e-08
5.73035e-08
5.6985727e-08
5.667156e-08
5.6360748e-08
5.6053048e-08
5.5748218e-08
5.5446025e-08
5.5146237e-08
5.4848627e-08
5.4552963e-08
5.4259019e-08
5.3966568e-08
5.3675382e-08
5.3385233e-08
5.3095888e-08
5.2807112e-08
5.2518666e-08
5.2230307e-08
5.1941786e-08
5.1652847e-08
5.1363224e-08
5.1072647e-08
5.0780834e-08
5.0487494e-08
5.0192323e-08
4.9895008e-08
4.9595227e-08
4.929264e-08
4.8987093e-08
4.8684282e-08
4.8393266e-08
4.8116702e-08
4.7853541e-08
4.760278e-08
4.7363472e-08
4.7134761e-08
4.6915889e-08
4.6706181e-08
4.650503e-08
4.6311889e-08
4.6126254e-08
4.5947664e-08
4.5775688e-08
4.5609913e-08
4.5449976e-08
4.5295407e-08
4.5146081e-08
4.500071e-08
4.4861269e-08
4.4719915e-08
4.4598845e-08
4.4397165e-08
2.8166554e-07
2.1270091e-07
2.0014389e-07
1.9543708e-07
1.929282e-07
1.912931e-07
1.9014738e-07
1.8931172e-07
1.8868317e-07
1.8819876e-07
1.8781829e-07
1.8751507e-07
1.8727084e-07
1.8707273e-07
1.8691156e-07
1.8678068e-07
1.8667555e-07
1.8659274e-07
1.8653285e-07
1.8648685e-07
1.8652712e-07
1.8617863e-07
1.8879058e-07
1.5011759e-07
1.3278208e-07
2.0661292e-07
2.0971225e-07
2.0325619e-07
1.9622685e-07
1.8972101e-07
1.8390788e-07
1.7878259e-07
1.7426385e-07
1.7025041e-07
1.6665289e-07
1.6340552e-07
1.6045692e-07
1.5775898e-07
1.5527555e-07
1.5298021e-07
1.5084853e-07
1.4886024e-07
1.4699874e-07
1.4524982e-07
1.4360143e-07
1.4204309e-07
1.4056592e-07
1.3916237e-07
1.3782549e-07
1.3654935e-07
1.3532884e-07
1.3415932e-07
1.3303666e-07
1.3195729e-07
1.3091797e-07
1.299157e-07
1.2894784e-07
1.2801204e-07
1.2710614e-07
1.2622812e-07
1.2537617e-07
1.2454866e-07
1.237441e-07
1.2296105e-07
1.2219823e-07
1.2145444e-07
1.207286e-07
1.2001968e-07
1.1932671e-07
1.1864878e-07
1.1798508e-07
1.1733483e-07
1.1669728e-07
1.1607174e-07
1.1545754e-07
1.1485407e-07
1.1426075e-07
1.1367702e-07
1.1310232e-07
1.1253616e-07
1.1197804e-07
1.114275e-07
1.1088408e-07
1.1034734e-07
1.0981686e-07
1.0929222e-07
1.0877302e-07
1.0825886e-07
1.0774937e-07
1.0724416e-07
1.0674285e-07
1.0624507e-07
1.0575046e-07
1.0525864e-07
1.0476924e-07
1.0428189e-07
1.0379622e-07
1.0331186e-07
1.0282841e-07
1.0234549e-07
1.018627e-07
1.0137963e-07
1.0089586e-07
1.0041095e-07
9.9924466e-08
9.9435931e-08
9.8944866e-08
9.8450767e-08
9.795311e-08
9.7451348e-08
9.694492e-08
9.6433221e-08
9.5915972e-08
9.5402772e-08
9.4908975e-08
9.4439139e-08
9.3991552e-08
9.3564587e-08
9.315669e-08
9.2766458e-08
9.2392638e-08
9.2034117e-08
9.1689895e-08
9.1359064e-08
9.1040798e-08
9.073433e-08
9.0438953e-08
9.0153978e-08
8.9878809e-08
8.9612655e-08
8.935532e-08
8.9104603e-08
8.8863911e-08
8.861978e-08
8.8410395e-08
8.8061345e-08
2.8434152e-07
2.1340637e-07
2.0036238e-07
1.9545638e-07
1.928356e-07
1.9112698e-07
1.8992921e-07
1.8905508e-07
1.8839716e-07
1.8788978e-07
1.8749096e-07
1.8717285e-07
1.8691636e-07
1.8670806e-07
1.8653834e-07
1.8640023e-07
1.8628897e-07
1.8620094e-07
1.8613675e-07
1.8608667e-07
1.8612664e-07
1.8575865e-07
1.8848689e-07
1.4962224e-07
1.7902036e-07
2.9061741e-07
3.0011463e-07
2.9368958e-07
2.8534777e-07
2.7728083e-07
2.6994941e-07
2.6342395e-07
2.5763053e-07
2.5245587e-07
2.4779516e-07
2.4357029e-07
2.397203e-07
2.3618635e-07
2.3292358e-07
2.2989977e-07
2.270847e-07
2.24453e-07
2.2198386e-07
2.1965943e-07
2.1746451e-07
2.1538579e-07
2.1341205e-07
2.1153367e-07
2.0974178e-07
2.0802879e-07
2.0638817e-07
2.0481395e-07
2.0330084e-07
2.0184425e-07
2.0043998e-07
1.9908418e-07
1.9777342e-07
1.9650469e-07
1.9527517e-07
1.9408225e-07
1.9292357e-07
1.9179703e-07
1.9070066e-07
1.8963262e-07
1.8859121e-07
1.8757489e-07
1.8658223e-07
1.8561189e-07
1.846626e-07
1.8373318e-07
1.8282254e-07
1.8192967e-07
1.8105359e-07
1.8019338e-07
1.7934816e-07
1.7851713e-07
1.7769952e-07
1.7689458e-07
1.761016e-07
1.7531988e-07
1.745488e-07
1.7378772e-07
1.7303604e-07
1.7229317e-07
1.7155854e-07
1.708316e-07
1.701118e-07
1.6939862e-07
1.6869154e-07
1.6799003e-07
1.6729359e-07
1.6660172e-07
1.6591391e-07
1.6522965e-07
1.6454844e-07
1.6386977e-07
1.6319312e-07
1.6251798e-07
1.6184381e-07
1.6117007e-07
1.604962e-07
1.5982163e-07
1.5914577e-07
1.5846802e-07
1.5778773e-07
1.5710425e-07
1.564169e-07
1.5572495e-07
1.5502766e-07
1.5432425e-07
1.5361391e-07
1.5289575e-07
1.5216937e-07
1.5144819e-07
1.5075375e-07
1.500925e-07
1.4946207e-07
1.4886026e-07
1.4828493e-07
1.4773414e-07
1.4720616e-07
1.4669945e-07
1.4621263e-07
1.4574444e-07
1.4529374e-07
1.4485947e-07
1.4444065e-07
1.4403633e-07
1.4364569e-07
1.4326762e-07
1.4290186e-07
1.4254531e-07
1.4220279e-07
1.4185527e-07
1.4155684e-07
1.4105912e-07
2.878133e-07
2.1434316e-07
2.0066761e-07
1.9550283e-07
1.9273652e-07
1.9093224e-07
1.8966675e-07
1.8874253e-07
1.880464e-07
1.8750911e-07
1.8708641e-07
1.867489e-07
1.8647645e-07
1.8625487e-07
1.8607399e-07
1.8592644e-07
1.8580718e-07
1.8571232e-07
1.8564246e-07
1.8558699e-07
1.8562641e-07
1.8523368e-07
1.8811307e-07
1.4901392e-07
2.2257277e-07
3.7612811e-07
3.9424695e-07
3.8877624e-07
3.7949634e-07
3.7005564e-07
3.6132329e-07
3.5348179e-07
3.4647769e-07
3.4019219e-07
3.345089e-07
3.2933986e-07
3.2461643e-07
3.2027038e-07
3.1624881e-07
3.1251436e-07
3.0903162e-07
3.0577045e-07
3.0270614e-07
2.998174e-07
2.9708611e-07
2.9449625e-07
2.9203436e-07
2.8968889e-07
2.8744912e-07
2.8530588e-07
2.8325126e-07
2.8127803e-07
2.7937975e-07
2.7755086e-07
2.7578627e-07
2.7408127e-07
2.7243169e-07
2.7083386e-07
2.6928433e-07
2.6777991e-07
2.6631773e-07
2.648952e-07
2.6350993e-07
2.6215966e-07
2.6084229e-07
2.5955594e-07
2.5829886e-07
2.5706941e-07
2.5586601e-07
2.5468721e-07
2.5353167e-07
2.5239816e-07
2.5128546e-07
2.5019244e-07
2.4911801e-07
2.4806119e-07
2.47021e-07
2.4599655e-07
2.4498693e-07
2.439913e-07
2.4300887e-07
2.4203885e-07
2.410805e-07
2.4013308e-07
2.3919589e-07
2.3826822e-07
2.3734941e-07
2.364388e-07
2.3553573e-07
2.3463955e-07
2.3374962e-07
2.3286531e-07
2.3198599e-07
2.3111102e-07
2.3023976e-07
2.2937155e-07
2.2850576e-07
2.2764172e-07
2.2677874e-07
2.2591615e-07
2.2505322e-07
2.2418922e-07
2.2332341e-07
2.2245499e-07
2.2158315e-07
2.2070703e-07
2.1982576e-07
2.1893841e-07
2.18044e-07
2.1714151e-07
2.1622989e-07
2.1530798e-07
2.1437523e-07
2.1344881e-07
2.1255633e-07
2.1170608e-07
2.1089509e-07
2.1012054e-07
2.0937975e-07
2.0867025e-07
2.0798984e-07
2.0733655e-07
2.0670862e-07
2.0610445e-07
2.0552259e-07
2.0496169e-07
2.0442051e-07
2.0389784e-07
2.0339264e-07
2.0290348e-07
2.0243006e-07
2.0196836e-07
2.0152462e-07
2.010743e-07
2.0068721e-07
2.0004138e-07
2.9220345e-07
2.1556167e-07
2.0108677e-07
1.9559385e-07
1.9264268e-07
1.9071687e-07
1.8936531e-07
1.8837746e-07
1.8763275e-07
1.8705744e-07
1.8660436e-07
1.8624218e-07
1.8594942e-07
1.8571092e-07
1.8551583e-07
1.8535625e-07
1.8522676e-07
1.8512314e-07
1.8504598e-07
1.8498356e-07
1.8502205e-07
1.8459847e-07
1.8766822e-07
1.4831495e-07
2.6328368e-07
4.6303394e-07
4.9207889e-07
4.8852986e-07
4.7865557e-07
4.6797259e-07
4.5789526e-07
4.4876275e-07
4.4055719e-07
4.3316083e-07
4.2644916e-07
4.2032646e-07
4.1471803e-07
4.0954708e-07
4.0475302e-07
4.0029382e-07
3.9612917e-07
3.9222433e-07
3.8855075e-07
3.8508384e-07
3.8180256e-07
3.7868822e-07
3.7572515e-07
3.7289986e-07
3.701998e-07
3.6761419e-07
3.6513376e-07
3.6274998e-07
3.6045529e-07
3.5824313e-07
3.5610749e-07
3.540428e-07
3.5204417e-07
3.5010721e-07
3.4822787e-07
3.4640238e-07
3.446273e-07
3.428996e-07
3.4121643e-07
3.395751e-07
3.3797312e-07
3.3640826e-07
3.3487844e-07
3.333817e-07
3.3191616e-07
3.3048011e-07
3.2907195e-07
3.2769019e-07
3.2633341e-07
3.2500023e-07
3.2368938e-07
3.2239966e-07
3.2112993e-07
3.1987909e-07
3.1864609e-07
3.174299e-07
3.1622958e-07
3.1504418e-07
3.1387283e-07
3.1271463e-07
3.1156872e-07
3.1043428e-07
3.093105e-07
3.081966e-07
3.0709177e-07
3.0599523e-07
3.0490621e-07
3.0382395e-07
3.0274769e-07
3.0167665e-07
3.0061005e-07
2.9954711e-07
2.9848704e-07
2.9742903e-07
2.9637227e-07
2.953159e-07
2.9425905e-07
2.9320084e-07
2.9214034e-07
2.9107658e-07
2.9000856e-07
2.8893524e-07
2.8785553e-07
2.8676829e-07
2.8567231e-07
2.8456632e-07
2.8344903e-07
2.8231899e-07
2.8117552e-07
2.8003955e-07
2.789449e-07
2.779017e-07
2.7690634e-07
2.7595543e-07
2.750457e-07
2.7417414e-07
2.7333806e-07
2.7253506e-07
2.7176298e-07
2.7101989e-07
2.70304e-07
2.6961367e-07
2.689474e-07
2.6830371e-07
2.6768133e-07
2.6707852e-07
2.6649493e-07
2.6592558e-07
2.653782e-07
2.6482262e-07
2.6434463e-07
2.6354693e-07
2.976646e-07
2.1712875e-07
2.0165726e-07
1.9575443e-07
1.9257189e-07
1.904939e-07
1.8903456e-07
1.8796699e-07
1.8716142e-07
1.8653846e-07
1.860473e-07
1.8565419e-07
1.8533595e-07
1.8507622e-07
1.8486327e-07
1.8468856e-07
1.8454618e-07
1.844315e-07
1.8434508e-07
1.8427377e-07
1.8431079e-07
1.8384919e-07
1.8715345e-07
1.4755059e-07
3.0110465e-07
5.5157471e-07
5.9410788e-07
5.9360377e-07
5.8351516e-07
5.7171122e-07
5.6031862e-07
5.4988969e-07
5.4046125e-07
5.3192431e-07
5.2415007e-07
5.1703724e-07
5.1050668e-07
5.0447385e-07
4.9887073e-07
4.9365093e-07
4.8876951e-07
4.8418716e-07
4.7987155e-07
4.7579474e-07
4.7193281e-07
4.6826433e-07
4.6477139e-07
4.6143853e-07
4.5825129e-07
4.5519728e-07
4.5226581e-07
4.4944699e-07
4.4673209e-07
4.4411353e-07
4.4158435e-07
4.3913809e-07
4.3676905e-07
4.3447219e-07
4.3224276e-07
4.3007638e-07
4.2796907e-07
4.2591729e-07
4.2391772e-07
4.2196723e-07
4.2006292e-07
4.1820217e-07
4.1638259e-07
4.1460186e-07
4.128578e-07
4.1114841e-07
4.0947182e-07
4.0782629e-07
4.0621015e-07
4.046218e-07
4.0305975e-07
4.0152258e-07
4.0000898e-07
3.9851765e-07
3.9704734e-07
3.9559688e-07
3.9416513e-07
3.9275101e-07
3.9135347e-07
3.8997147e-07
3.88604e-07
3.8725008e-07
3.8590878e-07
3.8457916e-07
3.8326028e-07
3.8195121e-07
3.8065106e-07
3.7935892e-07
3.7807389e-07
3.7679505e-07
3.7552149e-07
3.7425227e-07
3.7298646e-07
3.7172311e-07
3.7046124e-07
3.6919983e-07
3.6793787e-07
3.6667429e-07
3.6540798e-07
3.641378e-07
3.6286254e-07
3.6158096e-07
3.6029176e-07
3.5899357e-07
3.5768493e-07
3.5636434e-07
3.5503022e-07
3.5368082e-07
3.5231532e-07
3.5095861e-07
3.49651e-07
3.4840458e-07
3.4721505e-07
3.4607838e-07
3.4499072e-07
3.4394847e-07
3.4294844e-07
3.4198776e-07
3.4106386e-07
3.4017442e-07
3.3931732e-07
3.3849062e-07
3.3769253e-07
3.3692128e-07
3.3617538e-07
3.3545276e-07
3.3475299e-07
3.3407012e-07
3.3341339e-07
3.3274678e-07
3.3217279e-07
3.3121471e-07
3.0438454e-07
2.1913192e-07
2.0242994e-07
1.9601989e-07
1.9255036e-07
1.9028353e-07
1.8869043e-07
1.8752389e-07
1.8664274e-07
1.8596058e-07
1.8542212e-07
1.8499056e-07
1.8464063e-07
1.8435448e-07
1.8411929e-07
1.8392569e-07
1.8376719e-07
1.8363864e-07
1.8354054e-07
1.8345798e-07
1.8349275e-07
1.829847e-07
1.8657286e-07
1.4675069e-07
3.3590303e-07
6.4196308e-07
7.0094219e-07
7.0485634e-07
6.950231e-07
6.8224208e-07
6.6956083e-07
6.5781775e-07
6.4712927e-07
6.3740493e-07
6.2851646e-07
6.2035962e-07
6.1285272e-07
6.0590448e-07
5.9943972e-07
5.9340804e-07
5.8776011e-07
5.8245212e-07
5.7744792e-07
5.7271627e-07
5.6823027e-07
5.6396569e-07
5.5990231e-07
5.5602267e-07
5.5231032e-07
5.4875117e-07
5.4533303e-07
5.4204462e-07
5.3887597e-07
5.3581843e-07
5.3286401e-07
5.3000533e-07
5.2723585e-07
5.2454977e-07
5.2194169e-07
5.1940652e-07
5.1693972e-07
5.1453721e-07
5.1219518e-07
5.0991002e-07
5.0767838e-07
5.0549727e-07
5.033639e-07
5.0127563e-07
4.9922993e-07
4.9722447e-07
4.9525712e-07
4.9332587e-07
4.9142879e-07
4.8956402e-07
4.8772983e-07
4.859246e-07
4.8414681e-07
4.8239495e-07
4.8066759e-07
4.7896334e-07
4.7728091e-07
4.7561904e-07
4.7397652e-07
4.7235213e-07
4.7074471e-07
4.6915313e-07
4.6757629e-07
4.6601311e-07
4.644625e-07
4.6292339e-07
4.6139472e-07
4.5987544e-07
4.5836452e-07
4.5686087e-07
4.5536343e-07
4.5387111e-07
4.5238284e-07
4.5089748e-07
4.494139e-07
4.4793093e-07
4.4644734e-07
4.4496191e-07
4.4347334e-07
4.4198027e-07
4.4048131e-07
4.3897498e-07
4.3745975e-07
4.3593401e-07
4.3439605e-07
4.3284408e-07
4.3127626e-07
4.2969048e-07
4.2808579e-07
4.2649131e-07
4.2495434e-07
4.2348905e-07
4.2209039e-07
4.2075368e-07
4.194744e-07
4.1824835e-07
4.1707176e-07
4.1594127e-07
4.1485386e-07
4.1380679e-07
4.1279761e-07
4.1182401e-07
4.108839e-07
4.0997523e-07
4.0909623e-07
4.0824447e-07
4.0741949e-07
4.0661425e-07
4.0583963e-07
4.050533e-07
4.0437573e-07
4.0324457e-07
3.1259247e-07
2.2168527e-07
2.0347354e-07
1.9643951e-07
1.9261595e-07
1.9011603e-07
1.8835778e-07
1.8706902e-07
1.8609449e-07
1.8533917e-07
1.8474221e-07
1.8426309e-07
1.8387394e-07
1.8355506e-07
1.832923e-07
1.8307525e-07
1.8289669e-07
1.8275082e-07
1.8263804e-07
1.825413e-07
1.8257266e-07
1.820083e-07
1.8593475e-07
1.4595104e-07
3.674086e-07
7.342239e-07
8.1317043e-07
8.2319234e-07
8.1422598e-07
8.0066361e-07
7.8673583e-07
7.7366201e-07
7.6167102e-07
7.5070388e-07
7.4063911e-07
7.3137302e-07
7.2282371e-07
7.1489453e-07
7.0750361e-07
7.0059697e-07
6.9412121e-07
6.8802811e-07
6.8227776e-07
6.7683556e-07
6.7167165e-07
6.6675889e-07
6.6207469e-07
6.5759951e-07
6.5331482e-07
6.4920479e-07
6.4525564e-07
6.4145458e-07
6.3779036e-07
6.3425317e-07
6.3083397e-07
6.2752435e-07
6.2431689e-07
6.2120501e-07
6.1818255e-07
6.1524372e-07
6.1238333e-07
6.0959676e-07
6.0687965e-07
6.0422787e-07
6.0163762e-07
5.9910546e-07
5.9662821e-07
5.9420286e-07
5.918265e-07
5.8949648e-07
5.8721035e-07
5.8496581e-07
5.8276066e-07
5.8059276e-07
5.7846012e-07
5.7636091e-07
5.7429335e-07
5.7225574e-07
5.7024642e-07
5.682638e-07
5.663064e-07
5.6437277e-07
5.6246152e-07
5.6057126e-07
5.5870063e-07
5.5684836e-07
5.5501317e-07
5.5319382e-07
5.5138905e-07
5.4959764e-07
5.4781836e-07
5.4605002e-07
5.4429139e-07
5.4254125e-07
5.4079837e-07
5.3906149e-07
5.3732935e-07
5.3560068e-07
5.3387414e-07
5.3214837e-07
5.3042198e-07
5.2869352e-07
5.269615e-07
5.2522435e-07
5.2348043e-07
5.2172805e-07
5.1996542e-07
5.1819065e-07
5.1640177e-07
5.1459668e-07
5.1277324e-07
5.1092896e-07
5.0906273e-07
5.072083e-07
5.0542058e-07
5.0371602e-07
5.0208875e-07
5.0053335e-07
4.9904461e-07
4.9761764e-07
4.9624806e-07
4.9493194e-07
4.9366578e-07
4.924464e-07
4.9127093e-07
4.9013672e-07
4.8904133e-07
4.8798237e-07
4.8695781e-07
4.8596482e-07
4.8500286e-07
4.8406376e-07
4.8316013e-07
4.8224283e-07
4.8145184e-07
4.8013114e-07
3.225665e-07
2.2493719e-07
2.0488052e-07
1.9708142e-07
1.9282238e-07
1.9003554e-07
1.8807393e-07
1.866346e-07
1.8554499e-07
1.8469948e-07
1.8403037e-07
1.8349255e-07
1.8305497e-07
1.8269565e-07
1.8239876e-07
1.8215265e-07
1.8194917e-07
1.817817e-07
1.8165051e-07
1.8153589e-07
1.8156226e-07
1.8093001e-07
1.8525293e-07
1.451942e-07
3.9517125e-07
8.2815569e-07
9.3128115e-07
9.494918e-07
9.4220488e-07
9.2814056e-07
9.1304266e-07
8.9863521e-07
8.8530319e-07
8.7303641e-07
8.6172861e-07
8.512813e-07
8.4161549e-07
8.3263111e-07
8.2424035e-07
8.1638622e-07
8.0901182e-07
8.0206468e-07
7.9550119e-07
7.8928349e-07
7.8337871e-07
7.7775676e-07
7.7239261e-07
7.6726457e-07
7.6235199e-07
7.5763717e-07
7.5310469e-07
7.4874016e-07
7.4453095e-07
7.4046606e-07
7.3653527e-07
7.3272909e-07
7.2903918e-07
7.2545813e-07
7.2197893e-07
7.1859504e-07
7.1530061e-07
7.1209038e-07
7.0895944e-07
7.0590309e-07
7.02917e-07
6.9999729e-07
6.9714036e-07
6.9434275e-07
6.9160119e-07
6.8891265e-07
6.8627435e-07
6.8368367e-07
6.8113809e-07
6.786352e-07
6.7617272e-07
6.7374855e-07
6.7136069e-07
6.6900718e-07
6.6668613e-07
6.6439574e-07
6.621343e-07
6.5990018e-07
6.5769177e-07
6.5550749e-07
6.533458e-07
6.5120522e-07
6.4908431e-07
6.4698165e-07
6.448958e-07
6.4282534e-07
6.407689e-07
6.3872508e-07
6.3669251e-07
6.3466978e-07
6.3265545e-07
6.3064811e-07
6.2864631e-07
6.2664858e-07
6.2465339e-07
6.2265918e-07
6.2066434e-07
6.1866722e-07
6.166661e-07
6.1465916e-07
6.1264452e-07
6.1062023e-07
6.0858422e-07
6.0653433e-07
6.0446825e-07
6.0238357e-07
6.002778e-07
5.9814806e-07
5.9599306e-07
5.938516e-07
5.9178703e-07
5.8981831e-07
5.8793863e-07
5.8614179e-07
5.8442179e-07
5.82773e-07
5.8119034e-07
5.7966928e-07
5.7820576e-07
5.7679613e-07
5.7543705e-07
5.7412548e-07
5.728586e-07
5.7163367e-07
5.7044834e-07
5.6929935e-07
5.6818607e-07
5.6709906e-07
5.6605288e-07
5.649909e-07
5.6407451e-07
5.625442e-07
3.3464246e-07
2.2908048e-07
2.067749e-07
1.9803916e-07
1.9324502e-07
1.9010529e-07
1.8789345e-07
1.8626876e-07
1.850374e-07
1.8408073e-07
1.8332265e-07
1.8271242e-07
1.8221504e-07
1.8180574e-07
1.8146662e-07
1.8118448e-07
1.8095003e-07
1.8075563e-07
1.8060133e-07
1.8046419e-07
1.8048331e-07
1.7976975e-07
1.8454828e-07
1.4452991e-07
4.1860675e-07
9.2323292e-07
1.0556166e-06
1.0845632e-06
1.0800411e-06
1.0658764e-06
1.0497411e-06
1.034025e-06
1.0193275e-06
1.0057103e-06
9.9309389e-07
9.8139122e-07
9.7053043e-07
9.6041078e-07
9.5093976e-07
9.4205824e-07
9.3370652e-07
9.2582833e-07
9.1837652e-07
9.1131009e-07
9.0459325e-07
8.9819291e-07
8.9208158e-07
8.8623538e-07
8.8063147e-07
8.7525024e-07
8.7007452e-07
8.6508824e-07
8.6027732e-07
8.5562948e-07
8.5113327e-07
8.4677805e-07
8.4255447e-07
8.3845422e-07
8.3446942e-07
8.3059269e-07
8.2681747e-07
8.2313784e-07
8.1954825e-07
8.1604341e-07
8.1261842e-07
8.092689e-07
8.059908e-07
8.027802e-07
7.996334e-07
7.9654695e-07
7.9351773e-07
7.9054278e-07
7.8761923e-07
7.8474433e-07
7.8191552e-07
7.7913042e-07
7.7638675e-07
7.7368229e-07
7.7101488e-07
7.6838249e-07
7.6578318e-07
7.6321509e-07
7.6067641e-07
7.5816531e-07
7.5568005e-07
7.5321896e-07
7.5078039e-07
7.4836273e-07
7.4596434e-07
7.4358361e-07
7.4121895e-07
7.388688e-07
7.3653159e-07
7.3420569e-07
7.3188948e-07
7.2958135e-07
7.2727964e-07
7.2498268e-07
7.2268871e-07
7.2039594e-07
7.1810256e-07
7.1580666e-07
7.1350627e-07
7.1119932e-07
7.0888365e-07
7.0655701e-07
7.0421705e-07
7.0186126e-07
6.9948702e-07
6.9709155e-07
6.9467196e-07
6.9222493e-07
6.8974899e-07
6.8728855e-07
6.8491628e-07
6.8265397e-07
6.8049377e-07
6.7842861e-07
6.7645159e-07
6.7455625e-07
6.7273678e-07
6.7098794e-07
6.6930508e-07
6.6768397e-07
6.6612081e-07
6.6461209e-07
6.6315458e-07
6.6174513e-07
6.6038104e-07
6.5905859e-07
6.5777706e-07
6.5652558e-07
6.5532084e-07
6.5409796e-07
6.5304205e-07
6.5127842e-07
3.4922371e-07
2.3436549e-07
2.0932272e-07
1.994405e-07
1.939886e-07
1.904146e-07
1.8789463e-07
1.8604152e-07
1.8463537e-07
1.8354155e-07
1.8267364e-07
1.8197394e-07
1.8140264e-07
1.8093148e-07
1.8054002e-07
1.8021315e-07
1.7994014e-07
1.7971208e-07
1.7952873e-07
1.7936319e-07
1.7937194e-07
1.7856165e-07
1.838502e-07
1.4401489e-07
4.3702655e-07
1.0185239e-06
1.1863387e-06
1.2290976e-06
1.2287875e-06
1.2150949e-06
1.1981388e-06
1.1811847e-06
1.1651234e-06
1.1501201e-06
1.1361375e-06
1.1231085e-06
1.110974e-06
1.0996366e-06
1.0890008e-06
1.0790067e-06
1.0695929e-06
1.0607e-06
1.0522776e-06
1.0442819e-06
1.0366744e-06
1.0294189e-06
1.0224856e-06
1.0158483e-06
1.0094821e-06
1.0033653e-06
9.9747909e-07
9.9180547e-07
9.8632892e-07
9.8103579e-07
9.7591335e-07
9.709497e-07
9.6613445e-07
9.6145832e-07
9.5691249e-07
9.5248869e-07
9.4817957e-07
9.4397854e-07
9.3987934e-07
9.3587601e-07
9.3196307e-07
9.281356e-07
9.2438904e-07
9.2071899e-07
9.1712124e-07
9.1359194e-07
9.1012756e-07
9.0672477e-07
9.0338032e-07
9.0009111e-07
8.9685424e-07
8.9366704e-07
8.9052691e-07
8.8743137e-07
8.8437795e-07
8.8136434e-07
8.7838838e-07
8.7544795e-07
8.7254099e-07
8.6966544e-07
8.6681932e-07
8.6400074e-07
8.6120784e-07
8.5843877e-07
8.5569168e-07
8.5296474e-07
8.5025617e-07
8.4756417e-07
8.4488696e-07
8.4222271e-07
8.3956956e-07
8.3692567e-07
8.3428919e-07
8.3165818e-07
8.2903066e-07
8.264046e-07
8.2377791e-07
8.2114844e-07
8.1851393e-07
8.1587202e-07
8.1322026e-07
8.1055607e-07
8.0787676e-07
8.0517948e-07
8.0246121e-07
7.9971878e-07
7.9694889e-07
7.9414769e-07
7.9131351e-07
7.8849699e-07
7.8578125e-07
7.8319121e-07
7.8071787e-07
7.7835315e-07
7.7608921e-07
7.7391865e-07
7.718348e-07
7.6983168e-07
7.6790392e-07
7.6604672e-07
7.642557e-07
7.6252684e-07
7.6085646e-07
7.5924097e-07
7.5767727e-07
7.5616109e-07
7.5469164e-07
7.5325646e-07
7.5187457e-07
7.5047201e-07
7.4926016e-07
7.4723569e-07
3.6679185e-07
2.4111682e-07
2.1274599e-07
2.014593e-07
1.9519782e-07
1.9108847e-07
1.8818832e-07
1.8605314e-07
1.8443097e-07
1.8316752e-07
1.8216367e-07
1.8135316e-07
1.8069021e-07
1.8014227e-07
1.7968576e-07
1.7930318e-07
1.7898201e-07
1.7871178e-07
1.7849181e-07
1.7829037e-07
1.782844e-07
1.7735999e-07
1.8319784e-07
1.4371643e-07
4.4943138e-07
1.1128327e-06
1.3234016e-06
1.383612e-06
1.3894337e-06
1.377019e-06
1.3595787e-06
1.3415253e-06
1.3241443e-06
1.307746e-06
1.2923562e-06
1.27794e-06
1.2644583e-06
1.2518221e-06
1.2399364e-06
1.228742e-06
1.2181776e-06
1.2081814e-06
1.1987006e-06
1.1896889e-06
1.1811054e-06
1.1729112e-06
1.1650741e-06
1.1575657e-06
1.150359e-06
1.1434304e-06
1.1367591e-06
1.1303254e-06
1.1241121e-06
1.1181043e-06
1.1122878e-06
1.1066494e-06
1.1011776e-06
1.0958621e-06
1.0906931e-06
1.0856614e-06
1.0807588e-06
1.0759779e-06
1.0713117e-06
1.0667536e-06
1.0622975e-06
1.0579378e-06
1.0536695e-06
1.0494875e-06
1.0453872e-06
1.0413643e-06
1.0374148e-06
1.0335349e-06
1.029721e-06
1.0259696e-06
1.0222774e-06
1.0186415e-06
1.0150588e-06
1.0115267e-06
1.0080423e-06
1.004603e-06
1.0012064e-06
9.9785004e-07
9.9453166e-07
9.9124891e-07
9.8799954e-07
9.8478142e-07
9.8159246e-07
9.7843057e-07
9.7529364e-07
9.721796e-07
9.6908643e-07
9.6601213e-07
9.6295464e-07
9.599119e-07
9.5688182e-07
9.538623e-07
9.5085124e-07
9.4784644e-07
9.4484567e-07
9.418466e-07
9.3884688e-07
9.3584406e-07
9.3283558e-07
9.2981874e-07
9.2679076e-07
9.2374871e-07
9.2068953e-07
9.1760996e-07
9.1450657e-07
9.1137573e-07
9.0821369e-07
9.0501602e-07
9.0178082e-07
8.9856568e-07
8.954654e-07
8.9250842e-07
8.8968446e-07
8.8698435e-07
8.8439913e-07
8.819204e-07
8.7954052e-07
8.7725264e-07
8.7505066e-07
8.7292907e-07
8.7088287e-07
8.6890749e-07
8.669987e-07
8.6515242e-07
8.6336513e-07
8.6163196e-07
8.5995198e-07
8.5831101e-07
8.5673063e-07
8.5512682e-07
8.5374021e-07
8.5142326e-07
3.8791752e-07
2.4975457e-07
2.1734114e-07
2.0433154e-07
1.9707161e-07
1.9230068e-07
1.8893011e-07
1.8644552e-07
1.8455549e-07
1.8308152e-07
1.8190881e-07
1.8096052e-07
1.801835e-07
1.795399e-07
1.7900221e-07
1.7854998e-07
1.7816845e-07
1.7784515e-07
1.7757885e-07
1.7733188e-07
1.7730515e-07
1.7624748e-07
1.8264017e-07
1.4373657e-07
4.5452327e-07
1.2045236e-06
1.4665171e-06
1.5483763e-06
1.5628597e-06
1.5528424e-06
1.5354212e-06
1.5165057e-06
1.4979117e-06
1.4801512e-06
1.4633421e-06
1.4474967e-06
1.4326063e-06
1.4185979e-06
1.4053809e-06
1.3928996e-06
1.3810949e-06
1.3699044e-06
1.3592737e-06
1.3491548e-06
1.3395049e-06
1.3302827e-06
1.3214537e-06
1.3129878e-06
1.3048558e-06
1.2970322e-06
1.2894944e-06
1.2822208e-06
1.2751927e-06
1.2683938e-06
1.2618083e-06
1.2554218e-06
1.2492216e-06
1.2431965e-06
1.2373353e-06
1.231628e-06
1.2260655e-06
1.2206396e-06
1.2153426e-06
1.210167e-06
1.2051059e-06
1.2001533e-06
1.1953035e-06
1.190551e-06
1.1858903e-06
1.1813168e-06