/*--------------------------------*- C++ -*----------------------------------*\
  =========                 |
  \\      /  F ield         | OpenFOAM: The Open Source CFD Toolbox
   \\    /   O peration     | Website:  https://openfoam.org
    \\  /    A nd           | Version:  12
     \\/     M anipulation  |
\*---------------------------------------------------------------------------*/
FoamFile
{
    format      ascii;
    class       volVectorField;
    location    "500";
    object      U;
}
// * * * * * * * * * * * * * * * * * * * * * * * * * * * * * * * * * * * * * //

dimensions      [0 1 -1 0 0 0 0];

internalField   nonuniform List<vector> 
13056
(
(1 1.6625343e-10 4.3210199e-24)
(0.99998746 4.3750308e-10 0)
(0.9999694 6.0251106e-10 0)
(0.99994997 7.5629141e-10 0)
(0.99992799 9.7317087e-10 0)
(0.99990299 1.2512164e-09 0)
(0.9998747 1.6057953e-09 0)
(0.99984264 2.0643812e-09 0)
(0.99980618 2.661042e-09 0)
(0.99976456 3.4397264e-09 0)
(0.99971685 4.459556e-09 0)
(0.9996619 5.8038437e-09 0)
(0.99959818 7.5865399e-09 0)
(0.99952378 9.9874837e-09 0)
(0.99943578 1.3232446e-08 0)
(0.99933081 1.7828799e-08 0)
(0.99920157 2.4113771e-08 0)
(0.99904344 3.4387766e-08 0)
(0.99882794 4.734939e-08 0)
(0.99856797 7.9153739e-08 0)
(0.99809237 1.1006137e-07 0)
(0.9975959 3.1470195e-07 0)
(0.99546801 1.4724705e-07 -1.4345063e-20)
(0.99636355 0.00012004889 2.196708e-16)
(0.039145874 0.00012457649 0)
(0.029889174 1.1805349e-07 -3.2481773e-20)
(0.02737903 4.7339029e-08 0)
(0.025698109 4.0415295e-08 0)
(0.024463822 3.2374619e-08 0)
(0.02346837 2.7049638e-08 0)
(0.022631347 2.2985359e-08 0)
(0.021920682 1.9634904e-08 0)
(0.02131211 1.6922224e-08 0)
(0.020784031 1.4756453e-08 0)
(0.020319802 1.2998971e-08 0)
(0.019907928 1.1533763e-08 0)
(0.019539472 1.0317159e-08 0)
(0.019206512 9.3059581e-09 0)
(0.018903534 8.4385411e-09 0)
(0.018626407 7.6892312e-09 0)
(0.018371367 7.0415146e-09 0)
(0.018135475 6.4751944e-09 0)
(0.017916322 5.976715e-09 0)
(0.017711883 5.5348511e-09 0)
(0.017520465 5.1419095e-09 0)
(0.017340606 4.7901587e-09 0)
(0.017171094 4.4732323e-09 0)
(0.017010892 4.187022e-09 0)
(0.016859066 3.9272495e-09 0)
(0.016714835 3.6905953e-09 0)
(0.016577514 3.4744801e-09 0)
(0.016446487 3.2760989e-09 0)
(0.016321228 3.0933408e-09 0)
(0.016201268 2.9249696e-09 0)
(0.01608618 2.7691942e-09 0)
(0.015975584 2.6245116e-09 0)
(0.015869149 2.4900242e-09 0)
(0.015766572 2.3648863e-09 0)
(0.015667572 2.2480315e-09 0)
(0.0155719 2.1385831e-09 0)
(0.015479333 2.0360763e-09 0)
(0.015389665 1.9399183e-09 0)
(0.015302704 1.8495523e-09 0)
(0.015218276 1.764388e-09 0)
(0.015136224 1.6840575e-09 0)
(0.015056401 1.6082521e-09 0)
(0.014978672 1.5366609e-09 0)
(0.014902909 1.4688618e-09 0)
(0.014828995 1.4045371e-09 0)
(0.014756824 1.3435766e-09 0)
(0.014686294 1.2856991e-09 0)
(0.01461731 1.2307306e-09 0)
(0.014549782 1.1784e-09 0)
(0.014483627 1.1285243e-09 0)
(0.014418768 1.0810436e-09 0)
(0.014355131 1.0357616e-09 0)
(0.014292645 9.9257551e-10 0)
(0.014231244 9.5130444e-10 0)
(0.014170864 9.1182257e-10 0)
(0.014111446 8.7410255e-10 0)
(0.014052933 8.3801189e-10 0)
(0.01399527 8.0347111e-10 0)
(0.013938403 7.7037397e-10 0)
(0.013882282 7.3862619e-10 0)
(0.013826859 7.0819779e-10 0)
(0.013772086 6.7901277e-10 0)
(0.013717917 6.5100561e-10 0)
(0.013664307 6.241124e-10 0)
(0.013611212 5.9826084e-10 0)
(0.013558591 5.7342049e-10 0)
(0.013506401 5.4954765e-10 0)
(0.0134546 5.2658977e-10 0)
(0.013403148 5.045027e-10 0)
(0.013352004 4.8323367e-10 0)
(0.013301129 4.6275616e-10 0)
(0.013250481 4.4303972e-10 0)
(0.013200021 4.2404518e-10 0)
(0.013149708 4.0573648e-10 0)
(0.013099501 3.8807721e-10 0)
(0.013049359 3.7104672e-10 0)
(0.012999241 3.5461831e-10 0)
(0.012949103 3.3876425e-10 0)
(0.012898902 3.2345183e-10 0)
(0.012848593 3.0865735e-10 0)
(0.012798131 2.9436554e-10 0)
(0.012747469 2.8055066e-10 0)
(0.012696557 2.671875e-10 0)
(0.012645345 2.5425412e-10 0)
(0.012593781 2.4173251e-10 0)
(0.012541811 2.2960096e-10 0)
(0.01248938 2.1783474e-10 0)
(0.012436431 2.0635719e-10 0)
(0.012382937 1.9540535e-10 0)
(0.012329914 1.8534454e-10 0)
(0.012278969 1.761167e-10 0)
(0.012230574 1.6756285e-10 0)
(0.012184546 1.5963824e-10 0)
(0.012140703 1.523146e-10 0)
(0.012098877 1.455394e-10 0)
(0.012058918 1.3925106e-10 0)
(0.012020695 1.333966e-10 0)
(0.011984088 1.2793072e-10 0)
(0.011948993 1.2281643e-10 0)
(0.011915313 1.180224e-10 0)
(0.01188296 1.1352359e-10 0)
(0.011851851 1.0929983e-10 0)
(0.011821912 1.0533662e-10 0)
(0.011793067 1.0161364e-10 0)
(0.011765253 9.8150946e-11 0)
(0.011738386 9.4873714e-11 0)
(0.011712444 9.2047963e-11 0)
(0.011687192 8.9000902e-11 0)
(0.011663002 8.7824338e-11 0)
(0.01163842 3.9706893e-10 0)
(0.01161746 9.9396775e-11 9.4933424e-23)
(0.011582578 3.0646548e-10 0)
(1 5.0371041e-10 0)
(0.99998733 1.3272306e-09 0)
(0.99996905 1.828817e-09 0)
(0.99994938 2.2958015e-09 0)
(0.99992712 2.9538774e-09 0)
(0.99990181 3.7973285e-09 0)
(0.99987318 4.8726694e-09 0)
(0.99984074 6.2630769e-09 0)
(0.99980386 8.071674e-09 0)
(0.99976178 1.0431458e-08 0)
(0.99971356 1.3521296e-08 0)
(0.99965805 1.7593197e-08 0)
(0.99959371 2.2991755e-08 0)
(0.99951861 3.0260762e-08 0)
(0.99942982 4.0082594e-08 0)
(0.99932396 5.3991062e-08 0)
(0.9991937 7.3003903e-08 0)
(0.99903439 1.0407439e-07 0)
(0.99881743 1.4325947e-07 0)
(0.99855583 2.3937004e-07 0)
(0.99807768 3.3271611e-07 0)
(0.99757894 9.510532e-07 0)
(0.99544175 4.4482746e-07 5.1188546e-20)
(0.99633433 0.00035496698 -6.0136959e-20)
(0.11411307 0.00036075566 0)
(0.088615088 5.7171971e-06 0)
(0.081268055 2.1024939e-06 0)
(0.076377259 1.4667068e-06 0)
(0.072783306 1.1155716e-06 0)
(0.069880752 9.0952148e-07 0)
(0.067436087 7.6138344e-07 0)
(0.065357179 6.4297094e-07 0)
(0.063574501 5.4866059e-07 0)
(0.062025864 4.7423447e-07 0)
(0.060663154 4.1443275e-07 0)
(0.059453063 3.6525697e-07 0)
(0.058369669 3.2478095e-07 0)
(0.057389975 2.9121294e-07 0)
(0.056497938 2.6263588e-07 0)
(0.055681534 2.3813426e-07 0)
(0.054929802 2.1706928e-07 0)
(0.054234167 1.9874922e-07 0)
(0.053587608 1.8270303e-07 0)
(0.052984203 1.6855908e-07 0)
(0.052419012 1.5602623e-07 0)
(0.051887756 1.44857e-07 0)
(0.051386889 1.348365e-07 0)
(0.050913381 1.2581874e-07 0)
(0.050464492 1.1767121e-07 0)
(0.050037934 1.1026971e-07 0)
(0.049631703 1.0352758e-07 0)
(0.049243992 9.7364143e-08 0)
(0.048873254 9.1705864e-08 0)
(0.048518117 8.6501142e-08 0)
(0.048177324 8.1702449e-08 0)
(0.047849764 7.7262622e-08 0)
(0.04753446 7.3144136e-08 0)
(0.047230522 6.9318607e-08 0)
(0.046937129 6.5758025e-08 0)
(0.046653544 6.24348e-08 0)
(0.046379112 5.9327244e-08 0)
(0.04611323 5.6417922e-08 0)
(0.045855331 5.3690542e-08 0)
(0.045604902 5.1128127e-08 0)
(0.04536148 4.8716445e-08 0)
(0.045124637 4.6444485e-08 0)
(0.04489397 4.4302251e-08 0)
(0.044669104 4.2279211e-08 0)
(0.044449695 4.0365588e-08 0)
(0.044235429 3.8553859e-08 0)
(0.044026007 3.6837172e-08 0)
(0.043821147 3.5209367e-08 0)
(0.043620585 3.3663804e-08 0)
(0.043424076 3.2194515e-08 0)
(0.043231392 3.0797027e-08 0)
(0.043042315 2.94669e-08 0)
(0.042856635 2.8200154e-08 0)
(0.042674156 2.6992551e-08 0)
(0.042494691 2.584018e-08 0)
(0.042318067 2.4740128e-08 0)
(0.042144112 2.3689475e-08 0)
(0.041972664 2.2685496e-08 0)
(0.041803565 2.1725442e-08 0)
(0.041636667 2.0806646e-08 0)
(0.041471825 1.992701e-08 0)
(0.041308901 1.9084584e-08 0)
(0.041147756 1.8277455e-08 0)
(0.040988259 1.7503749e-08 0)
(0.040830278 1.676156e-08 0)
(0.040673691 1.604934e-08 0)
(0.040518371 1.5365738e-08 0)
(0.040364197 1.4709354e-08 0)
(0.040211045 1.4078831e-08 0)
(0.040058796 1.3472785e-08 0)
(0.039907332 1.2890063e-08 0)
(0.039756532 1.2329656e-08 0)
(0.039606278 1.1790515e-08 0)
(0.039456447 1.1271601e-08 0)
(0.039306919 1.0771891e-08 0)
(0.039157573 1.0290515e-08 0)
(0.039008283 9.8266805e-09 0)
(0.038858922 9.3795794e-09 0)
(0.03870936 8.9483678e-09 0)
(0.038559465 8.5322827e-09 0)
(0.0384091 8.1306672e-09 0)
(0.038258126 7.7428554e-09 0)
(0.038106395 7.3681633e-09 0)
(0.037953758 7.0059271e-09 0)
(0.037800059 6.6555204e-09 0)
(0.037645137 6.3163126e-09 0)
(0.037488827 5.9876095e-09 0)
(0.037330961 5.6672741e-09 0)
(0.037171455 5.3617288e-09 0)
(0.037013342 5.080947e-09 0)
(0.036861411 4.8234271e-09 0)
(0.036717077 4.5848288e-09 0)
(0.036579791 4.3639434e-09 0)
(0.036449015 4.1600302e-09 0)
(0.036324246 3.9715727e-09 0)
(0.03620504 3.79678e-09 0)
(0.036091002 3.6341016e-09 0)
(0.035981782 3.4822731e-09 0)
(0.035877067 3.3402612e-09 0)
(0.035776568 3.2072079e-09 0)
(0.035680022 3.0824132e-09 0)
(0.035587187 2.965282e-09 0)
(0.035497835 2.8554166e-09 0)
(0.035411746 2.7522484e-09 0)
(0.03532873 2.6562824e-09 0)
(0.035248536 2.5654399e-09 0)
(0.0351711 2.4869834e-09 0)
(0.035095722 2.4020348e-09 0)
(0.03502351 2.3692667e-09 0)
(0.034950129 2.2232988e-09 0)
(0.034887549 2.7082342e-09 -1.4455722e-22)
(0.034783403 1.7099934e-09 7.4875782e-24)
(1 8.5258001e-10 0)
(0.99998718 2.2479122e-09 0)
(0.99996863 3.0993501e-09 0)
(0.99994864 3.8911995e-09 0)
(0.99992603 5.0061036e-09 0)
(0.99990034 6.4346729e-09 0)
(0.99987128 8.2555118e-09 0)
(0.99983836 1.0609205e-08 0)
(0.99980096 1.3670025e-08 0)
(0.9997583 1.7662664e-08 0)
(0.99970945 2.2889239e-08 0)
(0.99965323 2.9775316e-08 0)
(0.99958811 3.8902662e-08 0)
(0.99951214 5.1189252e-08 0)
(0.99942239 6.7786484e-08 0)
(0.99931542 9.1282967e-08 0)
(0.99918389 1.2339344e-07 0)
(0.99902313 1.7585124e-07 0)
(0.99880436 2.4198717e-07 0)
(0.99854077 4.0413408e-07 0)
(0.9980595 5.6156256e-07 0)
(0.99755801 1.6044859e-06 0)
(0.99540975 7.5402328e-07 -2.7092484e-20)
(0.99629886 0.00057305903 5.5358841e-54)
(0.18198282 0.00058638684 -8.0151845e-54)
(0.14167235 1.6717613e-05 0)
(0.13014435 6.1258473e-06 0)
(0.12266106 4.2111045e-06 0)
(0.11717881 3.1968859e-06 0)
(0.11274558 2.6078798e-06 0)
(0.10900147 2.1859193e-06 0)
(0.10580838 1.8483539e-06 0)
(0.1030632 1.5790098e-06 0)
(0.10067295 1.3661361e-06 0)
(0.09856534 1.1948761e-06 0)
(0.096690284 1.053903e-06 0)
(0.095008691 9.37756e-07 0)
(0.093485693 8.4134163e-07 0)
(0.092096977 7.5920442e-07 0)
(0.090824313 6.8872889e-07 0)
(0.089651017 6.2809611e-07 0)
(0.08856403 5.7533188e-07 0)
(0.087552644 5.290897e-07 0)
(0.086607811 4.8830872e-07 0)
(0.085721975 4.5215435e-07 0)
(0.084888581 4.1991966e-07 0)
(0.084102191 3.9098721e-07 0)
(0.083358162 3.64939e-07 0)
(0.082652276 3.4139667e-07 0)
(0.081981016 3.2000146e-07 0)
(0.081341302 3.0050522e-07 0)
(0.080730343 2.8267771e-07 0)
(0.080145756 2.6630634e-07 0)
(0.079585426 2.5124182e-07 0)
(0.079047413 2.3734937e-07 0)
(0.078529992 2.2449314e-07 0)
(0.078031657 2.1256373e-07 0)
(0.077551032 2.0147973e-07 0)
(0.077086842 1.9116159e-07 0)
(0.076637946 1.8152963e-07 0)
(0.076203328 1.7252029e-07 0)
(0.07578205 1.640837e-07 0)
(0.075373237 1.5617334e-07 0)
(0.074976087 1.4874041e-07 0)
(0.074589879 1.4174336e-07 0)
(0.074213951 1.3515023e-07 0)
(0.073847673 1.2893238e-07 0)
(0.073490462 1.2305979e-07 0)
(0.073141781 1.1750421e-07 0)
(0.072801139 1.122433e-07 0)
(0.072468072 1.0725754e-07 0)
(0.072142139 1.0252915e-07 0)
(0.071822925 9.8039218e-08 0)
(0.07151005 9.3770426e-08 0)
(0.071203156 8.970942e-08 0)
(0.070901899 8.5843614e-08 0)
(0.070605955 8.2161474e-08 0)
(0.070315013 7.8650925e-08 0)
(0.070028781 7.5300636e-08 0)
(0.069746985 7.2101878e-08 0)
(0.069469358 6.9046346e-08 0)
(0.069195644 6.6126174e-08 0)
(0.068925595 6.3333482e-08 0)
(0.068658975 6.0660577e-08 0)
(0.068395559 5.8101206e-08 0)
(0.068135126 5.5649764e-08 0)
(0.067877461 5.3300753e-08 0)
(0.067622352 5.1048773e-08 0)
(0.067369593 4.8888341e-08 0)
(0.067118989 4.6814881e-08 0)
(0.066870341 4.4824457e-08 0)
(0.066623454 4.2913065e-08 0)
(0.066378134 4.1076781e-08 0)
(0.066134191 3.931163e-08 0)
(0.065891434 3.7614206e-08 0)
(0.065649676 3.5981566e-08 0)
(0.065408723 3.4410708e-08 0)
(0.065168384 3.2898626e-08 0)
(0.064928463 3.1442369e-08 0)
(0.064688766 3.0039376e-08 0)
(0.064449095 2.8687345e-08 0)
(0.064209244 2.7383944e-08 0)
(0.063969005 2.612675e-08 0)
(0.063728165 2.4913542e-08 0)
(0.063486505 2.374238e-08 0)
(0.063243799 2.2611349e-08 0)
(0.062999811 2.1518478e-08 0)
(0.062754299 2.0461841e-08 0)
(0.062507011 1.9439601e-08 0)
(0.062257688 1.8449928e-08 0)
(0.062006063 1.7490814e-08 0)
(0.061751864 1.6556037e-08 0)
(0.061494951 1.566428e-08 0)
(0.061240215 1.4844637e-08 0)
(0.060995378 1.4092841e-08 0)
(0.060762727 1.3396269e-08 0)
(0.060541387 1.2751374e-08 0)
(0.060330495 1.2156e-08 0)
(0.06012925 1.1605724e-08 0)
(0.059936936 1.1095322e-08 0)
(0.059752927 1.0620267e-08 0)
(0.05957666 1.0176873e-08 0)
(0.059407633 9.76213e-09 0)
(0.059245384 9.3735381e-09 0)
(0.059089492 9.0090562e-09 0)
(0.058939568 8.666943e-09 0)
(0.058795247 8.3460414e-09 0)
(0.058656177 8.0446923e-09 0)
(0.058522051 7.7643774e-09 0)
(0.058392466 7.4990094e-09 0)
(0.058267322 7.2698631e-09 0)
(0.058145488 7.0216167e-09 0)
(0.058028757 6.9261735e-09 0)
(0.057910121 6.4580801e-09 0)
(0.05780893 7.9226701e-09 0)
(0.057640511 4.9602506e-09 0)
(1 1.2191653e-09 8.8868034e-24)
(0.99998699 3.2173303e-09 0)
(0.99996811 4.4394108e-09 0)
(0.99994774 5.5744568e-09 0)
(0.99992471 7.1708545e-09 0)
(0.99989854 9.2156893e-09 0)
(0.99986895 1.1821169e-08 0)
(0.99983546 1.5188019e-08 0)
(0.99979742 1.9565017e-08 0)
(0.99975406 2.5272815e-08 0)
(0.99970443 3.2742419e-08 0)
(0.99964736 4.2580808e-08 0)
(0.99958129 5.5617488e-08 0)
(0.99950427 7.316121e-08 0)
(0.99941333 9.6852603e-08 0)
(0.99930504 1.3038125e-07 0)
(0.99917197 1.76186e-07 0)
(0.99900946 2.5098843e-07 0)
(0.99878852 3.4525546e-07 0)
(0.99852253 5.7627274e-07 0)
(0.99803754 8.0043694e-07 0)
(0.99753277 2.285856e-06 0)
(0.99537152 1.0789193e-06 0)
(0.99625657 0.00078161125 -2.8874502e-54)
(0.2402467 0.0008086584 3.5590166e-54)
(0.18578471 3.3078435e-05 0)
(0.17075284 1.1949874e-05 0)
(0.16136932 8.1001217e-06 0)
(0.15456111 6.1379651e-06 0)
(0.14906628 5.0118254e-06 0)
(0.14442074 4.2083576e-06 0)
(0.14045186 3.5649201e-06 0)
(0.13703368 3.0504332e-06 0)
(0.1340525 2.643083e-06 0)
(0.13141973 2.3148307e-06 0)
(0.12907404 2.0442256e-06 0)
(0.12696749 1.8209854e-06 0)
(0.12505712 1.6354484e-06 0)
(0.12331306 1.4772028e-06 0)
(0.12171287 1.3412765e-06 0)
(0.120236 1.224216e-06 0)
(0.11886634 1.1222482e-06 0)
(0.11759068 1.0328031e-06 0)
(0.11639783 9.5385492e-07 0)
(0.11527846 8.8380665e-07 0)
(0.11422445 8.2130607e-07 0)
(0.11322907 7.6516604e-07 0)
(0.11228656 7.1458719e-07 0)
(0.11139168 6.6884516e-07 0)
(0.11054009 6.2724697e-07 0)
(0.10972794 5.8931774e-07 0)
(0.10895177 5.5461594e-07 0)
(0.10820861 5.2273009e-07 0)
(0.10749584 4.9337246e-07 0)
(0.10681103 4.6628593e-07 0)
(0.10615203 4.4120769e-07 0)
(0.10551697 4.1792487e-07 0)
(0.10490413 3.9628137e-07 0)
(0.10431191 3.7612506e-07 0)
(0.1037389 3.5730123e-07 0)
(0.10318381 3.3968569e-07 0)
(0.10264549 3.2318286e-07 0)
(0.10212282 3.0770347e-07 0)
(0.10161482 2.9315299e-07 0)
(0.10112056 2.794502e-07 0)
(0.10063923 2.6653318e-07 0)
(0.10017004 2.5434678e-07 0)
(0.099712241 2.4283337e-07 0)
(0.099265172 2.3193786e-07 0)
(0.098828212 2.216162e-07 0)
(0.098400777 2.1183098e-07 0)
(0.097982313 2.0254775e-07 0)
(0.097572297 1.9373012e-07 0)
(0.097170248 1.8534422e-07 0)
(0.096775716 1.7736364e-07 0)
(0.096388268 1.6976426e-07 0)
(0.096007493 1.6252368e-07 0)
(0.095632997 1.5561863e-07 0)
(0.095264412 1.4902696e-07 0)
(0.094901391 1.4273132e-07 0)
(0.094543596 1.3671578e-07 0)
(0.094190701 1.3096506e-07 0)
(0.093842392 1.2546391e-07 0)
(0.093498369 1.2019734e-07 0)
(0.093158345 1.1515292e-07 0)
(0.092822039 1.1031982e-07 0)
(0.092489177 1.0568738e-07 0)
(0.092159489 1.0124512e-07 0)
(0.091832712 9.6982353e-08 0)
(0.091508594 9.2890021e-08 0)
(0.091186883 8.8960447e-08 0)
(0.090867328 8.5185882e-08 0)
(0.090549682 8.1558682e-08 0)
(0.090233696 7.8071101e-08 0)
(0.089919129 7.4716407e-08 0)
(0.089605737 7.1488838e-08 0)
(0.089293271 6.838257e-08 0)
(0.088981484 6.5391749e-08 0)
(0.088670123 6.2510601e-08 0)
(0.088358936 5.9734064e-08 0)
(0.088047666 5.7057636e-08 0)
(0.087736047 5.4476775e-08 0)
(0.087423807 5.1986762e-08 0)
(0.087110669 4.9583224e-08 0)
(0.086796348 4.7262326e-08 0)
(0.086480549 4.5020337e-08 0)
(0.086162963 4.2853409e-08 0)
(0.085843274 4.0757756e-08 0)
(0.085521152 3.8729749e-08 0)
(0.085196257 3.6765787e-08 0)
(0.084868237 3.4861923e-08 0)
(0.084536738 3.3005826e-08 0)
(0.084201569 3.1234575e-08 0)
(0.083869121 2.960601e-08 0)
(0.083549486 2.8111815e-08 0)
(0.083245663 2.6727012e-08 0)
(0.082956522 2.5444655e-08 0)
(0.082680951 2.4260506e-08 0)
(0.082417909 2.3165834e-08 0)
(0.082166475 2.2150266e-08 0)
(0.081925837 2.1204824e-08 0)
(0.081695269 2.0322213e-08 0)
(0.081474117 1.9496476e-08 0)
(0.081261788 1.872267e-08 0)
(0.081057734 1.7996757e-08 0)
(0.080861449 1.7315284e-08 0)
(0.080672463 1.6675973e-08 0)
(0.080490318 1.6075534e-08 0)
(0.080314615 1.5516958e-08 0)
(0.080144829 1.4988083e-08 0)
(0.079980833 1.4531518e-08 0)
(0.079821144 1.4036492e-08 0)
(0.07966812 1.3847265e-08 0)
(0.079512563 1.2932632e-08 0)
(0.079379862 1.5847265e-08 0)
(0.079158973 9.9274931e-09 0)
(1 1.6101991e-09 0)
(0.99998677 4.2538862e-09 0)
(0.99996749 5.8752187e-09 0)
(0.99994667 7.3787281e-09 0)
(0.99992312 9.4906277e-09 0)
(0.99989638 1.2194693e-08 0)
(0.99986616 1.5638836e-08 0)
(0.99983197 2.0087703e-08 0)
(0.99979316 2.5869235e-08 0)
(0.99974896 3.3405959e-08 0)
(0.99969841 4.3265604e-08 0)
(0.99964031 5.6247478e-08 0)
(0.99957311 7.3443535e-08 0)
(0.99949483 9.6576384e-08 0)
(0.99940248 1.2780407e-07 0)
(0.9992926 1.7198149e-07 0)
(0.99915771 2.3230973e-07 0)
(0.99899312 3.3078862e-07 0)
(0.99876961 4.548319e-07 0)
(0.99850079 7.5867411e-07 0)
(0.99801142 1.0532439e-06 0)
(0.99750278 3.0062384e-06 0)
(0.99532649 1.4253791e-06 0)
(0.99620682 0.00098562086 0)
(0.29057004 0.0010302402 0)
(0.22250894 5.4868147e-05 0)
(0.20431126 1.9361745e-05 0)
(0.19339888 1.2905146e-05 0)
(0.18558672 9.7422787e-06 0)
(0.1793099 7.9531947e-06 0)
(0.17400764 6.6846904e-06 0)
(0.16947646 5.6693903e-06 0)
(0.16557216 4.8567165e-06 0)
(0.16216522 4.2126237e-06 0)
(0.15915477 3.6930864e-06 0)
(0.15647111 3.2643753e-06 0)
(0.15405971 2.9104115e-06 0)
(0.15187165 2.6160018e-06 0)
(0.14987297 2.3646956e-06 0)
(0.14803817 2.1486694e-06 0)
(0.14634386 1.9624916e-06 0)
(0.14477173 1.8002009e-06 0)
(0.14330677 1.6577442e-06 0)
(0.14193624 1.531924e-06 0)
(0.14064954 1.4202187e-06 0)
(0.1394374 1.3204918e-06 0)
(0.13829218 1.2308599e-06 0)
(0.13720733 1.1500622e-06 0)
(0.13617688 1.0769533e-06 0)
(0.13519586 1.0104311e-06 0)
(0.13425992 9.4974638e-07 0)
(0.13336509 8.9420012e-07 0)
(0.13250799 8.4313614e-07 0)
(0.13168563 7.9609867e-07 0)
(0.13089525 7.526826e-07 0)
(0.13013439 7.1246869e-07 0)
(0.1294009 6.7511659e-07 0)
(0.12869284 6.4038008e-07 0)
(0.12800837 6.0801902e-07 0)
(0.12734587 5.7778585e-07 0)
(0.12670389 5.4948138e-07 0)
(0.1260811 5.2295484e-07 0)
(0.12547622 4.9806514e-07 0)
(0.12488812 4.7466128e-07 0)
(0.12431576 4.5261275e-07 0)
(0.12375819 4.3182107e-07 0)
(0.12321451 4.1219897e-07 0)
(0.12268388 3.9365505e-07 0)
(0.12216551 3.7610091e-07 0)
(0.12165872 3.5946541e-07 0)
(0.12116282 3.4368947e-07 0)
(0.12067718 3.2871837e-07 0)
(0.1202012 3.1449422e-07 0)
(0.11973433 3.0096255e-07 0)
(0.11927604 2.8808064e-07 0)
(0.11882586 2.7581042e-07 0)
(0.11838329 2.6411617e-07 0)
(0.11794789 2.5296088e-07 0)
(0.11751923 2.4230893e-07 0)
(0.11709692 2.3213216e-07 0)
(0.11668056 2.2240535e-07 0)
(0.11626978 2.1310416e-07 0)
(0.11586422 2.042043e-07 0)
(0.11546352 1.9568164e-07 0)
(0.11506737 1.8751605e-07 0)
(0.11467543 1.7969027e-07 0)
(0.11428738 1.7218736e-07 0)
(0.11390292 1.6499053e-07 0)
(0.11352174 1.5808266e-07 0)
(0.11314354 1.5144906e-07 0)
(0.11276804 1.4507744e-07 0)
(0.11239495 1.3895547e-07 0)
(0.11202397 1.330709e-07 0)
(0.11165481 1.2741132e-07 0)
(0.11128721 1.219658e-07 0)
(0.11092086 1.167251e-07 0)
(0.11055549 1.1167994e-07 0)
(0.1101908 1.0682093e-07 0)
(0.1098265 1.0213879e-07 0)
(0.10946229 9.7625317e-08 0)
(0.10909787 9.3273285e-08 0)
(0.10873293 8.9075425e-08 0)
(0.10836716 8.5024176e-08 0)
(0.10800022 8.111247e-08 0)
(0.10763178 7.7334095e-08 0)
(0.1072615 7.3683079e-08 0)
(0.10688901 7.015325e-08 0)
(0.10651394 6.6738491e-08 0)
(0.1061359 6.3432921e-08 0)
(0.1057545 6.0230729e-08 0)
(0.1053693 5.7125526e-08 0)
(0.1049799 5.4097238e-08 0)
(0.10458607 5.1206293e-08 0)
(0.10419533 4.8547127e-08 0)
(0.10381955 4.6106485e-08 0)
(0.10346228 4.3843849e-08 0)
(0.10312221 4.1748082e-08 0)
(0.10279802 3.9812406e-08 0)
(0.10248851 3.8022586e-08 0)
(0.1021926 3.6361705e-08 0)
(0.10190934 3.4815133e-08 0)
(0.10163789 3.337101e-08 0)
(0.10137748 3.2019658e-08 0)
(0.10112742 3.0753046e-08 0)
(0.10088706 2.9564612e-08 0)
(0.10065583 2.844874e-08 0)
(0.10043316 2.7401745e-08 0)
(0.10021852 2.6418271e-08 0)
(0.10001144 2.5503286e-08 0)
(0.099811313 2.4636812e-08 0)
(0.099617982 2.3889063e-08 0)
(0.099429702 2.3077587e-08 0)
(0.099249263 2.2769507e-08 0)
(0.099065791 2.1273501e-08 0)
(0.098909274 2.6067583e-08 -1.3185454e-22)
(0.09864873 1.6325791e-08 6.8375247e-24)
(1 2.0332982e-09 0)
(0.99998652 5.378642e-09 0)
(0.99996676 7.4370467e-09 0)
(0.9999454 9.3423718e-09 0)
(0.99992124 1.2014554e-08 0)
(0.99989382 1.5434391e-08 0)
(0.99986285 1.9788257e-08 0)
(0.99982783 2.5409677e-08 0)
(0.99978812 3.2711862e-08 0)
(0.99974292 4.2226961e-08 0)
(0.99969126 5.4669696e-08 0)
(0.99963195 7.1046001e-08 0)
(0.99956342 9.2729534e-08 0)
(0.99948365 1.2188699e-07 0)
(0.99938964 1.6123074e-07 0)
(0.99927789 2.1686515e-07 0)
(0.99914086 2.9280356e-07 0)
(0.99897383 4.1670333e-07 0)
(0.99874731 5.7267818e-07 0)
(0.99847517 9.545207e-07 0)
(0.99798071 1.324334e-06 0)
(0.99746757 3.7776132e-06 0)
(0.995274 1.8001786e-06 0)
(0.99614889 0.0011884875 0)
(0.33545147 0.0012548832 0)
(0.25435517 8.287219e-05 0)
(0.23311809 2.85398e-05 0)
(0.22083933 1.8674992e-05 0)
(0.21217629 1.4023318e-05 0)
(0.20525454 1.1433777e-05 0)
(0.19941747 9.6120008e-06 0)
(0.19443157 8.1565656e-06 0)
(0.19013622 6.9914411e-06 0)
(0.18638828 6.0677035e-06 0)
(0.18307651 5.3223055e-06 0)
(0.18012408 4.7069566e-06 0)
(0.17747094 4.1987155e-06 0)
(0.17506325 3.7758377e-06 0)
(0.17286361 3.414728e-06 0)
(0.17084402 3.1041926e-06 0)
(0.16897873 2.8364585e-06 0)
(0.16724764 2.6029792e-06 0)
(0.16563426 2.3979536e-06 0)
(0.16412463 2.2168022e-06 -2.1245021e-33)
(0.16270707 2.0559145e-06 0)
(0.16137143 1.9122302e-06 0)
(0.16010929 1.7830423e-06 0)
(0.15891348 1.6665475e-06 0)
(0.15777743 1.5611049e-06 0)
(0.1566957 1.4651282e-06 0)
(0.1556635 1.3775479e-06 0)
(0.15467648 1.2973608e-06 0)
(0.15373092 1.2236205e-06 0)
(0.15282353 1.1556743e-06 0)
(0.15195128 1.092944e-06 0)
(0.15111147 1.0348246e-06 0)
(0.15030175 9.8082435e-07 0)
(0.14951997 9.3059235e-07 0)
(0.14876412 8.8378534e-07 0)
(0.14803241 8.4004516e-07 0)
(0.14732324 7.990835e-07 0)
(0.14663516 7.6068546e-07 0)
(0.14596677 7.2464937e-07 0)
(0.14531681 6.9075711e-07 0)
(0.14468414 6.5881947e-07 0)
(0.14406772 6.2869501e-07 0)
(0.14346656 6.0025904e-07 0)
(0.14287972 5.7338049e-07 0)
(0.14230636 5.4793121e-07 0)
(0.1417457 5.2380776e-07 0)
(0.141197 5.0092578e-07 0)
(0.14065956 4.7920685e-07 0)
(0.14013272 4.5856775e-07 0)
(0.13961587 4.3892943e-07 0)
(0.13910844 4.2022966e-07 0)
(0.13860989 4.0241413e-07 0)
(0.13811969 3.8543153e-07 0)
(0.13763733 3.6922866e-07 0)
(0.13716236 3.537538e-07 0)
(0.13669434 3.3896585e-07 0)
(0.13623282 3.2482879e-07 0)
(0.13577741 3.1130764e-07 0)
(0.13532769 2.9836745e-07 0)
(0.13488328 2.8597323e-07 0)
(0.13444383 2.7409558e-07 0)
(0.13400896 2.6270975e-07 0)
(0.13357833 2.5179141e-07 0)
(0.1331516 2.4131638e-07 0)
(0.13272842 2.3125987e-07 0)
(0.13230847 2.2160043e-07 0)
(0.13189143 2.1232036e-07 0)
(0.13147698 2.0340195e-07 0)
(0.13106479 1.9482756e-07 0)
(0.13065455 1.8657918e-07 0)
(0.13024595 1.7864093e-07 0)
(0.12983866 1.7099943e-07 0)
(0.12943237 1.6364133e-07 0)
(0.12902675 1.5655313e-07 0)
(0.12862149 1.4972134e-07 0)
(0.12821624 1.4313401e-07 0)
(0.12781068 1.3678072e-07 0)
(0.12740446 1.30651e-07 0)
(0.12699722 1.2473393e-07 0)
(0.1265886 1.1901923e-07 0)
(0.12617824 1.1349787e-07 0)
(0.12576573 1.0816123e-07 0)
(0.12535068 1.0300042e-07 0)
(0.12493268 9.8006549e-08 0)
(0.12451127 9.3171051e-08 0)
(0.12408603 8.8485501e-08 0)
(0.12365649 8.3940589e-08 0)
(0.12322217 7.9507029e-08 0)
(0.12278282 7.5273002e-08 0)
(0.12234684 7.137668e-08 0)
(0.12192751 6.7799282e-08 0)
(0.1215288 6.4481976e-08 0)
(0.12114922 6.1408774e-08 0)
(0.12078734 5.8569907e-08 0)
(0.12044181 5.5944485e-08 0)
(0.12011143 5.3507715e-08 0)
(0.11979515 5.1238194e-08 0)
(0.11949202 4.9118609e-08 0)
(0.1192012 4.7134844e-08 0)
(0.11892191 4.5275186e-08 0)
(0.11865345 4.3530063e-08 0)
(0.11839516 4.1891272e-08 0)
(0.11814642 4.035346e-08 0)
(0.11790663 3.8908793e-08 0)
(0.11767528 3.7564664e-08 0)
(0.11745167 3.629164e-08 0)
(0.11723564 3.5193429e-08 0)
(0.11702525 3.4000641e-08 0)
(0.1168236 3.3550678e-08 0)
(0.11661853 3.1347722e-08 0)
(0.1164436 3.8419395e-08 0)
(0.11615241 2.4052467e-08 -3.3108728e-24)
(1 2.4970988e-09 0)
(0.99998622 6.6157617e-09 0)
(0.99996591 9.159932e-09 0)
(0.99994391 1.150988e-08 0)
(0.99991904 1.4799583e-08 0)
(0.99989082 1.9007386e-08 0)
(0.99985896 2.4361615e-08 0)
(0.99982297 3.1270954e-08 0)
(0.99978218 4.0241609e-08 0)
(0.99973581 5.1925162e-08 0)
(0.99968286 6.7196298e-08 0)
(0.99962214 8.7285631e-08 0)
(0.99955203 1.1387282e-07 0)
(0.99947052 1.4960675e-07 0)
(0.99937457 1.9780061e-07 0)
(0.99926065 2.6591429e-07 0)
(0.99912111 3.588361e-07 0)
(0.99895125 5.1035843e-07 0)
(0.99872123 7.0098318e-07 0)
(0.99844524 1.1673417e-06 0)
(0.9979449 1.6184884e-06 0)
(0.99742659 4.6131286e-06 0)
(0.99521337 2.2109443e-06 0)
(0.99608196 0.0013927052 0)
(0.3767406 0.0014870141 0)
(0.28310525 0.00011749504 0)
(0.25884812 3.9769189e-05 0)
(0.24526948 2.5537807e-05 0)
(0.23583211 1.9057346e-05 0)
(0.22833719 1.5509181e-05 0)
(0.22203019 1.3034627e-05 0)
(0.21664703 1.1062883e-05 0)
(0.21201149 9.4850227e-06 0)
(0.20796799 8.2340949e-06 0)
(0.20439588 7.2246061e-06 0)
(0.20121188 6.3911398e-06 0)
(0.19835097 5.7026788e-06 0)
(0.19575493 5.1297866e-06 0)
(0.19338331 4.6404988e-06 0)
(0.19120582 4.2196658e-06 0)
(0.18919467 3.8567634e-06 0)
(0.18732818 3.5402203e-06 0)
(0.18558856 3.2621934e-06 0)
(0.18396073 3.0164869e-06 1.9260443e-33)
(0.18243214 2.798221e-06 0)
(0.1809918 2.603256e-06 0)
(0.17963067 2.427921e-06 0)
(0.17834099 2.269781e-06 0)
(0.17711571 2.126616e-06 0)
(0.17594894 1.9962746e-06 0)
(0.17483554 1.8773156e-06 0)
(0.1737708 1.7683804e-06 0)
(0.17275073 1.6681823e-06 0)
(0.17177178 1.5758402e-06 0)
(0.17083068 1.490575e-06 0)
(0.16992452 1.4115635e-06 0)
(0.16905076 1.3381367e-06 0)
(0.1682071 1.2698229e-06 0)
(0.16739137 1.2061594e-06 0)
(0.16660163 1.1466576e-06 0)
(0.16583616 1.0909248e-06 0)
(0.1650934 1.0386721e-06 0)
(0.16437184 9.8962796e-07 0)
(0.16367011 9.434953e-07 0)
(0.162987 9.000158e-07 0)
(0.16232138 8.5899819e-07 0)
(0.16167218 8.2027467e-07 0)
(0.16103839 7.8366803e-07 0)
(0.1604191 7.4900326e-07 0)
(0.15981347 7.161389e-07 0)
(0.1592207 6.8496145e-07 0)
(0.15864004 6.5536508e-07 0)
(0.15807078 6.272371e-07 0)
(0.15751225 6.0046941e-07 0)
(0.15696384 5.7497685e-07 0)
(0.15642497 5.5068636e-07 0)
(0.15589506 5.2752863e-07 0)
(0.15537358 5.0543157e-07 0)
(0.15486002 4.8432452e-07 0)
(0.15435391 4.6415108e-07 0)
(0.15385478 4.4486275e-07 0)
(0.15336218 4.264123e-07 0)
(0.15287569 4.0875234e-07 0)
(0.15239488 3.9183509e-07 0)
(0.15191936 3.7562023e-07 0)
(0.15144875 3.6007433e-07 0)
(0.15098266 3.4516451e-07 0)
(0.15052073 3.3085799e-07 0)
(0.15006258 3.1712098e-07 0)
(0.14960786 3.039241e-07 0)
(0.14915623 2.9124329e-07 0)
(0.14870734 2.7905466e-07 0)
(0.14826083 2.6733429e-07 0)
(0.14781638 2.5605766e-07 0)
(0.14737362 2.4520299e-07 0)
(0.14693224 2.3475211e-07 0)
(0.14649187 2.2468699e-07 0)
(0.14605217 2.1498931e-07 0)
(0.14561279 2.0564067e-07 0)
(0.14517336 1.9662474e-07 0)
(0.14473353 1.8792737e-07 0)
(0.14429292 1.7953436e-07 0)
(0.14385115 1.7143092e-07 0)
(0.14340782 1.63603e-07 0)
(0.14296253 1.5603826e-07 0)
(0.14251486 1.4872504e-07 0)
(0.14206437 1.4165128e-07 0)
(0.1416106 1.3480487e-07 0)
(0.14115309 1.2817408e-07 0)
(0.14069136 1.2174746e-07 0)
(0.14022489 1.1551227e-07 0)
(0.13975319 1.0942849e-07 0)
(0.13927595 1.0361651e-07 0)
(0.13880235 9.8265563e-08 0)
(0.13834681 9.335095e-08 0)
(0.13791364 8.8792797e-08 0)
(0.13750126 8.4569609e-08 0)
(0.13710809 8.0668094e-08 0)
(0.13673266 7.7059476e-08 0)
(0.13637368 7.3709647e-08 0)
(0.13603 7.0589242e-08 0)
(0.13570062 6.7674561e-08 0)
(0.1353846 6.4946299e-08 0)
(0.13508111 6.2388434e-08 0)
(0.13478938 5.998787e-08 0)
(0.13450869 5.773337e-08 0)
(0.13423837 5.5617631e-08 0)
(0.13397778 5.362991e-08 0)
(0.13372635 5.1780484e-08 0)
(0.13348334 5.0028746e-08 0)
(0.13324856 4.8518061e-08 0)
(0.13301988 4.687612e-08 0)
(0.13280074 4.6260167e-08 0)
(0.13257781 4.3223972e-08 -1.6262648e-23)
(0.13238767 5.298031e-08 0)
(0.1320712 3.3159206e-08 0)
(1 3.0115164e-09 0)
(0.99998588 7.9933145e-09 0)
(0.99996492 1.1084959e-08 0)
(0.99994218 1.3933549e-08 0)
(0.99991646 1.7912619e-08 0)
(0.99988731 2.2998863e-08 0)
(0.99985441 2.9466897e-08 0)
(0.99981728 3.7808336e-08 0)
(0.99977525 4.8631956e-08 0)
(0.99972751 6.2720898e-08 0)
(0.99967306 8.1125829e-08 0)
(0.99961068 1.0532432e-07 0)
(0.99953874 1.3733194e-07 0)
(0.99945522 1.8032674e-07 0)
(0.99935701 2.3827978e-07 0)
(0.99924056 3.2013695e-07 0)
(0.99909814 4.3173798e-07 0)
(0.998925 6.1359702e-07 0)
(0.99869096 8.4221837e-07 0)
(0.99841055 1.4010951e-06 0)
(0.99790347 1.9410304e-06 0)
(0.99737924 5.5273511e-06 0)
(0.99514384 2.6664151e-06 0)
(0.99600516 0.0016001955 -7.6581366e-54)
(0.4156717 0.0017292669 5.8025396e-54)
(0.3099084 0.00016077497 -6.1953495e-20)
(0.28258046 5.341844e-05 0)
(0.26771667 3.36669e-05 0)
(0.25754307 2.4950536e-05 0)
(0.24951499 2.0258627e-05 0)
(0.2427754 1.7016822e-05 0)
(0.23702839 1.4441953e-05 0)
(0.23208232 1.2382877e-05 0)
(0.22776982 1.0750833e-05 0)
(0.22396132 9.4339524e-06 0)
(0.22056751 8.3467559e-06 0)
(0.21751872 7.4487482e-06 0)
(0.21475265 6.7015086e-06 0)
(0.212226 6.0633155e-06 0)
(0.20990635 5.5143879e-06 0)
(0.20776405 5.0409816e-06 0)
(0.20577594 4.6280037e-06 0)
(0.20392302 4.2652352e-06 0)
(0.20218924 3.9445979e-06 0)
(0.20056118 3.6597384e-06 0)