/*--------------------------------*- C++ -*----------------------------------*\
  =========                 |
  \\      /  F ield         | OpenFOAM: The Open Source CFD Toolbox
   \\    /   O peration     | Website:  https://openfoam.org
    \\  /    A nd           | Version:  12
     \\/     M anipulation  |
\*---------------------------------------------------------------------------*/
FoamFile
{
    format      ascii;
    class       volScalarField;
    location    "500";
    object      yPlus;
}
// * * * * * * * * * * * * * * * * * * * * * * * * * * * * * * * * * * * * * //

dimensions      [];

internalField   uniform 0;

boundaryField
{
    inlet
    {
        type            calculated;
        value           uniform 0;
    }
    top
    {
        type            calculated;
        value           uniform 0;
    }
    outlet
    {
        type            calculated;
        value           uniform 0;
    }
    slipsurface
    {
        type            calculated;
        value           uniform 0;
    }
    bottom
    {
        type            calculated;
        value           nonuniform List<scalar> 
100
(
116.33919
115.18968
113.91758
112.56707
111.1791
109.78206
108.38641
106.99655
105.61658
104.25008
102.90001
101.5687
100.25879
98.973193
97.715404
96.490063
95.303996
94.167107
93.087804
92.073464
91.130659
90.264945
89.480376
88.779776
88.163185
87.62631
87.160946
86.755999
86.398104
86.073499
85.770312
85.479923
85.196944
84.918475
84.643184
84.370077
84.097863
83.825139
83.550814
83.274607
82.997199
82.719757
82.443413
82.168874
81.896468
81.626421
81.358987
81.094394
80.83282
80.574432
80.319314
80.06744
79.818772
79.57333
79.331124
79.092086
78.856132
78.623228
78.393312
78.166306
77.942147
77.720771
77.502097
77.286056
77.072597
76.861655
76.653167
76.447081
76.243333
76.041861
75.842612
75.645522
75.450538
75.257604
75.066666
74.877671
74.690568
74.505307
74.321843
74.140127
73.960113
73.781758
73.605017
73.429849
73.256212
73.084063
72.913363
72.744068
72.576135
72.40951
72.24416
72.079964
71.916989
71.754738
71.594028
71.432084
71.274588
71.105686
70.965117
70.702505
)
;
    }
    frontandback
    {
        type            empty;
    }
}


// ************************************************************************* //
