/*--------------------------------*- C++ -*----------------------------------*\
  =========                 |
  \\      /  F ield         | OpenFOAM: The Open Source CFD Toolbox
   \\    /   O peration     | Website:  https://openfoam.org
    \\  /    A nd           | Version:  12
     \\/     M anipulation  |
\*---------------------------------------------------------------------------*/
FoamFile
{
    format      ascii;
    class       volScalarField;
    location    "2000";
    object      p;
}
// * * * * * * * * * * * * * * * * * * * * * * * * * * * * * * * * * * * * * //

dimensions      [0 2 -2 0 0 0 0];

internalField   nonuniform List<scalar> 
7480
(
0.0053224064
0.0052834185
0.0051751385
0.00514265
0.0051596993
0.0051941225
0.0052419575
0.0053069605
0.0053955276
0.0055146982
0.0056850876
0.0059235889
0.0063922683
0.0068176457
0.006759925
0.0063258542
0.0058585379
0.0054884689
0.0051728735
0.0048906464
0.0046449488
0.0044348904
0.004257264
0.0040905089
0.0039237353
0.0037618139
0.0036086256
0.0034772742
0.0033647555
0.0032576483
0.0031596295
0.0030739129
0.0029995549
0.0029356391
0.0028806563
0.002832839
0.0027906272
0.002754119
0.0027221376
0.0026920556
0.0026634451
0.0026364019
0.0026110672
0.0025861244
0.002559809
0.0025319797
0.0025030875
0.002474342
0.0024450993
0.0024141947
0.0023810465
0.0023451983
0.0023083628
0.0022710133
0.0022319023
0.0021912048
0.0021500129
0.0021100402
0.0020706726
0.0020298409
0.0019880291
0.0019462631
0.0019055886
0.0018648378
0.0018227707
0.0017805754
0.0017395091
0.0016985999
0.0016563388
0.0016134243
0.0015709131
0.0015280397
0.0014839882
0.0014394855
0.0013952346
0.0013505599
0.001304756
0.0012584991
0.0012116538
0.0011641325
0.0011157239
0.0010668376
0.0010176367
0.00096711662
0.00091603534
0.00086439244
0.00081144569
0.00075831428
0.0007045924
0.00064964444
0.00059469487
0.00053922282
0.00048323413
0.0004278008
0.00037411134
0.0003200266
0.00028139088
0.00022268263
0.00035999793
-0.00024141976
0.0052598768
0.0052211835
0.0051487192
0.0051268894
0.0051474408
0.0051860495
0.0052360689
0.0053020243
0.0053909939
0.0055101855
0.0056790784
0.0059146683
0.0063426544
0.0067158532
0.0066577275
0.0062993851
0.0058864317
0.0055412637
0.0052386915
0.0049602731
0.0047154263
0.0045011223
0.0043095925
0.0041288722
0.0039561431
0.003792519
0.003641251
0.0035093239
0.0033933723
0.0032848975
0.0031861473
0.0030997
0.0030244613
0.0029593199
0.0029028477
0.0028534109
0.0028095383
0.0027715244
0.0027383223
0.0027071816
0.0026774597
0.0026492563
0.0026228534
0.0025970067
0.0025697905
0.002541073
0.0025114292
0.0024820277
0.0024521922
0.0024207545
0.0023871786
0.0023509784
0.0023138185
0.0022761726
0.0022367925
0.002195858
0.0021544558
0.0021143108
0.0020747889
0.0020337921
0.0019918122
0.0019498815
0.0019090492
0.0018681418
0.0018259196
0.0017835752
0.001742367
0.0017013215
0.0016589283
0.0016158892
0.0015732607
0.0015302749
0.0014861158
0.0014415114
0.0013971637
0.0013523959
0.0013065034
0.0012601635
0.0012132395
0.0011656437
0.0011171641
0.0010682101
0.0010189445
0.00096836259
0.00091722354
0.00086552578
0.00081252686
0.00075934609
0.00070557666
0.00065058368
0.00059559197
0.00054007969
0.00048405309
0.00042858361
0.00037486133
0.00032074374
0.00028206746
0.00022339244
0.00036082787
-0.00024082579
0.0052181732
0.0052040502
0.0051589935
0.0051373316
0.0051540259
0.0051919258
0.0052408579
0.0053053609
0.0053927887
0.0055102402
0.005674952
0.0059036625
0.0062707075
0.0065848636
0.0065458209
0.0062305912
0.0058390043
0.0054975818
0.0051985452
0.0049247217
0.0046831611
0.0044715294
0.0042825757
0.0041087029
0.0039447039
0.0037889905
0.0036453996
0.0035171117
0.0034024526
0.0032972613
0.0032010001
0.0031154812
0.0030408298
0.0029759383
0.0029193939
0.0028696771
0.0028255176
0.0027868394
0.0027525126
0.0027204255
0.0026898686
0.0026607692
0.0026335423
0.0026071083
0.0025794179
0.0025501627
0.0025199293
0.0024899586
0.0024596599
0.0024275092
0.0023931515
0.0023564898
0.0023190157
0.0022811245
0.0022415143
0.0022003737
0.0021587949
0.0021185091
0.0020788525
0.0020377047
0.0019955662
0.0019534861
0.0019125191
0.001871476
0.0018291165
0.0017866413
0.0017453125
0.0017041505
0.0016616377
0.0016184816
0.0015757427
0.0015326501
0.0014883877
0.0014436858
0.001399246
0.0013543886
0.0013084089
0.0012619866
0.0012149839
0.0011673134
0.001118762
0.0010697398
0.0010204084
0.00096976232
0.00091856345
0.00086680861
0.00081375489
0.00076052267
0.00070670296
0.00065166167
0.00059662498
0.00054106938
0.00048500177
0.00042949308
0.0003757347
0.00032157903
0.0002828748
0.00022428975
0.00036174242
-0.00024009142
0.0051850589
0.0051841988
0.0051491718
0.0051293168
0.0051453484
0.005183371
0.0052327502
0.00529734
0.0053843261
0.0055005664
0.0056607409
0.0058795347
0.0061954015
0.0064684551
0.0064494246
0.0061697484
0.0058042557
0.0054772445
0.0051907928
0.004927203
0.004690831
0.0044819322
0.0042939145
0.004121007
0.0039567447
0.0037999908
0.003654691
0.0035239169
0.0034076859
0.0033023471
0.0032056866
0.0031193954
0.0030445489
0.0029800336
0.0029243163
0.0028758745
0.0028333671
0.0027955642
0.0027613343
0.0027296816
0.0026997212
0.0026709133
0.0026430216
0.0026154417
0.0025871141
0.0025574494
0.002526761
0.0024963542
0.0024657579
0.0024331407
0.0023982463
0.0023612833
0.002323601
0.0022856207
0.0022459332
0.0022046868
0.0021629692
0.0021224193
0.0020824969
0.0020412069
0.0019989586
0.0019567862
0.0019157406
0.0018746051
0.0018321411
0.00178957
0.0017481495
0.0017068843
0.0016642611
0.0016209985
0.0015781611
0.0015349729
0.0014906165
0.0014458255
0.0014013027
0.0013563645
0.0013103032
0.0012638024
0.0012167241
0.0011689818
0.001120361
0.0010712732
0.0010218788
0.00097116988
0.00091991265
0.00086810191
0.000814994
0.00076171121
0.00070784161
0.00065275197
0.0005976707
0.00054207185
0.00048596291
0.00043041471
0.00037661894
0.00032242436
0.00028369417
0.00022508065
0.00036260092
-0.00023939282
0.0051543186
0.0051614238
0.005137285
0.0051247434
0.0051427989
0.0051813332
0.0052312383
0.0052956501
0.0053814722
0.0054952932
0.0056494671
0.0058544173
0.0061295969
0.006365908
0.0063567401
0.0061067268
0.0057672942
0.0054546241
0.0051779129
0.0049211732
0.0046877402
0.0044800451
0.0042926739
0.0041203427
0.0039568859
0.0038015702
0.0036577968
0.0035283046
0.0034130615
0.003308376
0.0032119915
0.0031256658
0.0030505187
0.0029854083
0.002928867
0.0028795486
0.0028361602
0.0027972976
0.0027623575
0.0027307803
0.0027014864
0.0026737779
0.0026468135
0.0026197653
0.002592058
0.0025632109
0.0025332563
0.0025026021
0.002471041
0.0024379204
0.0024028372
0.0023657289
0.0023278735
0.0022898003
0.0022500902
0.0022087713
0.0021668656
0.0021259984
0.0020858744
0.002044536
0.0020022332
0.001959986
0.0019188745
0.0018776775
0.0018351403
0.0017925143
0.0017509894
0.0017095584
0.0016668064
0.0016234624
0.0015805582
0.0015372998
0.001492869
0.0014480067
0.001403414
0.0013583984
0.0013122572
0.0012656809
0.0012185292
0.0011707173
0.0011220284
0.0010728775
0.0010234222
0.0009726501
0.00092133341
0.00086946526
0.00081630125
0.000762967
0.00070904655
0.00065390675
0.0005987792
0.0005431351
0.00048698251
0.00043139281
0.00037755659
0.00032332121
0.00028455661
0.000225859
0.00036345162
-0.00023860051
0.0051258061
0.0051390644
0.0051254903
0.0051196214
0.0051383725
0.0051760125
0.0052254572
0.0052890361
0.0053730881
0.005483797
0.0056310512
0.0058218646
0.0060628373
0.0062657592
0.0062621038
0.0060404211
0.0057273587
0.0054294352
0.0051624226
0.0049133631
0.0046847894
0.0044798633
0.0042945231
0.0041238171
0.0039620349
0.0038085036
0.0036660762
0.0035372086
0.0034218742
0.0033169207
0.0032204176
0.00313386
0.0030582442
0.0029925271
0.0029353093
0.0028852911
0.00284116
0.0028015829
0.0027659836
0.00273367
0.002703519
0.0026749183
0.0026472041
0.0026196442
0.0025917532
0.0025632656
0.0025341617
0.0025042092
0.0024731265
0.0024407341
0.0024065503
0.0023703278
0.0023325716
0.0022937841
0.0022536289
0.0022121833
0.0021701728
0.0021292432
0.0020891536
0.0020478572
0.0020054804
0.0019630592
0.0019218444
0.0018806437
0.0018380795
0.001795395
0.0017537415
0.0017121512
0.0016692942
0.0016259
0.0015829559
0.0015396436
0.0014951516
0.001450241
0.0014055738
0.0013604434
0.0013142112
0.0012675758
0.0012203681
0.0011725014
0.0011237563
0.0010745487
0.0010250324
0.00097419771
0.00092282284
0.00087089829
0.00081767859
0.00076429454
0.00071032404
0.00065513291
0.00059995763
0.00054426649
0.00048806855
0.00043243617
0.0003785568
0.00032427879
0.00028547018
0.00022668321
0.00036429439
-0.0002376378
0.0050993485
0.0051173113
0.0051126717
0.0051125733
0.0051322982
0.0051695865
0.0052190363
0.005282179
0.0053646208
0.0054720059
0.0056120037
0.00578871
0.0059999977
0.0061734129
0.0061726763
0.0059765958
0.005688298
0.005404744
0.0051471594
0.0049057632
0.0046821881
0.0044797715
0.0042961013
0.0041264629
0.0039658844
0.0038136292
0.0036721368
0.0035436748
0.0034283059
0.0033233891
0.0032271277
0.0031406308
0.0030647935
0.002998721
0.0029410666
0.0028905541
0.0028459144
0.0028058916
0.0027698256
0.0027370024
0.0027063815
0.0026773471
0.0026492369
0.0026212942
0.0025929886
0.0025640171
0.0025343271
0.0025038501
0.0024725191
0.002440135
0.0024063264
0.0023709343
0.002333914
0.0022954279
0.0022557795
0.0022151567
0.0021739147
0.0021329999
0.0020922316
0.0020505609
0.0020081029
0.0019656555
0.0019245049
0.001883369
0.001840823
0.0017980139
0.0017562408
0.0017146371
0.0016717719
0.0016283263
0.0015853113
0.0015419384
0.0014973918
0.0014524442
0.0014077047
0.0013624603
0.0013161477
0.0012694728
0.0012222267
0.0011743182
0.0011255308
0.0010762536
0.00102665
0.00097575349
0.00092433295
0.00087236389
0.00081909822
0.00076566913
0.00071164719
0.0006564055
0.00060118374
0.00054544633
0.00048920394
0.00043352978
0.00037960559
0.00032528379
0.00028642267
0.00022754492
0.00036509745
-0.00023648261
0.0050746102
0.0050960939
0.0050988777
0.0051040957
0.0051252521
0.0051623903
0.0052116068
0.0052739329
0.0053542485
0.0054576006
0.0055897326
0.0057522457
0.005937447
0.0060850789
0.0060851976
0.0059115565
0.0056465417
0.0053774839
0.0051294784
0.0048958713
0.0046774813
0.0044780968
0.0042964168
0.0041282149
0.0039691885
0.003818522
0.003678301
0.0035505985
0.0034355302
0.0033308482
0.0032348585
0.0031483819
0.0030722637
0.0030057537
0.0029475587
0.0028964392
0.002851182
0.002810585
0.0027739412
0.0027405569
0.0027094555
0.0026799853
0.002651482
0.00262319
0.0025945816
0.0025653565
0.0025354514
0.0025048067
0.002473298
0.0024406509
0.0024064962
0.0023707061
0.0023333372
0.0022947258
0.0022553167
0.002215324
0.0021750806
0.0021346823
0.0020939099
0.0020526463
0.0020108247
0.0019688597
0.0019273857
0.0018855543
0.0018428832
0.0018000884
0.0017584167
0.0017169113
0.0016740959
0.0016305636
0.0015874608
0.001544089
0.0014995363
0.0014545381
0.0014097294
0.0013644341
0.0013180807
0.0012713709
0.0012240801
0.0011761247
0.0011272982
0.0010779544
0.0010282684
0.00097731766
0.00092586348
0.00087386139
0.00082056
0.00076707114
0.00071297701
0.00065768934
0.00060243075
0.00054665557
0.00049037326
0.00043465683
0.00038068633
0.00032632152
0.00028740084
0.00022842738
0.00036582952
-0.00023511447
0.0050512902
0.0050754103
0.0050843249
0.0050943606
0.0051170998
0.0051540927
0.0052028466
0.0052641478
0.0053421357
0.0054411682
0.0055653083
0.0057140932
0.0058765012
0.0060018338
0.0060014102
0.0058473176
0.0056042511
0.0053497544
0.0051113563
0.0048854673
0.0046724807
0.0044764169
0.0042968793
0.0041302502
0.0039727933
0.0038236618
0.0036846441
0.003557629
0.0034427848
0.0033382152
0.0032423675
0.0031558466
0.0030794321
0.0030124851
0.0029537657
0.0029020699
0.0028562313
0.0028150934
0.0027779183
0.0027440183
0.0027124547
0.0026825461
0.0026536367
0.0026249986
0.0025961102
0.0025666698
0.0025365959
0.002505808
0.0024741545
0.0024413705
0.0024071196
0.0023712761
0.0023338916
0.0022952654
0.0022557501
0.0022155268
0.0021749833
0.0021342284
0.0020934254
0.0020526648
0.0020116875
0.0019705622
0.0019291234
0.0018872246
0.0018450121
0.001802698
0.0017608777
0.0017187543
0.0016757634
0.0016322758
0.0015893037
0.0015460293
0.0015015147
0.0014564401
0.0014115841
0.0013663215
0.0013199635
0.0012732031
0.0012258587
0.0011778642
0.0011290027
0.0010796171
0.0010298868
0.0009788943
0.00092740873
0.00087537056
0.00082203134
0.00076848224
0.00071432103
0.00065899336
0.0006037057
0.00054790157
0.00049157165
0.00043579601
0.00038177651
0.00032737615
0.00028839396
0.00022931928
0.00036645839
-0.00023350511
0.0050291148
0.0050552145
0.0050691341
0.0050834159
0.0051077612
0.0051446542
0.0051928211
0.005252933
0.0053283908
0.0054228119
0.0055388345
0.0056743713
0.0058166236
0.0059225565
0.0059205835
0.005783316
0.0055607061
0.0053206007
0.0050917653
0.004873522
0.0046661481
0.0044736651
0.0042964608
0.0041315765
0.0039757794
0.0038282429
0.003690501
0.0035642711
0.0034497707
0.0033454133
0.0032497917
0.0031633237
0.0030867011
0.0030193776
0.0029601768
0.0029079331
0.0028615251
0.0028198432
0.002782129
0.0027476963
0.0027156438
0.0026852761
0.0026559482
0.0026269567
0.0025977783
0.0025681023
0.0025378248
0.002506853
0.0024750342
0.0024421188
0.0024077892
0.0023719151
0.0023345355
0.0022959203
0.0022563988
0.0022161704
0.0021756
0.0021348099
0.0020939619
0.0020530413
0.0020118048
0.0019703541
0.0019286991
0.0018871966
0.0018458346
0.0018043226
0.001762555
0.0017202869
0.0016775686
0.0016344623
0.0015913264
0.001547513
0.0015028994
0.0014579186
0.0014132049
0.0013680241
0.0013216783
0.0012748694
0.001227522
0.0011795395
0.0011306443
0.0010812125
0.0010314584
0.00098043885
0.00092892151
0.00087684145
0.00082346257
0.00076988204
0.00071568561
0.0006603201
0.00060500209
0.00054916755
0.00049278604
0.00043695219
0.00038288661
0.00032845695
0.0002894083
0.00023021366
0.00036694034
-0.00023162397
0.0050078547
0.0050354363
0.0050533929
0.0050713352
0.0050972361
0.0051340677
0.0051815257
0.0052402509
0.0053129646
0.0054025466
0.0055104529
0.005633372
0.0057577778
0.0058469087
0.0058428571
0.0057200309
0.005516377
0.0052904315
0.0050711764
0.0048605601
0.0046589857
0.0044703403
0.0042956792
0.004132712
0.003978672
0.0038327858
0.0036963704
0.0035709849
0.0034568914
0.003352775
0.0032573733
0.0031709505
0.0030941099
0.0030263912
0.0029666902
0.0029138814
0.0028668871
0.0028246428
0.002786376
0.0027514003
0.0027188499
0.0026880205
0.0026582734
0.0026289246
0.0025994496
0.0025695309
0.0025390464
0.0025078958
0.0024759235
0.0024428851
0.0024084736
0.0023725531
0.0023351586
0.0022965447
0.0022570342
0.0022168364
0.0021762948
0.0021355333
0.0020946838
0.0020537176
0.002012426
0.001970905
0.0019291939
0.0018875949
0.0018460275
0.0018042072
0.0017622255
0.0017203664
0.0016784514
0.001636035
0.0015929112
0.0015489374
0.0015045383
0.0014598013
0.0014148187
0.0013692011
0.0013228887
0.0012762161
0.001228979
0.0011810511
0.0011321319
0.0010826867
0.0010329636
0.00098192996
0.00093037043
0.00087826211
0.00082485629
0.00077125374
0.000717028
0.0006616292
0.00060628405
0.0005504147
0.00049399355
0.00043812734
0.000384021
0.0003295595
0.00029042853
0.00023110703
0.00036725837
-0.00022942087
0.0049873163
0.0050159906
0.0050371622
0.005058192
0.0050855293
0.0051223031
0.0051689328
0.0052260817
0.005295873
0.0053804766
0.0054803757
0.0055913812
0.0056999357
0.0057745048
0.0057681013
0.0056575792
0.0054713248
0.0052591764
0.0050494787
0.0048464339
0.0046507698
0.0044661785
0.004294254
0.0041333575
0.0039811653
0.0038369804
0.0037019392
0.0035774579
0.0034638402
0.0033600097
0.0032648468
0.0031784951
0.0031014713
0.0030333884
0.0029732156
0.0029198675
0.0028723066
0.0028295114
0.0027907015
0.0027551896
0.0027221427
0.0026908518
0.0026606825
0.0026309701
0.0026011918
0.0025710244
0.002540329
0.0025089961
0.0024768654
0.0024436962
0.0024091943
0.0023732225
0.0023358139
0.0022972072
0.0022577127
0.002217539
0.0021770061
0.0021362438
0.0020953757
0.0020543885
0.0020131042
0.0019716027
0.0019299115
0.0018882789
0.0018466247
0.0018047071
0.0017626373
0.0017206737
0.0016785563
0.0016358898
0.0015927191
0.0015493269
0.0015056465
0.0014613496
0.001416279
0.0013705121
0.0013244083
0.0012777013
0.0012301371
0.0011820939
0.0011332749
0.0010839552
0.0010343041
0.00098326629
0.00093169382
0.00087962108
0.00082620902
0.00077257299
0.0007183253
0.00066290645
0.00060753734
0.00055163266
0.000495181
0.00043929396
0.00038514709
0.00033065306
0.00029142412
0.000231987
0.00036738373
-0.00022684333
0.0049673322
0.0049967864
0.0050204792
0.005044052
0.0050726517
0.0051093381
0.0051550305
0.005210433
0.0052771544
0.0053567039
0.0054487766
0.0055486028
0.0056430462
0.0057049883
0.0056961584
0.0055960941
0.0054257109
0.0052269172
0.0050267419
0.0048312239
0.0046415614
0.0044612373
0.0042922544
0.0041335917
0.0039833529
0.0038409344
0.003707326
0.0035838176
0.0034707502
0.0033672569
0.0032723564
0.0031861001
0.0031089213
0.0030404935
0.0029798606
0.0029259792
0.0028778519
0.0028344985
0.0027951368
0.0027590801
0.0027255248
0.0026937617
0.0026631602
0.0026330742
0.0026029839
0.0025725596
0.0025416465
0.0025101249
0.0024778305
0.0024445268
0.0024099325
0.0023739094
0.0023364866
0.0022978863
0.002258405
0.0022182511
0.0021777259
0.002136967
0.0020960917
0.002055094
0.0020138097
0.001972301
0.0019305996
0.0018889367
0.001847262
0.0018053578
0.0017632972
0.0017212862
0.001679066
0.0016362888
0.0015930174
0.0015495303
0.0015056365
0.001461199
0.0014163955
0.0013712641
0.0013257078
0.0012791245
0.0012313978
0.0011833623
0.0011346174
0.0010850831
0.0010352158
0.00098425074
0.0009328152
0.00088082184
0.00082742043
0.00077377656
0.00071955922
0.00066413697
0.00060873845
0.00055281416
0.00049634347
0.0004404344
0.00038624653
0.00033172602
0.00029238931
0.00023283232
0.0003672513
-0.00022384289
0.0049477563
0.0049777325
0.0050033618
0.0050289715
0.0050586219
0.0050951609
0.0051398147
0.0051933201
0.0052568521
0.0053313276
0.0054158165
0.0055052134
0.0055870819
0.0056380697
0.005626874
0.0055356911
0.0053796973
0.0051937281
0.0050030007
0.0048149559
0.0046313502
0.004455475
0.0042896247
0.0041333481
0.0039851629
0.0038445732
0.0037124529
0.0035899814
0.0034775335
0.0033744265
0.0032798119
0.0031936734
0.0031163666
0.0030476154
0.0029865382
0.0029321362
0.0028834509
0.0028395421
0.0027996306
0.0027630304
0.0027289649
0.0026967277
0.0026656924
0.0026352295
0.0026048231
0.0025741374
0.0025430023
0.0025112886
0.0024788281
0.0024453885
0.0024107
0.0023746238
0.0023371843
0.0022985882
0.0022591186
0.0022189839
0.0021784684
0.0021377146
0.0020968329
0.0020558216
0.0020145308
0.0019730124
0.0019313062
0.0018896259
0.001847933
0.0018060182
0.0017639348
0.001721878
0.0016796283
0.0016368563
0.0015935876
0.0015500437
0.0015060428
0.0014614927
0.0014165869
0.0013713069
0.0013256149
0.0012792047
0.0012319745
0.0011844468
0.0011359823
0.0010863065
0.0010362947
0.00098543534
0.00093386319
0.00088163067
0.00082829517
0.00077478305
0.00072064047
0.00066522963
0.00060983413
0.00055394304
0.00049746522
0.00044152711
0.00038730838
0.0003327701
0.0002933165
0.00023362546
0.00036679991
-0.00022034701
0.0049284606
0.004958741
0.004985813
0.0050129974
0.0050434639
0.0050797692
0.0051232879
0.0051747668
0.0052350206
0.0053044524
0.0053816491
0.0054613646
0.0055320206
0.0055734973
0.0055600784
0.0054764447
0.0053334292
0.0051596846
0.0049782898
0.0047976614
0.0046201439
0.0044488756
0.0042863429
0.0041326051
0.003986579
0.0038478879
0.0037173172
0.0035959516
0.003484196
0.0033815302
0.0032872318
0.0032012382
0.0031238346
0.0030547858
0.0029932836
0.0029383761
0.0028891424
0.0028446808
0.0028042194
0.0027670744
0.0027324937
0.002699777
0.0026683019
0.0026374547
0.0026067243
0.0025757691
0.0025444051
0.0025124935
0.0024798624
0.0024462832
0.002411497
0.0023753643
0.0023379051
0.0022993113
0.0022598528
0.0022197366
0.0021792309
0.0021384811
0.0020975922
0.0020565664
0.0020152691
0.0019737439
0.0019320352
0.0018903376
0.001848621
0.0018066892
0.0017645857
0.0017224949
0.001680217
0.001637429
0.0015941394
0.0015505619
0.0015065532
0.0014620097
0.0014170773
0.001371708
0.0013258947
0.001279375
0.0012320103
0.0011843846
0.0011361066
0.001086825
0.0010372503
0.00098672492
0.00093501552
0.00088256427
0.0008293154
0.0007757146
0.00072137889
0.00066602637
0.00061076122
0.00055493345
0.00049846316
0.00044252781
0.00038831456
0.00033376506
0.0002941891
0.00023435022
0.00036596766
-0.00021626974
0.004909332
0.0049397289
0.0049678255
0.0049961678
0.0050272056
0.0050631691
0.0051054606
0.0051548058
0.0052117231
0.0052761846
0.0053464169
0.0054171835
0.0054778406
0.0055110531
0.005495602
0.0054184027
0.005287046
0.0051248749
0.0049526541
0.0047793771
0.0046079575
0.0044414273
0.0042823853
0.0041313343
0.003987572
0.0038508509
0.0037218921
0.0036017003
0.0034907084
0.0033885392
0.0032945893
0.0032087676
0.0031312979
0.0030619777
0.0030000702
0.0029446719
0.0028948996
0.0028498886
0.0028088781
0.0027711881
0.0027360889
0.0027028888
0.0026709701
0.0026397336
0.0026086734
0.002577443
0.0025458453
0.0025137318
0.002480927
0.0024472059
0.0024123195
0.0023761284
0.0023386477
0.0023000551
0.0022606073
0.0022205088
0.0021800128
0.0021392668
0.002098371
0.0020573316
0.0020160283
0.0019744965
0.0019327839
0.0018910675
0.0018493261
0.0018073784
0.0017652579
0.0017231342
0.0016808227
0.0016380129
0.0015947049
0.0015511028
0.0015070786
0.0014625205
0.0014175599
0.0013721733
0.0013263484
0.0012798092
0.0012323833
0.0011846522
0.0011362624
0.001086839
0.0010372066
0.00098692307
0.00093554555
0.0008834598
0.00083051138
0.00077677336
0.00072221234
0.000666925
0.00061159093
0.00055560118
0.00049920126
0.00044337461
0.00038918733
0.00033464748
0.00029497674
0.00023497814
0.00036468228
-0.00021151462
0.0048902704
0.0049206191
0.0049493844
0.0049785127
0.0050098766
0.0050453755
0.0050863511
0.0051334777
0.0051870302
0.005246631
0.0053102518
0.0053727782
0.0054245211
0.0054505493
0.0054332803
0.0053615891
0.0052406748
0.0050893918
0.0049261404
0.0047601381
0.0045948074
0.0044331204
0.0042777282
0.0041295073
0.0039881135
0.0038534367
0.0037261547
0.0036072065
0.0034970506
0.0033954362
0.0033018715
0.003216252
0.003138749
0.0030691867
0.0030068963
0.0029510247
0.0029007259
0.0028551714
0.0028136145
0.0027753807
0.0027397611
0.0027060744
0.0026737084
0.0026420773
0.0026106813
0.0025791695
0.0025473322
0.0025150119
0.0024820295
0.0024481635
0.0024131737
0.0023769214
0.0023394165
0.0023008231
0.0022613846
0.0022213025
0.002180816
0.0021400734
0.0020991709
0.0020581182
0.0020168081
0.0019752694
0.0019335518
0.0018918169
0.0018500513
0.0018080875
0.0017659492
0.0017237909
0.0016814443
0.0016386134
0.0015952897
0.0015516628
0.0015076174
0.0014630419
0.0014180594
0.0013726542
0.0013268026
0.0012802401
0.0012328149
0.0011850678
0.0011366506
0.0010871765
0.0010374431
0.000987045
0.00093552127
0.00088345151
0.00083080172
0.00077736704
0.0007231016
0.00066802099
0.00061250774
0.00055632438
0.00049997157
0.00044407961
0.0003897806
0.00033532729
0.00029561634
0.00023543071
0.00036283343
-0.00020597554
0.0048711868
0.0049013412
0.004930471
0.0049600559
0.0049915083
0.0050264107
0.005065986
0.0051108301
0.0051610178
0.0052158972
0.0052732755
0.0053282407
0.0053720417
0.0053918227
0.005372957
0.0053060071
0.005194428
0.0050533308
0.0048988008
0.0047399814
0.0045807147
0.0044239512
0.0042723523
0.0041270987
0.0039881773
0.0038556205
0.0037300822
0.0036124479
0.0035032003
0.0034022007
0.0033090609
0.0032236755
0.0031461731
0.0030763994
0.0030137502
0.0029574238
0.0029066119
0.0028605209
0.0028184208
0.0027796449
0.0027435034
0.0027093273
0.0026765106
0.00264448
0.0026127425
0.002580943
0.0025488608
0.0025163291
0.0024831657
0.0024491518
0.0024140559
0.0023777399
0.0023402085
0.0023016127
0.0022621827
0.0022221159
0.002181639
0.0021408997
0.0020999909
0.0020589252
0.0020176081
0.0019760624
0.0019343393
0.0018925864
0.0018507967
0.0018088158
0.0017666587
0.0017244657
0.0016820841
0.001639232
0.0015958917
0.0015522384
0.0015081707
0.0014635795
0.0014185766
0.0013731492
0.0013272677
0.0012806858
0.0012332585
0.0011854816
0.0011370405
0.0010875755
0.0010378222
0.00098738526
0.00093581032
0.00088364728
0.00083087346
0.0007773144
0.00072317428
0.00066840678
0.00061314616
0.00055721378
0.00050094285
0.00044484444
0.00039041009
0.00033597317
0.00029604306
0.00023560268
0.00036026679
-0.00019955922
0.0048520024
0.0048818313
0.0049110646
0.0049408161
0.0049721322
0.0050063037
0.0050443996
0.0050869168
0.0051337656
0.0051840876
0.0052356006
0.0052836499
0.0053203811
0.0053347305
0.0053144852
0.0052516442
0.0051484028
0.0050167879
0.0048706917
0.0047189456
0.0045657031
0.00441392
0.0042662404
0.004124084
0.0039877369
0.0038573772
0.0037336504
0.0036174011
0.0035091345
0.0034088111
0.0033161392
0.0032310226
0.0031535563
0.003083604
0.0030206222
0.0029638615
0.0029125516
0.002865933
0.0028232948
0.0027839795
0.0027473161
0.0027126486
0.0026793785
0.0026469443
0.0026148599
0.0025827671
0.0025504347
0.0025176872
0.0024843391
0.0024501746
0.0024149697
0.0023785873
0.0023410268
0.0023024267
0.002263004
0.0022229515
0.0021824838
0.0021417474
0.0021008324
0.002059754
0.0020184294
0.0019768767
0.0019351475
0.0018933767
0.0018515626
0.0018095637
0.0017673872
0.0017251598
0.0016827429
0.0016398685
0.0015965106
0.0015528306
0.0015087405
0.0014641334
0.0014191087
0.0013736578
0.0013277473
0.0012811471
0.0012337147
0.0011859065
0.0011374453
0.0010879841
0.0010381979
0.00098773582
0.00093616833
0.00088399247
0.00083117555
0.00077754639
0.00072331407
0.00066840962
0.0006131117
0.00055742414
0.00050143482
0.00044552339
0.00039123222
0.0003367321
0.00029647611
0.00023575261
0.00035690127
-0.0001921862
0.0048326469
0.0048620322
0.0048911444
0.0049208087
0.0049517806
0.0049850891
0.0050216329
0.0050617971
0.0051053563
0.0051513041
0.0051973305
0.0052390729
0.0052695178
0.0052791472
0.0052577291
0.0051984755
0.0051026812
0.0049798577
0.0048418737
0.0046970711
0.0045497991
0.0044030318
0.004259379
0.0041204407
0.0039867673
0.0038586817
0.0037368356
0.0036220426
0.0035148297
0.0034152455
0.0033230875
0.0032382767
0.0031608836
0.0030907873
0.0030275012
0.0029703286
0.0029185373
0.0028714016
0.0028282315
0.0027883807
0.0027511962
0.0027160362
0.0026823103
0.0026494688
0.0026170323
0.0025846407
0.0025520529
0.0025190851
0.0024855489
0.0024512309
0.0024159141
0.0023794626
0.0023418705
0.0023032641
0.0022638474
0.0022238081
0.0021833494
0.0021426157
0.0021016948
0.0020606041
0.0020192718
0.0019777119
0.0019359761
0.0018941875
0.0018523491
0.0018103315
0.001768135
0.0017258733
0.0016834206
0.001640523
0.0015971468
0.0015534402
0.001509327
0.001464703
0.0014196561
0.0013741812
0.001328242
0.0012816222
0.0012341832
0.001186345
0.0011378641
0.0010884032
0.001038584
0.00098809991
0.000936532
0.00088433528
0.00083150029
0.00077786993
0.00072361812
0.00066865643
0.00061328302
0.00055749437
0.00050137524
0.0004455643
0.00039153485
0.00033723748
0.00029699931
0.00023599015
0.00035290601
-0.00018358326
0.0048130587
0.0048418933
0.0048706908
0.0049000471
0.004930486
0.0049628065
0.0049977335
0.0050355352
0.0050758742
0.0051176454
0.0051585607
0.0051945676
0.0052194299
0.0052249618
0.0052025636
0.0051464674
0.0050573307
0.0049426307
0.0048124105
0.0046744004
0.0045330313
0.0043912952
0.0042517578
0.0041161483
0.0039852443
0.0038595097
0.0037396138
0.0036263485
0.0035202621
0.0034214813
0.0033298859
0.0032454205
0.0031681391
0.0030979354
0.0030343754
0.0029768149
0.0029245607
0.0028769204
0.0028332261
0.0027928449
0.0027551412
0.0027194883
0.0026853053
0.0026520532
0.0026192602
0.0025865644
0.0025537162
0.0025205241
0.0024867963
0.0024523219
0.0024168905
0.0023803672
0.0023427409
0.0023041262
0.0022647143
0.0022246869
0.0021842369
0.0021435057
0.0021025789
0.0020614763
0.0020201359
0.0019785688
0.0019368259
0.0018950197
0.0018531568
0.0018111197
0.0017689026
0.0017266066
0.0016841179
0.001641196
0.0015978009
0.0015540675
0.0015099307
0.0014652888
0.0014202193
0.00137472
0.0013287517
0.0012821114
0.0012346649
0.0011867975
0.0011382954
0.0010888334
0.001038983
0.00098847646
0.00093690505
0.00088468831
0.00083183625
0.00077819532
0.00072392198
0.00066895275
0.00061356793
0.00055773785
0.00050155153
0.00044565476
0.00039147463
0.00033714081
0.00029695908
0.00023580429
0.0003482634
-0.0001735388
0.0047931834
0.0048213706
0.0048496867
0.0048785439
0.0049082816
0.004939499
0.0049727541
0.0050081987
0.0050454042
0.0050832069
0.0051193783
0.0051501832
0.0051700954
0.0051720754
0.0051488745
0.0050955803
0.0050124048
0.0049051921
0.0047823679
0.0046509781
0.0045154308
0.0043787227
0.0042433704
0.0041111888
0.0039831454
0.0038598374
0.003741961
0.003630295
0.0035254075
0.0034274952
0.0033365138
0.0032524356
0.0031753064
0.0031050336
0.0030412321
0.0029833098
0.002930613
0.0028824822
0.002838273
0.0027973677
0.002759148
0.0027230029
0.0026883618
0.0026546965
0.0026215429
0.0025885381
0.0025554249
0.0025220042
0.0024880814
0.0024534479
0.0024178991
0.0023813012
0.002343638
0.002305013
0.0022656045
0.0022255879
0.0021851461
0.0021444172
0.0021034848
0.0020623706
0.0020210219
0.0019794474
0.0019376968
0.0018958731
0.0018539859
0.0018119286
0.0017696903
0.0017273601
0.0016848349
0.001641888
0.0015984733
0.001554713
0.0015105516
0.0014658913
0.0014207988
0.0013752743
0.0013292767
0.0012826153
0.0012351602
0.0011872639
0.0011387398
0.0010892757
0.0010393947
0.00098886432
0.00093728849
0.00088505296
0.00083218286
0.00077852872
0.0007242363
0.00066925635
0.00061384868
0.00055799674
0.00050180899
0.00044588317
0.00039161572
0.00033718392
0.00029654996
0.00023531606
0.00034178541
-0.00016208644
0.0047729737
0.0048004266
0.0048281178
0.0048563121
0.0048852011
0.0049152133
0.0049467519
0.0049798583
0.0050140311
0.0050480796
0.0050798637
0.0051059624
0.0051214924
0.0051203998
0.0050965576
0.005045771
0.004967945
0.0048676207
0.0047518126
0.0046268511
0.0044970301
0.0043653301
0.004234214
0.004105547
0.0039804496
0.0038596418
0.0037438537
0.0036338577
0.0035302415
0.0034332636
0.0033429495
0.0032593031
0.0031823682
0.0031120662
0.0030480578
0.0029898018
0.0029366845
0.0028880791
0.0028433662
0.0028019444
0.002763213
0.0027265775
0.0026914781
0.0026573978
0.0026238799