/*--------------------------------*- C++ -*----------------------------------*\
  =========                 |
  \\      /  F ield         | OpenFOAM: The Open Source CFD Toolbox
   \\    /   O peration     | Website:  https://openfoam.org
    \\  /    A nd           | Version:  12
     \\/     M anipulation  |
\*---------------------------------------------------------------------------*/
FoamFile
{
    format      ascii;
    class       surfaceScalarField;
    location    "2000";
    object      phi;
}
// * * * * * * * * * * * * * * * * * * * * * * * * * * * * * * * * * * * * * //

dimensions      [0 3 -1 0 0 0 0];

internalField   nonuniform List<scalar> 
25880
(
2.0046355e-06
1.8607644e-11
2.0045758e-06
5.9703062e-11
2.0044798e-06
9.5987479e-11
2.0043598e-06
1.2009237e-10
2.0042193e-06
1.4048537e-10
2.0040599e-06
1.5934208e-10
2.0038831e-06
1.7685158e-10
2.0036897e-06
1.9342337e-10
2.0034799e-06
2.0974326e-10
2.0032534e-06
2.2648421e-10
2.0030091e-06
2.4427962e-10
2.0027453e-06
2.6385653e-10
2.0024591e-06
2.8614643e-10
2.0021466e-06
3.1252841e-10
2.0018018e-06
3.4476806e-10
2.0014153e-06
3.8650651e-10
2.0009747e-06
4.4060709e-10
2.0004516e-06
5.2311998e-10
1.999825e-06
6.266635e-10
1.9989555e-06
8.6948554e-10
1.9978751e-06
1.0803566e-09
1.9948105e-06
3.0645978e-09
1.9923175e-06
2.4930328e-09
1.0225871e-06
9.6973034e-07
3.9137978e-08
9.8344916e-07
2.5357559e-08
1.3780419e-08
2.5056874e-08
3.0068524e-10
2.4830773e-08
2.2610001e-10
2.4259791e-08
5.7098238e-10
2.3636243e-08
6.2354822e-10
2.307483e-08
5.61413e-10
2.2589692e-08
4.8513759e-10
2.216627e-08
4.234228e-10
2.1791068e-08
3.7520187e-10
2.1454706e-08
3.3636134e-10
2.1147806e-08
3.0690064e-10
2.0863527e-08
2.8427902e-10
2.0599375e-08
2.6415185e-10
2.035343e-08
2.4594473e-10
2.0124198e-08
2.2923184e-10
1.9909861e-08
2.1433692e-10
1.9708532e-08
2.0132897e-10
1.9518784e-08
1.8974823e-10
1.933928e-08
1.7950393e-10
1.9168859e-08
1.7042148e-10
1.9006657e-08
1.6220202e-10
1.8851973e-08
1.5468403e-10
1.8704196e-08
1.4777631e-10
1.8562634e-08
1.415627e-10
1.8426838e-08
1.3579558e-10
1.8296387e-08
1.3045146e-10
1.8170649e-08
1.2573765e-10
1.8049323e-08
1.2132611e-10
1.7932167e-08
1.1715563e-10
1.7818717e-08
1.1345014e-10
1.7708724e-08
1.0999314e-10
1.7602055e-08
1.0666912e-10
1.7498356e-08
1.0369848e-10
1.7397344e-08
1.0101229e-10
1.7298966e-08
9.8377632e-11
1.7203062e-08
9.5904775e-11
1.7109326e-08
9.3735484e-11
1.7017621e-08
9.1705438e-11
1.6927801e-08
8.9819399e-11
1.6839625e-08
8.8176058e-11
1.6753001e-08
8.6624106e-11
1.6667941e-08
8.506029e-11
1.658444e-08
8.3500853e-11
1.6502387e-08
8.2052999e-11
1.6421615e-08
8.0772185e-11
1.6342044e-08
7.9570768e-11
1.626364e-08
7.8403552e-11
1.6186321e-08
7.7319379e-11
1.6109977e-08
7.6344529e-11
1.6034532e-08
7.5444417e-11
1.5959933e-08
7.4598841e-11
1.5886136e-08
7.3797051e-11
1.5813076e-08
7.3059802e-11
1.5740677e-08
7.2399142e-11
1.5668896e-08
7.1781217e-11
1.5597684e-08
7.1212117e-11
1.5526979e-08
7.0705182e-11
1.545674e-08
7.0239021e-11
1.538693e-08
6.9809697e-11
1.5317478e-08
6.9452314e-11
1.5248335e-08
6.9142799e-11
1.5179481e-08
6.8853627e-11
1.5110877e-08
6.8604715e-11
1.5042469e-08
6.8407446e-11
1.4974203e-08
6.8266202e-11
1.490604e-08
6.8163163e-11
1.4837965e-08
6.8074806e-11
1.4769936e-08
6.8029351e-11
1.4701866e-08
6.8069897e-11
1.4633703e-08
6.8162837e-11
1.4565446e-08
6.8256785e-11
1.449706e-08
6.8386291e-11
1.4428421e-08
6.863899e-11
1.4359457e-08
6.8964142e-11
1.4290196e-08
6.9260536e-11
1.4220614e-08
6.9582098e-11
1.4150607e-08
7.0007591e-11
1.4080093e-08
7.0513985e-11
1.4009061e-08
7.1031735e-11
1.3937461e-08
7.1599353e-11
1.386516e-08
7.2301173e-11
1.3792079e-08
7.3081166e-11
1.3718196e-08
7.3882805e-11
1.3643414e-08
7.4782501e-11
1.3567598e-08
7.5816097e-11
1.3490692e-08
7.6905896e-11
1.3412621e-08
7.8070488e-11
1.3333173e-08
7.9448025e-11
1.3255624e-08
7.7549772e-11
1.3181782e-08
7.3841429e-11
1.3111178e-08
7.0603893e-11
1.3043557e-08
6.7620791e-11
1.2978878e-08
6.467962e-11
1.2916929e-08
6.1948538e-11
1.285746e-08
5.9469119e-11
1.2800279e-08
5.7180822e-11
1.2745269e-08
5.5010279e-11
1.2692304e-08
5.296539e-11
1.2641213e-08
5.1090956e-11
1.2591839e-08
4.937354e-11
1.254409e-08
4.7749246e-11
1.2497895e-08
4.619455e-11
1.2453159e-08
4.4736538e-11
1.2409737e-08
4.3421558e-11
1.2367526e-08
4.2211372e-11
1.2326306e-08
4.1219468e-11
1.2286204e-08
4.0102047e-11
1.2246153e-08
4.0051319e-11
1.2207745e-08
3.840814e-11
1.2160675e-08
4.7069852e-11
2.954257e-11
2.0345092e-06
3.7492669e-11
2.0344486e-06
1.2029585e-10
2.0343512e-06
1.9340506e-10
2.0342293e-06
2.4197439e-10
2.0340867e-06
2.8306476e-10
2.033925e-06
3.2105976e-10
2.0337455e-06
3.5634037e-10
2.0335492e-06
3.8973161e-10
2.0333363e-06
4.226153e-10
2.0331065e-06
4.5634725e-10
2.0328585e-06
4.9220371e-10
2.0325907e-06
5.3164957e-10
2.0323003e-06
5.7656167e-10
2.0319831e-06
6.2971877e-10
2.0316332e-06
6.9467835e-10
2.031241e-06
7.7877674e-10
2.0307938e-06
8.8778356e-10
2.0302629e-06
1.0540359e-09
2.0296269e-06
1.2626669e-09
2.0287444e-06
1.7518972e-09
2.027648e-06
2.1768507e-09
2.0245382e-06
6.1743223e-09
2.022004e-06
5.0272982e-09
1.0889782e-06
1.9027561e-06
1.1724157e-07
1.9551858e-06
7.7591802e-08
5.3430184e-08
7.6672395e-08
1.2200915e-09
7.5978368e-08
9.2012742e-10
7.4229447e-08
2.3199028e-09
7.2321219e-08
2.5317771e-09
7.0604051e-08
2.2785807e-09
6.9119889e-08
1.9692994e-09
6.782431e-08
1.7190023e-09
6.6676285e-08
1.5232261e-09
6.5647136e-08
1.3655103e-09
6.4708121e-08
1.2459163e-09
6.3838316e-08
1.1540837e-09
6.3030092e-08
1.0723761e-09
6.2277581e-08
9.9845556e-10
6.1576203e-08
9.3060927e-10
6.0920397e-08
8.7014357e-10
6.0304389e-08
8.1733673e-10
5.9723812e-08
7.7032564e-10
5.9174581e-08
7.2873476e-10
5.8653135e-08
6.9186736e-10
5.8156843e-08
6.5849354e-10
5.7683551e-08
6.279761e-10
5.7231389e-08
5.9993842e-10
5.679825e-08
5.7470224e-10
5.6382749e-08
5.5129588e-10
5.5983595e-08
5.2960614e-10
5.5598874e-08
5.1045805e-10
5.5227646e-08
4.9255411e-10
5.4869173e-08
4.7562932e-10
5.4522045e-08
4.6057734e-10
5.4185495e-08
4.4654344e-10
5.3859109e-08
4.3305563e-10
5.3541813e-08
4.2099382e-10
5.3232745e-08
4.1008093e-10
5.2931732e-08
3.9939065e-10
5.2638279e-08
3.8935755e-10
5.235147e-08
3.8054474e-10
5.2070877e-08
3.7229809e-10
5.1796049e-08
3.6464753e-10
5.1526244e-08
3.5798085e-10
5.1261194e-08
3.5167417e-10
5.1000933e-08
3.4532152e-10
5.0745438e-08
3.3899531e-10
5.0494369e-08
3.3312217e-10
5.0247223e-08
3.2791808e-10
5.0003757e-08
3.2303728e-10
4.976386e-08
3.1830059e-10
4.9527276e-08
3.1390336e-10
4.9293675e-08
3.0994475e-10
4.9062833e-08
3.0628733e-10
4.8834579e-08
3.0285265e-10
4.8608774e-08
2.9960165e-10
4.8385222e-08
2.9661151e-10
4.8163696e-08
2.9392525e-10
4.7944063e-08
2.9141487e-10
4.7726169e-08
2.8910606e-10
4.7509823e-08
2.8705091e-10
4.7294904e-08
2.8515759e-10
4.7081302e-08
2.8341255e-10
4.6868794e-08
2.8196017e-10
4.665723e-08
2.8070649e-10
4.6446549e-08
2.7953484e-10
4.6236632e-08
2.7852135e-10
4.602732e-08
2.7771926e-10
4.581844e-08
2.7714684e-10
4.5609872e-08
2.7673056e-10
4.5401576e-08
2.763714e-10
4.519342e-08
2.7618526e-10
4.4985141e-08
2.763492e-10
4.4776575e-08
2.7672863e-10
4.456772e-08
2.7711111e-10
4.4358472e-08
2.7763495e-10
4.4148451e-08
2.7865984e-10
4.3937434e-08
2.7998152e-10
4.3725508e-08
2.8118607e-10
4.35126e-08
2.8249012e-10
4.3298391e-08
2.8421655e-10
4.3082631e-08
2.8627372e-10
4.2865286e-08
2.8837669e-10
4.2646206e-08
2.9068e-10
4.2424978e-08
2.9352834e-10
4.2201363e-08
2.9669632e-10
4.1975295e-08
2.9995154e-10
4.1746474e-08
3.0360274e-10
4.1514491e-08
3.077991e-10
4.1279173e-08
3.1222436e-10
4.1040291e-08
3.1695198e-10
4.0797195e-08
3.2254415e-10
4.0559907e-08
3.1483854e-10
4.0333965e-08
2.9978326e-10
4.011793e-08
2.866384e-10
3.9911023e-08
2.74528e-10
3.9713115e-08
2.6258802e-10
3.9523563e-08
2.5149983e-10
3.9341599e-08
2.414333e-10
3.9166636e-08
2.3214373e-10
3.8998314e-08
2.2333218e-10
3.883625e-08
2.1502983e-10
3.8679921e-08
2.0741952e-10
3.8528848e-08
2.00447e-10
3.8382744e-08
1.9385312e-10
3.8241397e-08
1.8754136e-10
3.8104512e-08
1.8162129e-10
3.7971652e-08
1.7628213e-10
3.7842495e-08
1.7136797e-10
3.7716374e-08
1.6734087e-10
3.7593676e-08
1.6279961e-10
3.7471131e-08
1.6259675e-10
3.7353686e-08
1.558525e-10
3.7209385e-08
1.9137144e-10
1.1951907e-10
2.0947016e-06
5.693643e-11
2.0946393e-06
1.826813e-10
2.094539e-06
2.9370473e-10
2.0944135e-06
3.674625e-10
2.0942667e-06
4.2986301e-10
2.0941002e-06
4.8756316e-10
2.0939154e-06
5.4114143e-10
2.0937132e-06
5.918506e-10
2.0934941e-06
6.4178892e-10
2.0932574e-06
6.9301526e-10
2.0930021e-06
7.4746764e-10
2.0927264e-06
8.0737068e-10
2.0924274e-06
8.7557453e-10
2.0921008e-06
9.5629905e-10
2.0917406e-06
1.0549466e-09
2.0913367e-06
1.1826581e-09
2.0908763e-06
1.3481955e-09
2.0903296e-06
1.6006643e-09
2.0896748e-06
1.9174919e-09
2.0887663e-06
2.6604162e-09
2.0876373e-06
3.3057943e-09
2.0844357e-06
9.3759518e-09
2.0818262e-06
7.6368007e-09
1.1725011e-06
2.8120813e-06
1.9975901e-07
2.9279278e-06
1.3447407e-07
1.1871513e-07
1.3287758e-07
2.8165847e-09
1.3167121e-07
2.1264967e-09
1.2863799e-07
5.3531218e-09
1.2533043e-07
5.8393377e-09
1.2235549e-07
5.2535218e-09
1.1978391e-07
4.5408745e-09
1.1753877e-07
3.964144e-09
1.1554932e-07
3.5126777e-09
1.1376591e-07
3.1489178e-09
1.1213869e-07
2.8731378e-09
1.106314e-07
2.6613779e-09
1.0923081e-07
2.4729597e-09
1.0792678e-07
2.3024883e-09
1.0671135e-07
2.1460356e-09
1.0557489e-07
2.0066046e-09
1.045074e-07
1.8848329e-09
1.0350129e-07
1.7764275e-09
1.0254951e-07
1.6805152e-09
1.0164588e-07
1.5955027e-09
1.0078584e-07
1.518534e-09
9.9965649e-08
1.4481646e-09
9.9182072e-08
1.3835155e-09
9.843147e-08
1.3253045e-09
9.7711428e-08
1.2713374e-09
9.7019706e-08
1.221328e-09
9.6353009e-08
1.1771551e-09
9.5709688e-08
1.1358754e-09
9.5088462e-08
1.0968552e-09
9.4486908e-08
1.0621315e-09
9.3903682e-08
1.0297688e-09
9.3338062e-08
9.9867587e-10
9.2788199e-08
9.708573e-10
9.22526e-08
9.4567965e-10
9.1730955e-08
9.210359e-10
9.1222404e-08
8.9790862e-10
9.0725372e-08
8.7757597e-10
9.023912e-08
8.5855014e-10
8.9762851e-08
8.4091743e-10
8.929528e-08
8.2555143e-10
8.8835956e-08
8.1099797e-10
8.8384936e-08
7.9634151e-10
8.7942171e-08
7.8176055e-10
8.7507069e-08
7.6822431e-10
8.707877e-08
7.5621663e-10
8.6656852e-08
7.4495522e-10
8.6241118e-08
7.3403532e-10
8.5831119e-08
7.2390187e-10
8.5426292e-08
7.1477169e-10
8.5026248e-08
7.0633169e-10
8.4630692e-08
6.9840823e-10
8.4239376e-08
6.9091788e-10
8.385196e-08
6.8402702e-10
8.346806e-08
6.7782589e-10
8.3087441e-08
6.7203339e-10
8.2709835e-08
6.6671194e-10
8.2334909e-08
6.619773e-10
8.1962457e-08
6.5761003e-10
8.1592287e-08
6.5358201e-10
8.1224017e-08
6.5023049e-10
8.0857379e-08
6.4734415e-10
8.0492268e-08
6.4464594e-10
8.0128485e-08
6.4230422e-10
7.9765752e-08
6.4045217e-10
7.9403765e-08
6.3913398e-10
7.9042318e-08
6.3817731e-10
7.8681341e-08
6.3734848e-10
7.832061e-08
6.3691646e-10
7.7959666e-08
6.3729358e-10
7.7598222e-08
6.3817206e-10
7.7236277e-08
6.3905592e-10
7.6873652e-08
6.4026088e-10
7.6509689e-08
6.4262275e-10
7.6143997e-08
6.456734e-10
7.577673e-08
6.4845331e-10
7.5407761e-08
6.5145838e-10
7.503654e-08
6.5543815e-10
7.4662629e-08
6.6018439e-10
7.428597e-08
6.650358e-10
7.3906304e-08
6.7034578e-10
7.3522919e-08
6.7691297e-10
7.3135395e-08
6.8422093e-10
7.2743617e-08
6.9172908e-10
7.2347073e-08
7.0014716e-10
7.1945047e-08
7.0982468e-10
7.153724e-08
7.2003134e-10
7.1123259e-08
7.3093331e-10
7.0701974e-08
7.4382914e-10
7.0290752e-08
7.2606051e-10
6.9899194e-08
6.9134093e-10
6.9524807e-08
6.6102555e-10
6.9166237e-08
6.3309801e-10
6.8823261e-08
6.0556388e-10
6.8494769e-08
5.7999226e-10
6.8179426e-08
5.5677668e-10
6.7876215e-08
5.3535449e-10
6.7584512e-08
5.1503465e-10
6.7303655e-08
4.9588758e-10
6.7032738e-08
4.7833636e-10
6.6770928e-08
4.6225666e-10
6.651773e-08
4.4705105e-10
6.6272776e-08
4.3249526e-10
6.6035556e-08
4.1884146e-10
6.5805311e-08
4.0652739e-10
6.5581485e-08
3.9519327e-10
6.5362922e-08
3.8590448e-10
6.5150294e-08
3.7542721e-10
6.4937938e-08
3.7495286e-10
6.4734472e-08
3.5931888e-10
6.448421e-08
4.4163349e-10
2.7516595e-10
2.1861099e-06
7.7228686e-11
2.1860448e-06
2.4778908e-10
2.1859401e-06
3.9838117e-10
2.1858092e-06
4.9842678e-10
2.185656e-06
5.8306784e-10
2.1854822e-06
6.6133376e-10
2.1852893e-06
7.3400907e-10
2.1850784e-06
8.0279283e-10
2.1848497e-06
8.7053092e-10
2.1846027e-06
9.4001584e-10
2.1843362e-06
1.0138763e-09
2.1840485e-06
1.0951296e-09
2.1837364e-06
1.1876419e-09
2.1833956e-06
1.297137e-09
2.1830196e-06
1.4309427e-09
2.1825981e-06
1.6041703e-09
2.1821176e-06
1.828705e-09
2.1815471e-06
2.1711518e-09
2.1808637e-06
2.6008974e-09
2.1799155e-06
3.6085791e-09
2.1787373e-06
4.4840149e-09
2.1753961e-06
1.2717133e-08
2.1726722e-06
1.0360665e-08
1.2764935e-06
3.70826e-06
2.9130809e-07
3.9131132e-06
1.9940235e-07
2.1062087e-07
1.9703076e-07
5.188169e-09
1.9523326e-07
3.9240009e-09
1.9073259e-07
9.8537862e-09
1.8582776e-07
1.0744169e-08
1.8141845e-07
9.6628389e-09
1.7760658e-07
8.3527414e-09
1.7427809e-07
7.2926355e-09
1.7132861e-07
6.4621527e-09
1.6868465e-07
5.7928747e-09
1.6627223e-07
5.2855588e-09
1.6403759e-07
4.8960244e-09
1.6196114e-07
4.5494101e-09
1.6002783e-07
4.2357976e-09
1.5822587e-07
3.947989e-09
1.5654098e-07
3.6914983e-09
1.5495832e-07
3.4674908e-09
1.5346668e-07
3.2680711e-09
1.5205557e-07
3.0916268e-09
1.5071583e-07
2.9352415e-09
1.4944073e-07
2.7936374e-09
1.482247e-07
2.6641914e-09
1.4706294e-07
2.5452697e-09
1.4595009e-07
2.4381606e-09
1.4488253e-07
2.3388934e-09
1.4385695e-07
2.2469056e-09
1.4286849e-07
2.1656196e-09
1.4191468e-07
2.0896901e-09
1.4099361e-07
2.0179207e-09
1.4010172e-07
1.9540217e-09
1.39237e-07
1.8944847e-09
1.3839838e-07
1.8373016e-09
1.3758312e-07
1.7861191e-09
1.3678901e-07
1.7397825e-09
1.3601559e-07
1.6944596e-09
1.3526157e-07
1.6519288e-09
1.3452464e-07
1.6145079e-09
1.3380369e-07
1.5794929e-09
1.3309754e-07
1.5470705e-09
1.3240428e-07
1.5188148e-09
1.3172325e-07
1.4920256e-09
1.3105454e-07
1.465051e-09
1.3039806e-07
1.4382395e-09
1.2975294e-07
1.4133495e-09
1.291179e-07
1.391249e-09
1.2849234e-07
1.3705213e-09
1.2787594e-07
1.3504378e-09
1.2726803e-07
1.3318068e-09
1.2666779e-07
1.3150085e-09
1.2607465e-07
1.2994717e-09
1.2548817e-07
1.2848908e-09
1.2490797e-07
1.2711221e-09
1.2433354e-07
1.2584525e-09
1.2376433e-07
1.2470346e-09
1.2319999e-07
1.2363722e-09
1.2264012e-07
1.2265875e-09
1.2208421e-07
1.217885e-09
1.2153197e-07
1.2098492e-09
1.2098312e-07
1.2024324e-09
1.2043709e-07
1.1962634e-09
1.1989347e-07
1.1909615e-09
1.1935211e-07
1.1860037e-09
1.1881273e-07
1.181689e-09
1.182749e-07
1.1782776e-09
1.1773818e-07
1.175856e-09
1.1720226e-07
1.1741018e-09
1.1666703e-07
1.1725764e-09
1.1613217e-07
1.1717772e-09
1.1559699e-07
1.1724699e-09
1.1506107e-07
1.1740921e-09
1.1452441e-07
1.1757214e-09
1.1398673e-07
1.1779336e-09
1.1344708e-07
1.1822764e-09
1.1290486e-07
1.1878936e-09
1.123603e-07
1.1930117e-09
1.1181322e-07
1.1985371e-09
1.112628e-07
1.2058566e-09
1.107084e-07
1.2145924e-09
1.1014991e-07
1.223521e-09
1.0958697e-07
1.2332876e-09
1.0901851e-07
1.2453679e-09
1.0844392e-07
1.2588167e-09
1.0786302e-07
1.2726322e-09
1.0727505e-07
1.2881168e-09
1.0667895e-07
1.3059218e-09
1.0607428e-07
1.3247024e-09
1.0546045e-07
1.3447592e-09
1.048358e-07
1.3684845e-09
1.0422606e-07
1.3357967e-09
1.0364548e-07
1.2719203e-09
1.0309036e-07
1.2161443e-09
1.025587e-07
1.1647648e-09
1.0205015e-07
1.1141098e-09
1.0156308e-07
1.0670625e-09
1.0109551e-07
1.0243496e-09
1.0064592e-07
9.8493874e-10
1.002134e-07
9.4755595e-10
9.979696e-08
9.1232838e-10
9.939526e-08
8.8003651e-10
9.9007063e-08
8.5045319e-10
9.8631635e-08
8.2247937e-10
9.826843e-08
7.9569979e-10
9.7916694e-08
7.7057764e-10
9.7575302e-08
7.4791995e-10
9.7243429e-08
7.2706568e-10
9.6919362e-08
7.0997148e-10
9.6604097e-08
6.9069222e-10
9.6289256e-08
6.8979384e-10
9.5987625e-08
6.6094974e-10
9.5616438e-08
8.12821e-10
5.0578592e-10
2.3100962e-06
9.8671844e-11
2.3100274e-06
3.1658946e-10
2.3099168e-06
5.0899424e-10
2.3097784e-06
6.3681888e-10
2.3096165e-06
7.4496246e-10
2.3094329e-06
8.4496139e-10
2.3092291e-06
9.3781788e-10
2.3090062e-06
1.0257025e-09
2.3087645e-06
1.1122509e-09
2.3085035e-06
1.2010309e-09
2.3082219e-06
1.2954008e-09
2.3079178e-06
1.3992159e-09
2.3075881e-06
1.5174157e-09
2.3072279e-06
1.6573132e-09
2.3068306e-06
1.8282709e-09
2.3063851e-06
2.0495961e-09
2.3058774e-06
2.3364738e-09
2.3052745e-06
2.7740007e-09
2.3045524e-06
3.3230688e-09
2.3035504e-06
4.6105127e-09
2.3023054e-06
5.7290756e-09
2.2987749e-06
1.624757e-08
2.2958958e-06
1.3239775e-08
1.4045634e-06
4.5995924e-06
3.9678202e-07
4.9208946e-06
2.762412e-07
3.311617e-07
2.7293923e-07
8.4901407e-09
2.7042736e-07
6.4358697e-09
2.6418967e-07
1.6091474e-08
2.5739702e-07
1.7536821e-08
2.5129383e-07
1.5766032e-08
2.4601695e-07
1.3629622e-08
2.4140841e-07
1.190117e-08
2.3732451e-07
1.0546059e-08
2.3366364e-07
9.453741e-09
2.303233e-07
8.6258989e-09
2.2722905e-07
7.990277e-09
2.2435381e-07
7.4246532e-09
2.2167674e-07
6.912865e-09
2.1918153e-07
6.4432024e-09
2.1684837e-07
6.0246544e-09
2.1465675e-07
5.6591087e-09
2.1259114e-07
5.3336823e-09
2.1063703e-07
5.0457408e-09
2.0878173e-07
4.7905398e-09
2.0701593e-07
4.5594381e-09
2.0533191e-07
4.3482031e-09
2.0372304e-07
4.1541417e-09
2.0218189e-07
3.979314e-09
2.0070345e-07
3.817333e-09
1.9928313e-07
3.6672294e-09
1.9791421e-07
3.534539e-09
1.9659326e-07
3.4106394e-09
1.9531764e-07
3.2935346e-09
1.9408244e-07
3.1892237e-09
1.9288487e-07
3.0920583e-09
1.9172341e-07
2.9987627e-09
1.905943e-07
2.9152239e-09
1.8949451e-07
2.8395748e-09
1.8842334e-07
2.765628e-09
1.8737903e-07
2.6962421e-09
1.8635839e-07
2.6351469e-09
1.853599e-07
2.5779802e-09
1.8438188e-07
2.5250917e-09
1.834217e-07
2.4789982e-09
1.8247847e-07
2.4352533e-09
1.8155231e-07
2.3912118e-09
1.8064307e-07
2.3474752e-09
1.7974955e-07
2.3068739e-09
1.7887001e-07
2.2707898e-09
1.7800358e-07
2.2369452e-09
1.7714984e-07
2.2041777e-09
1.7630786e-07
2.1737896e-09
1.754765e-07
2.1463723e-09
1.7465497e-07
2.121e-09
1.7384266e-07
2.0971977e-09
1.7303904e-07
2.0747448e-09
1.7224341e-07
2.0540799e-09
1.7145502e-07
2.035431e-09
1.7067337e-07
2.0180201e-09
1.698979e-07
2.0020601e-09
1.6912791e-07
1.9878706e-09
1.68363e-07
1.9747548e-09
1.676028e-07
1.96264e-09
1.6684649e-07
1.9525683e-09
1.6609352e-07
1.9439293e-09
1.6534368e-07
1.9358485e-09
1.6459657e-07
1.9287974e-09
1.6385162e-07
1.9232242e-09
1.631082e-07
1.9192791e-09
1.6236588e-07
1.9164265e-09
1.6162452e-07
1.9139377e-09
1.6088367e-07
1.9126274e-09
1.6014238e-07
1.9137581e-09
1.5940005e-07
1.9164169e-09
1.5865669e-07
1.9190831e-09
1.5791194e-07
1.9226882e-09
1.5716444e-07
1.9297743e-09
1.5641338e-07
1.9389521e-09
1.5565908e-07
1.9473135e-09
1.5490129e-07
1.9563288e-09
1.5413887e-07
1.9682741e-09
1.5337092e-07
1.9825407e-09
1.5259732e-07
1.997121e-09
1.5181755e-07
2.0130605e-09
1.5103014e-07
2.0327772e-09
1.5023422e-07
2.0547369e-09
1.4942956e-07
2.0772928e-09
1.4861511e-07
2.1025655e-09
1.477894e-07
2.1316304e-09
1.4695181e-07
2.1622914e-09
1.4610154e-07
2.195031e-09
1.4523626e-07
2.2337588e-09
1.4439165e-07
2.1804089e-09
1.4358743e-07
2.0761459e-09
1.4281847e-07
1.9851011e-09
1.42082e-07
1.9012377e-09
1.4137755e-07
1.8185581e-09
1.4070285e-07
1.7417625e-09
1.4005516e-07
1.6720416e-09
1.3943238e-07
1.6077146e-09
1.3883324e-07
1.5466977e-09
1.3825637e-07
1.489195e-09
1.3769993e-07
1.4364834e-09
1.3716218e-07
1.388195e-09
1.3664213e-07
1.3425359e-09
1.36139e-07
1.2988241e-09
1.3565177e-07
1.2578143e-09
1.3517886e-07
1.2208263e-09
1.3471914e-07
1.1867836e-09
1.3427024e-07
1.1588716e-09
1.3383353e-07
1.1274009e-09
1.3339745e-07
1.1258798e-09
1.3297968e-07
1.0787175e-09
1.3246542e-07
1.3270852e-09
8.2514187e-10
2.4685083e-06
1.2158548e-10
2.4684347e-06
3.901077e-10
2.4683165e-06
6.2719226e-10
2.4681687e-06
7.847012e-10
2.4679957e-06
9.1795963e-10
2.4677994e-06
1.0411829e-09
2.4675817e-06
1.1556057e-09
2.4673435e-06
1.2639023e-09
2.4670852e-06
1.3705522e-09
2.4668062e-06
1.4799514e-09
2.4665054e-06
1.5962382e-09
2.4661804e-06
1.7241628e-09
2.465828e-06
1.8698118e-09
2.4654432e-06
2.0421967e-09
2.4650186e-06
2.2528543e-09
2.4645426e-06
2.5255749e-09
2.464e-06
2.8790704e-09
2.4633558e-06
3.4181958e-09
2.4625841e-06
4.0947692e-09
2.4615135e-06
5.6811433e-09
2.460183e-06
7.0595376e-09
2.4564108e-06
2.0019755e-08
2.4533332e-06
1.6317409e-08
1.5607253e-06
5.4922003e-06
5.2157346e-07
5.9600464e-06
3.6949893e-07
4.8323623e-07
3.6501558e-07
1.2973488e-08
3.6160423e-07
9.8472254e-09
3.532631e-07
2.4432602e-08
3.4419007e-07
2.6609851e-08
3.3604215e-07
2.3913947e-08
3.289961e-07
2.0675677e-08
3.2284107e-07
1.8056199e-08
3.1738629e-07
1.6000832e-08
3.124964e-07
1.4343631e-08
3.0803442e-07
1.3087884e-08
3.0390095e-07
1.2123749e-08
3.0005988e-07
1.1265723e-08
2.9648341e-07
1.0489333e-08
2.9314976e-07
9.776856e-09
2.9003248e-07
9.1419259e-09
2.8710421e-07
8.5873873e-09
2.8434419e-07
8.0936959e-09
2.8173307e-07
7.6568597e-09
2.7925392e-07
7.2696948e-09
2.768943e-07
6.9190587e-09
2.746439e-07
6.5985979e-09
2.7249386e-07
6.3041855e-09
2.7043428e-07
6.0388913e-09
2.6845846e-07
5.7931569e-09
2.6656025e-07
5.565438e-09
2.6473072e-07
5.3640645e-09
2.6296527e-07
5.1760975e-09
2.6126035e-07
4.9984486e-09
2.5960944e-07
4.8401372e-09
2.5800879e-07
4.6927051e-09
2.5645637e-07
4.5511872e-09
2.5494717e-07
4.4244185e-09
2.5347715e-07
4.3095937e-09
2.5204536e-07
4.1974223e-09
2.5064942e-07
4.0921781e-09
2.4928513e-07
3.9994399e-09
2.4795044e-07
3.9126656e-09
2.4664308e-07
3.832454e-09
2.4535954e-07
3.7625448e-09
2.4409866e-07
3.6961315e-09
2.4286059e-07
3.6292767e-09
2.4164512e-07
3.5629441e-09
2.4045063e-07
3.5013676e-09
2.3927483e-07
3.4465925e-09
2.3811656e-07
3.3952131e-09
2.3697523e-07
3.345508e-09
2.3584959e-07
3.299427e-09
2.3473814e-07
3.2578236e-09
2.3363984e-07
3.2193012e-09
2.3255386e-07
3.1831771e-09
2.3147947e-07
3.1491375e-09
2.3041574e-07
3.1178019e-09
2.2936169e-07
3.0894848e-09
2.2831666e-07
3.0630532e-09
2.2727987e-07
3.0388528e-09
2.2625039e-07
3.0173451e-09
2.252277e-07
2.9974451e-09
2.2421129e-07
2.9790497e-09
2.2320009e-07
2.9637654e-09
2.2219334e-07
2.9506821e-09
2.2119075e-07
2.9384407e-09
2.2019181e-07
2.9277321e-09
2.1919577e-07
2.9192707e-09
2.1820175e-07
2.9133008e-09
2.1720918e-07
2.9089937e-09
2.1621789e-07
2.905224e-09
2.1522729e-07
2.9032324e-09
2.1423609e-07
2.9049552e-09
2.1324349e-07
2.9090144e-09
2.122495e-07
2.9130781e-09
2.1125364e-07
2.918548e-09
2.102541e-07
2.9293068e-09
2.092498e-07
2.9432585e-09
2.0824114e-07
2.9559682e-09
2.0722782e-07
2.9696542e-09
2.062083e-07
2.9877898e-09
2.0518138e-07
3.009464e-09
2.0414689e-07
3.0316131e-09
2.0310414e-07
3.0558118e-09
2.0205117e-07
3.0857462e-09
2.0098681e-07
3.1190991e-09
1.9991074e-07
3.1533534e-09
1.9882159e-07
3.1917207e-09
1.9771737e-07
3.2358519e-09
1.9659725e-07
3.2824119e-09
1.9546016e-07
3.3321204e-09
1.94303e-07
3.3909201e-09
1.9317346e-07
3.3099492e-09
1.9209792e-07
3.1516829e-09
1.9106955e-07
3.0134752e-09
1.9008461e-07
2.8861758e-09
1.8914249e-07
2.7606752e-09
1.8824015e-07
2.644099e-09
1.8737393e-07
2.5382613e-09
1.8654103e-07
2.4406175e-09
1.8573973e-07
2.347998e-09
1.8496822e-07
2.2607067e-09
1.8422402e-07
2.1806872e-09
1.8350482e-07
2.1073853e-09
1.8280928e-07
2.0380778e-09
1.8213638e-07
1.9717227e-09
1.8148473e-07
1.9094645e-09
1.8085225e-07
1.8533095e-09
1.8023741e-07
1.8016284e-09
1.7963704e-07
1.7592415e-09
1.7905297e-07
1.7114697e-09
1.7846978e-07
1.7090647e-09
1.7791111e-07
1.6373911e-09
1.7722324e-07
2.0149582e-09
1.2522021e-09
2.6637067e-06
1.4631107e-10
2.6636273e-06
4.694394e-10
2.6634998e-06
7.5473657e-10
2.6633402e-06
9.4427754e-10
2.6631535e-06
1.1046376e-09
2.6629418e-06
1.2529228e-09
2.6627068e-06
1.3906188e-09
2.6624497e-06
1.520943e-09
2.662171e-06
1.6492855e-09
2.66187e-06
1.7809358e-09
2.6615454e-06
1.9208734e-09
2.6611947e-06
2.0748148e-09
2.6608145e-06
2.2500842e-09
2.6603991e-06
2.4575256e-09
2.659941e-06
2.7110222e-09
2.6594273e-06
3.039202e-09
2.6588418e-06
3.4645828e-09
2.6581467e-06
4.1133382e-09
2.6573139e-06
4.9275e-09
2.6561587e-06
6.8364195e-09
2.654723e-06
8.4952373e-09
2.650653e-06
2.4089733e-08
2.6473304e-06
1.9639955e-08
1.7495111e-06
6.3900197e-06
6.7176166e-07
7.0377959e-06
4.8446345e-07
6.7053444e-07
4.7835516e-07
1.908178e-08
4.7376515e-07
1.4437228e-08
4.6285156e-07
3.5346198e-08
4.5100166e-07
3.8459745e-08
4.4036479e-07
3.4550819e-08
4.3116359e-07
2.9876882e-08
4.2312333e-07
2.6096455e-08
4.1599666e-07
2.3127502e-08
4.096073e-07
2.0732995e-08
4.0377636e-07
1.8918822e-08
3.9837413e-07
1.7525984e-08
3.9335351e-07
1.6286335e-08
3.8867827e-07
1.5164573e-08
3.8432e-07
1.4135126e-08
3.8024422e-07
1.3217706e-08
3.764152e-07
1.2416411e-08
3.728059e-07
1.1702997e-08
3.6939104e-07
1.1071715e-08
3.6614853e-07
1.0512209e-08
3.6306215e-07
1.0005435e-08
3.6011844e-07
9.5423116e-09
3.5730581e-07
9.1168151e-09
3.5461139e-07
8.7333108e-09
3.5202638e-07
8.3781682e-09
3.4954277e-07
8.0490521e-09
3.4714892e-07
7.7579096e-09
3.4483878e-07
7.4862389e-09
3.4260774e-07
7.2294919e-09
3.4044728e-07
7.00059e-09
3.3835252e-07
6.7874653e-09
3.3632076e-07
6.58295e-09
3.343455e-07
6.3996753e-09
3.3242147e-07
6.2336273e-09
3.3054738e-07
6.0715149e-09
3.2872013e-07
5.9194262e-09
3.2693426e-07
5.7853096e-09
3.2518711e-07
5.6598186e-09
3.2347564e-07
5.5439181e-09
3.2179529e-07
5.4428991e-09
3.2014458e-07
5.346835e-09
3.1852372e-07
5.2501454e-09
3.1693236e-07
5.1542984e-09
3.153684e-07
5.0653255e-09
3.1382889e-07
4.9861088e-09
3.123123e-07
4.9117969e-09
3.1081785e-07
4.8399654e-09
3.0934388e-07
4.7733936e-09
3.0788845e-07
4.7132515e-09
3.0645022e-07
4.6575306e-09
3.050281e-07
4.6053024e-09
3.0362109e-07
4.5561424e-09
3.0222802e-07
4.5108781e-09
3.0084758e-07
4.4699196e-09
2.9947894e-07
4.4316966e-09
2.9812105e-07
4.3967449e-09
2.9677269e-07
4.365696e-09
2.954332e-07
4.3369399e-09
2.9410191e-07
4.3103376e-09
2.9277743e-07
4.2882515e-09
2.9145872e-07
4.2693887e-09
2.9014542e-07
4.2517353e-09
2.888369e-07
4.2362549e-09
2.8753214e-07
4.2240308e-09
2.8623e-07
4.2154422e-09
2.8492973e-07
4.209266e-09
2.8363111e-07
4.2038449e-09
2.8233336e-07
4.2009803e-09
2.8103481e-07
4.2035044e-09
2.7973439e-07
4.2094339e-09
2.7843211e-07
4.2153598e-09
2.7712736e-07
4.2232924e-09
2.7581779e-07
4.2388856e-09
2.7450192e-07
4.2591258e-09
2.7318032e-07
4.2775649e-09
2.7185258e-07
4.2973925e-09
2.7051671e-07
4.3236623e-09
2.691711e-07
4.3550754e-09
2.6781554e-07
4.387174e-09
2.6644913e-07
4.4222188e-09
2.6506931e-07
4.4655671e-09
2.6367453e-07
4.5138835e-09
2.6226438e-07
4.5634997e-09
2.6083705e-07
4.6190523e-09
2.5938994e-07
4.6829576e-09
2.5792197e-07
4.7503875e-09
2.5643172e-07
4.8223651e-09
2.5491514e-07
4.9075017e-09
2.5343473e-07
4.7903646e-09
2.5202506e-07
4.5613472e-09
2.5067719e-07
4.3613444e-09
2.4938623e-07
4.1771361e-09
2.4815137e-07
3.9955335e-09
2.4696864e-07
3.8268335e-09
2.4583323e-07
3.6736713e-09
2.4474147e-07
3.5323751e-09
2.4369112e-07
3.3983479e-09
2.4267981e-07
3.2720217e-09
2.4170428e-07
3.1562164e-09
2.4076152e-07
3.0501374e-09
2.3984976e-07
2.9498429e-09
2.3896767e-07
2.8538153e-09
2.3811342e-07
2.7637087e-09
2.372843e-07
2.6824317e-09
2.3647829e-07
2.6076344e-09
2.3569127e-07
2.5462677e-09
2.349256e-07
2.4771375e-09
2.3416116e-07
2.473506e-09
2.3342885e-07
2.3696975e-09
2.3252702e-07
2.91679e-09
1.8120379e-09
2.8986004e-06
1.7321712e-10
2.898514e-06
5.5576677e-10
2.8983752e-06
8.9352775e-10
2.8982016e-06
1.117926e-09
2.8979985e-06
1.3077786e-09
2.897768e-06
1.4833373e-09
2.8975123e-06
1.6463605e-09
2.8972326e-06
1.8006567e-09
2.8969293e-06
1.9526065e-09
2.8966017e-06
2.1084716e-09
2.8962485e-06
2.2741469e-09
2.8958669e-06
2.4564001e-09
2.8954531e-06
2.6639025e-09
2.8950011e-06
2.9094921e-09
2.8945025e-06
3.2096053e-09
2.8939436e-06
3.5981344e-09
2.8933064e-06
4.1017389e-09
2.89255e-06
4.8697887e-09
2.8916438e-06
5.8336728e-09
2.8903867e-06
8.0935478e-09
2.8888243e-06
1.0057583e-08
2.8843961e-06
2.8517909e-08
2.8807784e-06
2.3257683e-08
1.9760615e-06
7.2947366e-06
8.5424514e-07
8.1596123e-06
6.2722151e-07
8.9755808e-07
6.1862856e-07
2.7674728e-08
6.1243104e-07
2.0634747e-08
5.9838051e-07
4.9396725e-08
5.831708e-07
5.3669455e-08
5.6952251e-07
4.8199116e-08
5.5771055e-07
4.1688841e-08
5.473841e-07
3.6422897e-08
5.382283e-07
3.2283305e-08
5.3001771e-07
2.8943583e-08
5.2252298e-07
2.6413555e-08
5.1557781e-07
2.4471155e-08
5.0912183e-07
2.274231e-08
5.0310864e-07
2.1177763e-08
4.9750194e-07
1.9741826e-08
4.9225759e-07
1.8462055e-08
4.8732983e-07
1.7344177e-08
4.8268402e-07
1.6348804e-08
4.7828777e-07
1.5467961e-08
4.7411275e-07
1.4687234e-08
4.7013819e-07
1.3979991e-08
4.6634681e-07
1.3333695e-08
4.6272376e-07
1.2739861e-08
4.5925258e-07
1.2204498e-08
4.5592191e-07
1.1708831e-08
4.5272151e-07
1.1249459e-08
4.4963647e-07
1.0842948e-08
4.4665897e-07
1.0463737e-08
4.437831e-07
1.0105362e-08
4.4099798e-07
9.7857117e-09
4.3829729e-07
9.488154e-09
4.3567755e-07
9.2026922e-09
4.3313045e-07
8.9467736e-09
4.3064922e-07
8.7148547e-09
4.2823217e-07
8.488564e-09
4.2587532e-07
8.2762798e-09
4.2357169e-07
8.0889434e-09
4.2131785e-07
7.9136575e-09
4.1910986e-07
7.7519027e-09
4.1694185e-07
7.6109072e-09
4.1481199e-07
7.4766954e-09
4.1272051e-07
7.341631e-09
4.1066694e-07
7.2078657e-09
4.0864857e-07
7.0836964e-09
4.0666163e-07
6.9730471e-09
4.0470419e-07
6.8692414e-09
4.0277517e-07
6.7689842e-09
4.0087246e-07
6.6761016e-09
3.9899357e-07
6.5921388e-09
3.971368e-07
6.5143044e-09
3.9530072e-07
6.4413856e-09
3.9348403e-07
6.3728298e-09
3.9168521e-07
6.3096963e-09
3.8990263e-07
6.2524957e-09
3.881352e-07
6.1991298e-09
3.8638155e-07
6.1504e-09
3.8464011e-07
6.1071367e-09
3.8291001e-07
6.0670319e-09
3.8119045e-07
6.0299046e-09
3.7947958e-07
5.999116e-09
3.7777608e-07
5.9728906e-09
3.7607947e-07
5.9483425e-09
3.7438896e-07
5.9267702e-09
3.7270323e-07
5.9097592e-09
3.7102079e-07
5.8978774e-09
3.6934068e-07
5.889379e-09
3.6766262e-07
5.8819046e-09
3.6598562e-07
5.877983e-09
3.643075e-07
5.8816211e-09
3.6262688e-07
5.8900591e-09
3.6094376e-07
5.8984778e-09
3.5925739e-07
5.9096638e-09
3.5756469e-07
5.93158e-09
3.5586378e-07
5.9600375e-09
3.5415538e-07
5.9859697e-09
3.5243896e-07
6.0138106e-09
3.5071195e-07
6.0506718e-09
3.4897226e-07
6.0947641e-09
3.4721962e-07
6.1398144e-09
3.4545288e-07
6.1889603e-09
3.4366871e-07
6.2497328e-09
3.4186511e-07
6.31749e-09
3.4004154e-07