/*--------------------------------*- C++ -*----------------------------------*\
  =========                 |
  \\      /  F ield         | OpenFOAM: The Open Source CFD Toolbox
   \\    /   O peration     | Website:  https://openfoam.org
    \\  /    A nd           | Version:  12
     \\/     M anipulation  |
\*---------------------------------------------------------------------------*/
FoamFile
{
    format      ascii;
    class       volVectorField;
    location    "2000";
    object      U;
}
// * * * * * * * * * * * * * * * * * * * * * * * * * * * * * * * * * * * * * //

dimensions      [0 1 -1 0 0 0 0];

internalField   nonuniform List<vector> 
13056
(
(1 2.322126e-10 3.7122637e-24)
(0.99998254 8.4568471e-10 0)
(0.9999419 1.542967e-09 0)
(0.99988763 2.1901371e-09 0)
(0.99982274 2.9056976e-09 0)
(0.99974807 3.7361025e-09 0)
(0.99966431 4.6980368e-09 0)
(0.99957212 5.8172169e-09 0)
(0.9994718 7.1348165e-09 0)
(0.9993633 8.7035456e-09 0)
(0.99924627 1.0588612e-08 0)
(0.99912002 1.2875406e-08 0)
(0.99898346 1.5679881e-08 0)
(0.99883499 1.9170964e-08 0)
(0.99867215 2.3581754e-08 0)
(0.99849155 2.9334667e-08 0)
(0.99828717 3.6884436e-08 0)
(0.99805259 4.7950129e-08 0)
(0.99776635 6.2347856e-08 0)
(0.99742778 9.293463e-08 0)
(0.99690241 1.2258788e-07 0)
(0.99634715 3.6428219e-07 0)
(0.99387074 3.057661e-07 -4.5647493e-21)
(0.99382587 0.00012224832 1.0910638e-16)
(0.026176576 0.00012478323 0)
(0.012808002 1.2804126e-06 -5.007319e-17)
(0.012489363 7.5458521e-09 1.4326111e-20)
(0.012510544 5.4562379e-09 6.4600243e-21)
(0.012261484 1.3882565e-08 0)
(0.011940227 1.5088975e-08 0)
(0.011639695 1.3481685e-08 0)
(0.011380366 1.1525176e-08 0)
(0.011155794 9.9538004e-09 0)
(0.01095801 8.7327064e-09 0)
(0.010781549 7.7490608e-09 0)
(0.010622503 6.9951167e-09 0)
(0.010475403 6.4091215e-09 0)
(0.010338923 5.8889417e-09 0)
(0.010211898 5.420739e-09 0)
(0.010093584 4.993229e-09 0)
(0.0099832293 4.6128336e-09 0)
(0.0098797706 4.279787e-09 0)
(0.0097823913 3.9828934e-09 0)
(0.0096904829 3.7196377e-09 0)
(0.0096033228 3.4848536e-09 0)
(0.0095204715 3.2724627e-09 0)
(0.0094415126 3.0778203e-09 0)
(0.0093661602 2.8988482e-09 0)
(0.009294089 2.7375195e-09 0)
(0.0092249383 2.5872357e-09 0)
(0.0091586186 2.4479376e-09 0)
(0.0090947958 2.3237547e-09 0)
(0.0090331818 2.2069297e-09 0)
(0.0089737585 2.0967983e-09 0)
(0.0089163022 1.9976156e-09 0)
(0.0088605773 1.9044181e-09 0)
(0.0088065698 1.8152205e-09 0)
(0.0087541591 1.7340256e-09 0)
(0.0087031138 1.6593526e-09 0)
(0.0086533852 1.5866158e-09 0)
(0.0086049672 1.5179517e-09 0)
(0.0085577034 1.4557518e-09 0)
(0.0085114498 1.396896e-09 0)
(0.0084662127 1.3410799e-09 0)
(0.0084218381 1.289972e-09 0)
(0.0083782388 1.2414313e-09 0)
(0.0083354141 1.1935892e-09 0)
(0.0082933758 1.1465675e-09 0)
(0.0082521061 1.1020046e-09 0)
(0.0082115103 1.0607535e-09 0)
(0.008171519 1.02129e-09 0)
(0.008132122 9.8292742e-10 0)
(0.0080932948 9.4629101e-10 0)
(0.008054978 9.1179121e-10 0)
(0.0080171232 8.7884822e-10 0)
(0.0079797042 8.4713121e-10 0)
(0.0079426932 8.1637956e-10 0)
(0.0079060732 7.869203e-10 0)
(0.0078697964 7.5894273e-10 0)
(0.0078338362 7.3184663e-10 0)
(0.0077981753 7.0567584e-10 0)
(0.0077627822 6.8054392e-10 0)
(0.007727626 6.5629102e-10 0)
(0.007692698 6.3279731e-10 0)
(0.0076579694 6.1033531e-10 0)
(0.0076233976 5.8858213e-10 0)
(0.007588977 5.673507e-10 0)
(0.0075546925 5.4685955e-10 0)
(0.0075205203 5.2705695e-10 0)
(0.0074864317 5.0795334e-10 0)
(0.0074523995 4.8939078e-10 0)
(0.0074184126 4.7122855e-10 0)
(0.0073844682 4.5362746e-10 0)
(0.0073505254 4.3682159e-10 0)
(0.0073165393 4.2052379e-10 0)
(0.0072825026 4.0444162e-10 0)
(0.0072484219 3.8879662e-10 0)
(0.0072142547 3.7400849e-10 0)
(0.0071799194 3.5972266e-10 0)
(0.0071454266 3.4542202e-10 0)
(0.0071107946 3.3141204e-10 0)
(0.0070759792 3.1801623e-10 0)
(0.00704092 3.0506613e-10 0)
(0.007005597 2.9225686e-10 0)
(0.0069700197 2.7975608e-10 0)
(0.0069341272 2.6784307e-10 0)
(0.0068978458 2.5624265e-10 0)
(0.0068611724 2.4475753e-10 0)
(0.0068240879 2.3363945e-10 0)
(0.0067865119 2.2293464e-10 0)
(0.006748391 2.1238314e-10 0)
(0.0067097237 2.0203457e-10 0)
(0.0066704344 1.9220104e-10 0)
(0.006631282 1.8285652e-10 0)
(0.0065935663 1.7411262e-10 0)
(0.0065576119 1.6648307e-10 0)
(0.0065231265 1.5944694e-10 0)
(0.0064901481 1.5250921e-10 0)
(0.006458597 1.4607148e-10 0)
(0.0064283434 1.402272e-10 0)
(0.006399266 1.3482949e-10 0)
(0.0063712953 1.2970958e-10 0)
(0.0063443834 1.2488977e-10 0)
(0.0063184529 1.2047136e-10 0)
(0.006293411 1.1642231e-10 0)
(0.006269194 1.1259039e-10 0)
(0.0062457726 1.0892421e-10 0)
(0.0062231066 1.0548947e-10 0)
(0.00620114 1.0238981e-10 0)
(0.0061797858 9.9541176e-11 0)
(0.006159027 9.7196325e-11 0)
(0.006138661 9.4594509e-11 0)
(0.0061190207 9.4433588e-11 0)
(0.0060986941 3.4182488e-10 0)
(0.0060807426 1.0933042e-10 1.5017048e-22)
(0.006051549 2.6411405e-10 0)
(1 7.0008933e-10 0)
(0.99998254 2.5496389e-09 0)
(0.9999419 4.6518681e-09 0)
(0.99988763 6.6030254e-09 0)
(0.99982274 8.7603751e-09 0)
(0.99974807 1.1263979e-08 0)
(0.99966431 1.4164144e-08 0)
(0.99957212 1.7538401e-08 0)
(0.99947179 2.1510876e-08 0)
(0.99936329 2.6240481e-08 0)
(0.99924626 3.1923803e-08 0)
(0.99912001 3.8818275e-08 0)
(0.99898345 4.727348e-08 0)
(0.99883498 5.7798691e-08 0)
(0.99867213 7.1096659e-08 0)
(0.99849153 8.844088e-08 0)
(0.99828714 1.1120227e-07 0)
(0.99805257 1.4456328e-07 0)
(0.99776632 1.8796972e-07 0)
(0.99742775 2.8017953e-07 0)
(0.99690238 3.6956335e-07 0)
(0.99634712 1.0981816e-06 0)
(0.99387073 9.2247416e-07 1.6904672e-20)
(0.99382596 0.00036119819 -1.4060881e-20)
(0.076469702 0.00036832052 0)
(0.038616293 7.243428e-06 0)
(0.037654708 1.5630655e-07 2.2275037e-20)
(0.037718479 1.1668856e-07 0)
(0.036967148 2.9202939e-07 -4.5979978e-21)
(0.03599769 3.1595953e-07 0)
(0.035091873 2.818228e-07 0)
(0.034310281 2.4122581e-07 0)
(0.03363327 2.0848363e-07 0)
(0.033036973 1.8288282e-07 0)
(0.032504984 1.6225905e-07 0)
(0.032025504 1.4648127e-07 0)
(0.031582033 1.3421179e-07 0)
(0.031170579 1.2332229e-07 0)
(0.03078763 1.1351285e-07 0)
(0.030430941 1.0456366e-07 0)
(0.030098249 9.6599961e-08 0)
(0.029786344 8.9626107e-08 0)
(0.029492766 8.3411867e-08 0)
(0.029215681 7.7896111e-08 0)
(0.028952911 7.2984312e-08 0)
(0.02870313 6.8531457e-08 0)
(0.028465086 6.4457852e-08 0)
(0.028237911 6.071515e-08 0)
(0.02802063 5.7327177e-08 0)
(0.027812156 5.418535e-08 0)
(0.027612211 5.12729e-08 0)
(0.027419797 4.8662876e-08 0)
(0.027234043 4.6220994e-08 0)
(0.02705489 4.3918982e-08 0)
(0.026881668 4.1835274e-08 0)
(0.026713669 3.9884245e-08 0)
(0.026550845 3.8020537e-08 0)
(0.026392833 3.6319058e-08 0)
(0.026238941 3.4750033e-08 0)
(0.026089019 3.3230453e-08 0)
(0.025943044 3.1795929e-08 0)
(0.025800549 3.0489624e-08 0)
(0.025661103 2.9254062e-08 0)
(0.025524722 2.8088645e-08 0)
(0.025390937 2.7020879e-08 0)
(0.02525949 2.6000821e-08 0)
(0.025130382 2.4996956e-08 0)
(0.025003644 2.4014496e-08 0)
(0.02487922 2.3083559e-08 0)
(0.024756828 2.2217291e-08 0)
(0.024636261 2.1389412e-08 0)
(0.024517486 2.0586767e-08 0)
(0.024400427 1.9821359e-08 0)
(0.024284905 1.9098211e-08 0)
(0.024170778 1.8407081e-08 0)
(0.024057967 1.7741938e-08 0)
(0.023946384 1.7099512e-08 0)
(0.023835978 1.6483687e-08 0)
(0.023726607 1.5895946e-08 0)
(0.023618193 1.532797e-08 0)
(0.023510681 1.4780342e-08 0)
(0.023403975 1.4254982e-08 0)
(0.023297983 1.374663e-08 0)
(0.023192679 1.3253989e-08 0)
(0.023087978 1.2782988e-08 0)
(0.022983749 1.2328264e-08 0)
(0.022879974 1.1884298e-08 0)
(0.02277661 1.1454125e-08 0)
(0.022673586 1.1039129e-08 0)
(0.022570813 1.0639239e-08 0)
(0.02246821 1.0250978e-08 0)
(0.022365743 9.8704097e-09 0)
(0.022263405 9.5014006e-09 0)
(0.022161072 9.1492155e-09 0)
(0.022058609 8.8083399e-09 0)
(0.021955991 8.4717157e-09 0)
(0.021853242 8.1435975e-09 0)
(0.021750232 7.8336641e-09 0)
(0.021646716 7.5347583e-09 0)
(0.021542724 7.2354484e-09 0)
(0.021438312 6.9417283e-09 0)
(0.021333348 6.6609857e-09 0)
(0.021227649 6.3899559e-09 0)
(0.021121154 6.1218024e-09 0)
(0.021013892 5.8597947e-09 0)
(0.02090568 5.6101348e-09 0)
(0.020796296 5.3673429e-09 0)
(0.02068573 5.1268646e-09 0)
(0.020573924 4.8937973e-09 0)
(0.020460637 4.669607e-09 0)
(0.020345707 4.44869e-09 0)
(0.020229129 4.2318792e-09 0)
(0.020110676 4.0258568e-09 0)
(0.019992636 3.8302086e-09 0)
(0.019878927 3.6470522e-09 0)
(0.019770528 3.4871454e-09 0)
(0.019666559 3.3398099e-09 0)
(0.019567132 3.1945479e-09 0)
(0.019472009 3.0596572e-09 0)
(0.019380798 2.937196e-09 0)
(0.019293133 2.8241782e-09 0)
(0.019208804 2.7169761e-09 0)
(0.019127668 2.6159766e-09 0)
(0.01904949 2.5233967e-09 0)
(0.018973992 2.4385726e-09 0)
(0.018900981 2.3583498e-09 0)
(0.018830368 2.2815632e-09 0)
(0.018762033 2.2095489e-09 0)
(0.018695806 2.1446013e-09 0)
(0.018631427 2.0848251e-09 0)
(0.018568842 2.0358428e-09 0)
(0.018507444 1.9806179e-09 0)
(0.018448231 1.9781683e-09 0)
(0.018386965 1.924256e-09 0)
(0.018332843 2.3265082e-09 -2.3386024e-22)
(0.018244827 1.4777134e-09 4.2404212e-23)
(1 1.178392e-09 0)
(0.99998254 4.2915736e-09 0)
(0.9999419 7.8300669e-09 0)
(0.99988763 1.1114295e-08 0)
(0.99982274 1.4745594e-08 0)
(0.99974807 1.8959727e-08 0)
(0.99966431 2.3841378e-08 0)
(0.99957211 2.9521041e-08 0)
(0.99947179 3.6207645e-08 0)
(0.99936329 4.4168661e-08 0)
(0.99924625 5.3734984e-08 0)
(0.99912 6.5339914e-08 0)
(0.99898344 7.9571864e-08 0)
(0.99883496 9.728803e-08 0)
(0.99867212 1.1967127e-07 0)
(0.99849151 1.4886506e-07 0)
(0.99828712 1.8717689e-07 0)
(0.99805254 2.4332941e-07 0)
(0.99776629 3.1639038e-07 0)
(0.99742772 4.7159e-07 0)
(0.99690235 6.2207336e-07 0)
(0.99634708 1.8482771e-06 0)
(0.99387072 1.5536382e-06 -8.9357841e-21)
(0.99382615 0.00059117349 6.1352395e-54)
(0.12546467 0.00061001677 -8.1640795e-54)
(0.065003783 1.9772573e-05 0)
(0.06338279 4.5404143e-07 -1.1868088e-20)
(0.063488491 3.3949411e-07 0)
(0.062223112 8.4842319e-07 0)
(0.060590112 9.1740258e-07 0)
(0.059065834 8.1792133e-07 0)
(0.057750645 7.0019328e-07 0)
(0.05661119 6.0523755e-07 0)
(0.055607525 5.309183e-07 0)
(0.054712129 4.7103593e-07 0)
(0.053905118 4.2523539e-07 0)
(0.053158707 3.8961928e-07 0)
(0.052466181 3.5800802e-07 0)
(0.051821633 3.2952988e-07 0)
(0.051221285 3.0355128e-07 0)
(0.050661324 2.8043373e-07 0)
(0.050136348 2.6018919e-07 0)
(0.049642217 2.4215005e-07 0)
(0.049175846 2.2613733e-07 0)
(0.048733566 2.1187939e-07 0)
(0.04831315 1.9895132e-07 0)
(0.047912489 1.8712649e-07 0)
(0.047530117 1.7626266e-07 0)
(0.047164401 1.6642454e-07 0)
(0.04681351 1.5730533e-07 0)
(0.04647697 1.4885179e-07 0)
(0.046153106 1.4127198e-07 0)
(0.045840457 1.3418441e-07 0)
(0.045538911 1.2750305e-07 0)
(0.04524735 1.2145183e-07 0)
(0.044964583 1.1578794e-07 0)
(0.044690522 1.1037912e-07 0)
(0.044424559 1.0543911e-07 0)
(0.044165534 1.0088236e-07 0)
(0.043913194 9.6472191e-08 0)
(0.04366749 9.2309009e-08 0)
(0.043427644 8.8515328e-08 0)
(0.043192937 8.4927242e-08 0)
(0.042963385 8.1545278e-08 0)
(0.042738199 7.8446461e-08 0)
(0.042516949 7.5483864e-08 0)
(0.04229964 7.2568717e-08 0)
(0.04208632 6.9717489e-08 0)
(0.041876891 6.7015789e-08 0)
(0.041670881 6.4500113e-08 0)
(0.041467946 6.2096027e-08 0)
(0.041268029 5.9766228e-08 0)
(0.041070996 5.7544905e-08 0)
(0.040876551 5.5445361e-08 0)
(0.040684453 5.3438343e-08 0)
(0.040494573 5.1507068e-08 0)
(0.04030676 4.9642687e-08 0)
(0.040120925 4.7855305e-08 0)
(0.039936832 4.61484e-08 0)
(0.039754352 4.4499199e-08 0)
(0.039573391 4.2909612e-08 0)
(0.039393784 4.1384818e-08 0)
(0.039215378 3.9908894e-08 0)
(0.039038132 3.8478384e-08 0)
(0.038861902 3.7110827e-08 0)
(0.038686465 3.579106e-08 0)
(0.038511791 3.450243e-08 0)
(0.038337809 3.3253237e-08 0)
(0.038164401 3.2048286e-08 0)
(0.037991416 3.0887462e-08 0)
(0.037818715 2.9760491e-08 0)
(0.037646242 2.8655597e-08 0)
(0.037473987 2.7584139e-08 0)
(0.037301743 2.6561634e-08 0)
(0.037129277 2.5572209e-08 0)
(0.036956551 2.4595023e-08 0)
(0.036783603 2.3642279e-08 0)
(0.036610219 2.2742411e-08 0)
(0.036435981 2.1874764e-08 0)
(0.036260942 2.1005906e-08 0)
(0.036085196 2.0153086e-08 0)
(0.035908521 1.9337977e-08 0)
(0.03573061 1.8551215e-08 0)
(0.035551357 1.7772778e-08 0)
(0.035370813 1.7012059e-08 0)
(0.035188673 1.6287205e-08 0)
(0.035004558 1.5582407e-08 0)
(0.034818452 1.4884288e-08 0)
(0.03463026 1.4207591e-08 0)
(0.034439576 1.3556732e-08 0)
(0.034246126 1.2915405e-08 0)
(0.034049902 1.2285949e-08 0)
(0.033850522 1.1687818e-08 0)
(0.033651837 1.1119849e-08 0)
(0.033460441 1.058811e-08 0)
(0.033277985 1.0123837e-08 0)
(0.033102984 9.6961076e-09 0)
(0.032935629 9.2744078e-09 0)
(0.032775517 8.8827787e-09 0)
(0.03262199 8.5272333e-09 0)
(0.032474433 8.1991379e-09 0)
(0.032332491 7.8879259e-09 0)
(0.032195921 7.5946897e-09 0)
(0.032064333 7.3258961e-09 0)
(0.031937255 7.0796322e-09 0)
(0.031814362 6.8467458e-09 0)
(0.031695506 6.6238197e-09 0)
(0.031580485 6.414721e-09 0)
(0.031469013 6.2261413e-09 0)
(0.031360651 6.0525685e-09 0)
(0.031255309 5.9103333e-09 0)
(0.031151969 5.7499006e-09 0)
(0.031052301 5.7427591e-09 0)
(0.030949201 5.4954325e-09 0)
(0.030858102 6.7614349e-09 0)
(0.030709953 4.2112823e-09 0)
(1 1.6742613e-09 7.9557188e-24)
(0.99998254 6.0974716e-09 0)
(0.9999419 1.112496e-08 0)
(0.99988763 1.5791211e-08 0)
(0.99982274 2.0950599e-08 0)
(0.99974807 2.6938105e-08 0)
(0.99966431 3.387405e-08 0)
(0.99957211 4.194384e-08 0)
(0.99947178 5.1444315e-08 0)
(0.99936328 6.2755489e-08 0)
(0.99924624 7.634749e-08 0)
(0.99911999 9.2835949e-08 0)
(0.99898342 1.1305688e-07 0)
(0.99883495 1.3822817e-07 0)
(0.9986721 1.7003042e-07 0)
(0.99849149 2.1150906e-07 0)
(0.99828709 2.6594259e-07 0)
(0.99805251 3.457238e-07 0)
(0.99776626 4.4952895e-07 0)
(0.99742768 6.700315e-07 0)
(0.99690231 8.8387343e-07 0)
(0.99634704 2.6258994e-06 0)
(0.99387072 2.2080461e-06 0)
(0.99382643 0.00081630071 -3.1650962e-54)
(0.17380382 0.00085488322 4.2519418e-54)
(0.092358486 3.9251062e-05 0)
(0.090056917 9.3564764e-07 0)
(0.090200985 7.0079697e-07 0)
(0.088401917 1.7484322e-06 0)
(0.086080381 1.8897718e-06 0)
(0.08391558 1.6842261e-06 0)
(0.082047781 1.4419428e-06 0)
(0.080429194 1.2465369e-06 0)
(0.079003403 1.0934798e-06 0)
(0.07773145 9.7013201e-07 0)
(0.07658506 8.758071e-07 0)
(0.075524737 8.0245843e-07 0)
(0.074540956 7.3735463e-07 0)
(0.07362533 6.7870065e-07 0)
(0.072772493 6.2519734e-07 0)
(0.071977021 5.7758704e-07 0)
(0.071231244 5.3589313e-07 0)
(0.07052928 4.9874136e-07 0)
(0.069866751 4.657616e-07 0)
(0.069238441 4.3639746e-07 0)
(0.068641191 4.0976926e-07 0)
(0.068072006 3.8541632e-07 0)
(0.067528794 3.6304285e-07 0)
(0.067009246 3.4277665e-07 0)
(0.066510764 3.2399684e-07 0)
(0.066032656 3.0658775e-07 0)
(0.065572561 2.9097252e-07 0)
(0.065128403 2.7637657e-07 0)
(0.064700006 2.626176e-07 0)
(0.064285797 2.5015144e-07 0)
(0.063884087 2.3848592e-07 0)
(0.063494739 2.2734813e-07 0)
(0.063116891 2.1717272e-07 0)
(0.062748907 2.0778495e-07 0)
(0.062390419 1.9870339e-07 0)
(0.062041352 1.9013071e-07 0)
(0.061700606 1.8231504e-07 0)
(0.061367167 1.7492311e-07 0)
(0.061041052 1.679594e-07 0)
(0.060721131 1.615784e-07 0)
(0.060406802 1.5547457e-07 0)
(0.060098079 1.4946906e-07 0)
(0.059795022 1.4359791e-07 0)
(0.059497486 1.3803464e-07 0)
(0.059204807 1.3285201e-07 0)
(0.058916502 1.2789931e-07 0)
(0.058632484 1.2310124e-07 0)
(0.05835256 1.1852714e-07 0)
(0.05807631 1.1420254e-07 0)
(0.057803398 1.1006778e-07 0)
(0.057533638 1.0608955e-07 0)
(0.057266815 1.022505e-07 0)
(0.057002795 9.8569681e-08 0)
(0.056741253 9.5053088e-08 0)
(0.056482005 9.1655743e-08 0)
(0.056224915 8.838207e-08 0)
(0.055969746 8.5242046e-08 0)
(0.05571628 8.2201938e-08 0)
(0.055464465 7.9255016e-08 0)
(0.055214095 7.6438004e-08 0)
(0.054964853 7.3720216e-08 0)
(0.054716689 7.10664e-08 0)
(0.054469508 6.8492941e-08 0)
(0.054223146 6.6010821e-08 0)
(0.053977385 6.3620048e-08 0)
(0.053732026 6.1299119e-08 0)
(0.053486989 5.9023285e-08 0)
(0.053242263 5.6816118e-08 0)
(0.052997554 5.4709965e-08 0)
(0.052752528 5.2672309e-08 0)
(0.052507132 5.0659708e-08 0)
(0.05226142 4.8697075e-08 0)
(0.05201509 4.6843466e-08 0)
(0.051767546 4.5056538e-08 0)
(0.051518862 4.3267055e-08 0)
(0.051269174 4.1510326e-08 0)
(0.051018168 3.9831319e-08 0)
(0.050765404 3.8210922e-08 0)
(0.050510733 3.6607636e-08 0)
(0.050254229 3.5040658e-08 0)
(0.049995457 3.3547576e-08 0)
(0.049733879 3.2095977e-08 0)
(0.04946947 3.0658082e-08 0)
(0.0492021 2.9264172e-08 0)
(0.048931188 2.7923573e-08 0)
(0.048656345 2.6602655e-08 0)
(0.048377562 2.5306115e-08 0)
(0.048094295 2.4074102e-08 0)
(0.047812015 2.2904273e-08 0)
(0.047540091 2.1809019e-08 0)
(0.047280867 2.0852684e-08 0)
(0.047032236 1.9971702e-08 0)
(0.046794467 1.9103123e-08 0)
(0.046566988 1.829644e-08 0)
(0.046348866 1.7564077e-08 0)
(0.046139225 1.6888306e-08 0)
(0.04593756 1.6247309e-08 0)
(0.045743529 1.5643291e-08 0)
(0.045556576 1.5089614e-08 0)
(0.045376031 1.4582366e-08 0)
(0.045201431 1.4102699e-08 0)
(0.045032567 1.3643524e-08 0)
(0.04486915 1.321279e-08 0)
(0.044710778 1.2824317e-08 0)
(0.044556824 1.2466759e-08 0)
(0.044407162 1.2173712e-08 0)
(0.044260347 1.1843163e-08 0)
(0.044118744 1.1828088e-08 0)
(0.043972296 1.1328091e-08 0)
(0.043842867 1.3934427e-08 0)
(0.043632383 8.6718092e-09 0)
(1 2.1950831e-09 0)
(0.99998254 7.9942384e-09 0)
(0.9999419 1.4585641e-08 0)
(0.99988763 2.0703462e-08 0)
(0.99982274 2.7467853e-08 0)
(0.99974807 3.5318003e-08 0)
(0.99966431 4.441167e-08 0)
(0.99957211 5.4991931e-08 0)
(0.99947178 6.7447958e-08 0)
(0.99936328 8.2277967e-08 0)
(0.99924623 1.0009832e-07 0)
(0.99911997 1.2171616e-07 0)
(0.99898341 1.4822753e-07 0)
(0.99883493 1.812292e-07 0)
(0.99867207 2.2292453e-07 0)
(0.99849146 2.7730629e-07 0)
(0.99828706 3.4867287e-07 0)
(0.99805248 4.532718e-07 0)
(0.99776622 5.8936848e-07 0)
(0.99742764 8.7845895e-07 0)
(0.99690227 1.1588469e-06 0)
(0.996347 3.442625e-06 0)
(0.99387073 2.8954575e-06 0)
(0.99382683 0.0010393214 0)
(0.22201277 0.0011032146 0)
(0.12108031 6.5612192e-05 0)
(0.11806487 1.6232873e-06 0)
(0.11823709 1.2192322e-06 1.2831734e-20)
(0.11587684 3.0334564e-06 0)
(0.11283277 3.277279e-06 0)
(0.10999715 2.9197488e-06 0)
(0.10755056 2.4999504e-06 0)
(0.10542988 2.1614193e-06 0)
(0.10356164 1.8960591e-06 0)
(0.10189501 1.682163e-06 0)
(0.10039288 1.5186212e-06 0)
(0.099003494 1.3914522e-06 0)
(0.097714382 1.278571e-06 0)
(0.096514563 1.1768688e-06 0)
(0.095397009 1.0841004e-06 0)
(0.094354607 1.001551e-06 0)
(0.093377313 9.2925889e-07 0)
(0.092457419 8.6484162e-07 0)
(0.091589192 8.0765647e-07 0)
(0.090765799 7.5674192e-07 0)
(0.089983102 7.1056731e-07 0)
(0.089237181 6.6834213e-07 0)
(0.088525282 6.2954913e-07 0)
(0.087844396 5.9440276e-07 0)
(0.087191117 5.6184176e-07 0)
(0.086564522 5.3165708e-07 0)
(0.085961536 5.0457483e-07 0)
(0.085379438 4.7926764e-07 0)
(0.084817982 4.5541245e-07 0)
(0.084275119 4.3379156e-07 0)
(0.083748642 4.1356299e-07 0)
(0.083238357 3.9425333e-07 0)
(0.082743136 3.7660743e-07 0)
(0.082260849 3.6032481e-07 0)
(0.081791009 3.4457961e-07 0)
(0.081333502 3.2971719e-07 0)
(0.080886899 3.1616119e-07 0)
(0.080449881 3.0334038e-07 0)
(0.08002246 2.9126787e-07 0)
(0.079603146 2.8020505e-07 0)
(0.07919116 2.6961761e-07 0)
(0.078786529 2.5920144e-07 0)
(0.078389322 2.4902258e-07 0)
(0.077999342 2.3937742e-07 0)
(0.077615727 2.3038846e-07 0)
(0.077237849 2.2179825e-07 0)
(0.076865589 2.1347879e-07 0)
(0.07649869 2.0554853e-07 0)
(0.076136602 1.9804887e-07 0)
(0.075778891 1.9087717e-07 0)
(0.075425315 1.8397783e-07 0)
(0.075075586 1.7732201e-07 0)
(0.074729524 1.7093997e-07 0)
(0.074386709 1.6484038e-07 0)
(0.074046905 1.5894809e-07 0)
(0.073709929 1.5327173e-07 0)
(0.073375466 1.4782741e-07 0)
(0.073043233 1.4255522e-07 0)
(0.072713166 1.37444e-07 0)
(0.072384994 1.3255851e-07 0)
(0.072058298 1.278463e-07 0)
(0.07173301 1.2324476e-07 0)
(0.071409012 1.1878125e-07 0)
(0.071086089 1.1447639e-07 0)
(0.070763953 1.1033071e-07 0)
(0.07044234 1.0630631e-07 0)
(0.070121149 1.0235954e-07 0)
(0.069800365 9.8531492e-08 0)
(0.069479603 9.4878939e-08 0)
(0.069158426 9.1345723e-08 0)
(0.068836759 8.7855712e-08 0)
(0.068514678 8.4451765e-08 0)
(0.068191789 8.1237061e-08 0)
(0.067867308 7.8138487e-08 0)
(0.067541328 7.5035383e-08 0)
(0.067214032 7.1988641e-08 0)
(0.06688501 6.9076754e-08 0)
(0.066553683 6.6266854e-08 0)
(0.066219853 6.3486572e-08 0)
(0.065883619 6.0768957e-08 0)
(0.065544412 5.8179535e-08 0)
(0.065201528 5.5662316e-08 0)
(0.064854929 5.3168774e-08 0)
(0.064504448 5.0751306e-08 0)
(0.064149326 4.8426418e-08 0)
(0.063789048 4.6135736e-08 0)
(0.063423604 4.3887219e-08 0)
(0.063052283 4.1750611e-08 0)
(0.062682253 3.9721933e-08 0)
(0.062325797 3.7822506e-08 0)
(0.061985989 3.6163929e-08 0)
(0.061660067 3.4636126e-08 0)
(0.061348382 3.312986e-08 0)
(0.061050186 3.1730845e-08 0)
(0.060764256 3.0460714e-08 0)
(0.060489443 2.9288803e-08 0)
(0.060225084 2.8177196e-08 0)
(0.059970731 2.7129648e-08 0)
(0.059725658 2.6169393e-08 0)
(0.059488984 2.5289695e-08 0)
(0.059260104 2.4457871e-08 0)
(0.059038741 2.3661545e-08 0)
(0.058824521 2.2914481e-08 0)
(0.058616913 2.2240695e-08 0)
(0.058415099 2.1620545e-08 0)
(0.05821891 2.1112166e-08 0)
(0.058026458 2.0538848e-08 0)
(0.057840831 2.0511799e-08 0)
(0.057648896 1.9652812e-08 0)
(0.057479227 2.4173591e-08 -3.0114666e-22)
(0.057203301 1.5035876e-08 5.4605843e-23)
(1 2.7486179e-09 0)
(0.99998254 1.0010137e-08 0)
(0.9999419 1.8263677e-08 0)
(0.99988763 2.5924248e-08 0)
(0.99982274 3.4394475e-08 0)
(0.99974807 4.4224307e-08 0)
(0.99966431 5.561129e-08 0)
(0.99957211 6.8859794e-08 0)
(0.99947178 8.4457116e-08 0)
(0.99936327 1.030271e-07 0)
(0.99924622 1.2534151e-07 0)
(0.99911996 1.5241102e-07 0)
(0.99898339 1.8560807e-07 0)
(0.99883491 2.2693205e-07 0)
(0.99867205 2.7914195e-07 0)
(0.99849143 3.4723735e-07 0)
(0.99828703 4.3660061e-07 0)
(0.99805244 5.6757594e-07 0)
(0.99776618 7.3799251e-07 0)
(0.9974276 1.0999763e-06 0)
(0.99690222 1.4510646e-06 0)
(0.99634695 4.3106158e-06 0)
(0.99387076 3.6262491e-06 0)
(0.99382739 0.0012620253 0)
(0.27050906 0.0013584929 0)
(0.15157039 9.920061e-05 0)
(0.14778133 2.5598337e-06 0)
(0.147957 1.9294672e-06 0)
(0.14500115 4.7768777e-06 0)
(0.14119412 5.1581997e-06 0)
(0.13765152 4.5937492e-06 0)
(0.13459476 3.9336493e-06 0)
(0.13194436 3.4014192e-06 0)
(0.12960916 2.9839072e-06 0)
(0.1275259 2.6472892e-06 0)
(0.1256482 2.3899567e-06 0)
(0.12391132 2.1898632e-06 0)
(0.12229973 2.012236e-06 0)
(0.1207997 1.8521934e-06 0)
(0.11940247 1.7062121e-06 0)
(0.11809915 1.5763127e-06 0)
(0.11687718 1.462552e-06 0)
(0.11572694 1.3611813e-06 0)
(0.11464126 1.271189e-06 -6.277076e-33)
(0.11361162 1.1910653e-06 0)
(0.11263284 1.1183951e-06 0)
(0.11170003 1.0519461e-06 0)
(0.11080973 9.9089751e-07 0)
(0.1099582 9.3557737e-07 0)
(0.10914119 8.843372e-07 0)
(0.10835751 8.3683592e-07 0)
(0.10760335 7.9420547e-07 0)
(0.10687532 7.5437933e-07 0)
(0.10617307 7.1683945e-07 0)
(0.10549406 6.8280486e-07 0)
(0.10483555 6.5096718e-07 0)
(0.10419728 6.2058161e-07 0)
(0.10357783 5.9280679e-07 0)
(0.10297456 5.6717384e-07 0)
(0.10238685 5.4239624e-07 0)
(0.10181455 5.190087e-07 0)
(0.10125588 4.976677e-07 0)
(0.10070921 4.774843e-07 0)
(0.10017453 4.5848746e-07 0)
(0.099649977 4.4107866e-07 0)
(0.099134586 4.2440992e-07 0)
(0.098628402 4.0801181e-07 0)
(0.098131498 3.9199394e-07 0)
(0.097643618 3.7681575e-07 0)
(0.097163695 3.6266451e-07 0)
(0.096690953 3.491407e-07 0)
(0.096225237 3.3604718e-07 0)
(0.095766215 3.235675e-07 0)
(0.095313203 3.1176242e-07 0)
(0.094865669 3.0047146e-07 0)
(0.094423308 2.8961072e-07 0)
(0.093985753 2.7913658e-07 0)
(0.093552775 2.6909241e-07 0)
(0.093123856 2.5948924e-07 0)
(0.092698708 2.5021303e-07 0)
(0.092277092 2.4127906e-07 0)
(0.091858614 2.3271072e-07 0)
(0.091442919 2.2441155e-07 0)
(0.091029934 2.163647e-07 0)
(0.090619321 2.0867392e-07 0)
(0.090210549 2.0125777e-07 0)
(0.08980353 1.9401536e-07 0)
(0.089398122 1.8698818e-07 0)
(0.08899406 1.8021108e-07 0)
(0.088590981 1.7368576e-07 0)
(0.088188549 1.673516e-07 0)
(0.087786639 1.611387e-07 0)
(0.087385239 1.5511213e-07 0)
(0.086983866 1.4936231e-07 0)
(0.086581968 1.4380119e-07 0)
(0.08617945 1.3830768e-07 0)
(0.085776412 1.3294873e-07 0)
(0.085372364 1.2788794e-07 0)
(0.084966319 1.2301071e-07 0)
(0.084558392 1.1812619e-07 0)
(0.084148816 1.133297e-07 0)
(0.083737079 1.087456e-07 0)
(0.083322454 1.0432257e-07 0)
(0.082904691 9.9946076e-08 0)
(0.082483916 9.566776e-08 0)
(0.082059421 9.1591306e-08 0)
(0.08163032 8.7628907e-08 0)
(0.081196564 8.3703639e-08 0)
(0.080757947 7.9897812e-08 0)
(0.08031352 7.6237908e-08 0)
(0.079862636 7.263196e-08 0)
(0.079405282 6.9092214e-08 0)
(0.078940571 6.5728647e-08 0)
(0.078477471 6.2535111e-08 0)
(0.078031355 5.9544921e-08 0)
(0.077606072 5.6933785e-08 0)
(0.077198168 5.4528651e-08 0)
(0.076808077 5.2157478e-08 0)
(0.076434866 4.9954994e-08 0)
(0.076077005 4.7955398e-08 0)
(0.075733056 4.6110546e-08 0)
(0.075402189 4.4360623e-08 0)
(0.075083844 4.2711432e-08 0)
(0.074777111 4.1199644e-08 0)
(0.074480891 3.9814738e-08 0)
(0.074194425 3.850526e-08 0)
(0.073917364 3.7251601e-08 0)
(0.073649243 3.6075401e-08 0)
(0.073389399 3.5014532e-08 0)
(0.073136806 3.4038153e-08 0)
(0.072891253 3.3237519e-08 0)
(0.072650385 3.2334932e-08 0)
(0.072418047 3.2290632e-08 0)
(0.072177869 3.0937779e-08 0)
(0.071965503 3.8065455e-08 0)
(0.071620137 2.366215e-08 -3.1138301e-23)
(1 3.3431149e-09 0)
(0.99998254 1.217521e-08 0)
(0.9999419 2.2213875e-08 0)
(0.99988763 3.1531372e-08 0)
(0.99982274 4.1833696e-08 0)
(0.99974806 5.3789761e-08 0)
(0.99966431 6.7639846e-08 0)
(0.9995721 8.375415e-08 0)
(0.99947177 1.0272535e-07 0)
(0.99936326 1.253122e-07 0)
(0.99924621 1.5245339e-07 0)
(0.99911995 1.8537815e-07 0)
(0.99898337 2.2575576e-07 0)
(0.99883488 2.7601804e-07 0)
(0.99867202 3.3952072e-07 0)
(0.9984914 4.2234467e-07 0)
(0.998287 5.3103645e-07 0)
(0.9980524 6.9033981e-07 0)
(0.99776614 8.9761618e-07 0)
(0.99742755 1.3378834e-06 0)
(0.99690217 1.7649247e-06 0)
(0.9963469 5.2427284e-06 0)
(0.99387081 4.4114386e-06 0)
(0.99382814 0.0014856247 0)
(0.31960042 0.0016226852 0)
(0.18420813 0.00014104776 0)
(0.1795204 3.819131e-06 0)
(0.17964477 2.8851386e-06 -3.3496996e-20)
(0.17605484 7.0800211e-06 1.5419546e-20)
(0.17144469 7.6398301e-06 0)
(0.16715922 6.8012469e-06 0)
(0.16346073 5.8246715e-06 0)
(0.16025257 5.0373816e-06 0)
(0.15742534 4.4192796e-06 0)
(0.15490288 3.9208047e-06 0)
(0.15262903 3.5397963e-06 0)
(0.15052547 3.2435436e-06 0)
(0.14857345 2.9805277e-06 0)
(0.14675636 2.7435381e-06 0)
(0.14506363 2.527369e-06 0)
(0.1434845 2.3350131e-06 0)
(0.1420038 2.1665503e-06 0)
(0.1406099 2.016429e-06 0)
(0.13929414 1.8831535e-06 6.7219287e-33)
(0.13804619 1.764492e-06 0)
(0.1368598 1.6568597e-06 0)
(0.13572906 1.5584484e-06 0)
(0.13464977 1.4680324e-06 0)
(0.13361742 1.3860854e-06 0)
(0.13262687 1.3101964e-06 0)
(0.13167667 1.2398432e-06 0)
(0.13076222 1.1766874e-06 0)
(0.12987941 1.1176998e-06 0)
(0.12902781 1.0621e-06 0)
(0.12820436 1.0116759e-06 0)
(0.12740575 9.6451352e-07 0)
(0.12663163 9.1951065e-07 0)
(0.12588031 8.7836329e-07 0)
(0.12514859 8.4038303e-07 0)
(0.12443573 8.0368355e-07 0)
(0.12374151 7.6904413e-07 0)
(0.1230638 7.374219e-07 0)
(0.12240064 7.0751502e-07 0)
(0.121752 6.7937892e-07 0)
(0.12111561 6.5359352e-07 0)
(0.12049032 6.2889211e-07 0)
(0.1198762 6.045931e-07 0)
(0.11927332 5.8086744e-07 0)
(0.11868136 5.5838515e-07 0)
(0.11809903 5.3741538e-07 0)
(0.11752541 5.1737468e-07 0)
(0.1169603 4.9797769e-07 0)
(0.11640329 4.7949188e-07 0)
(0.11585355 4.6200075e-07 0)
(0.11531045 4.4526799e-07 0)
(0.11477363 4.2917497e-07 0)
(0.11424262 4.1365961e-07 0)
(0.11371713 3.9877977e-07 0)
(0.11319657 3.845479e-07 0)
(0.11268058 3.7080131e-07 0)
(0.11216886 3.5756541e-07 0)
(0.11166093 3.4487175e-07 0)
(0.11115637 3.3257421e-07 0)
(0.11065508 3.206488e-07 0)
(0.11015667 3.0925219e-07 0)
(0.10966049 2.9826525e-07 0)
(0.10916641 2.8753497e-07 0)
(0.10867427 2.7712055e-07 0)
(0.10818377 2.6707708e-07 0)
(0.10769445 2.574086e-07 0)
(0.1072059 2.4802364e-07 0)
(0.10671797 2.3881696e-07 0)
(0.10623065 2.2988545e-07 0)
(0.10574336 2.2136482e-07 0)
(0.10525542 2.1312503e-07 0)
(0.10476671 2.049848e-07 0)
(0.10427736 1.9704254e-07 0)
(0.10378678 1.895425e-07 0)
(0.10329376 1.8231562e-07 0)
(0.10279844 1.7507761e-07 0)
(0.10230111 1.67969e-07 0)
(0.10180116 1.6117526e-07 0)
(0.10129768 1.54621e-07 0)
(0.10079038 1.4813551e-07 0)
(0.10027941 1.4179479e-07 0)
(0.099763915 1.3575331e-07 0)
(0.099242817 1.2988142e-07 0)
(0.098716051 1.2406432e-07 0)
(0.098183373 1.1842373e-07 0)
(0.097643629 1.1299966e-07 0)
(0.097096031 1.0765569e-07 0)
(0.096540561 1.0240955e-07 0)
(0.095976147 9.7424505e-08 0)
(0.095413676 9.2691625e-08 0)
(0.094871821 8.8259907e-08 0)
(0.094355262 8.4389803e-08 0)
(0.093859805 8.082522e-08 0)
(0.093385975 7.7310995e-08 0)
(0.092932641 7.4046573e-08 0)
(0.092497947 7.1082833e-08 0)
(0.092080145 6.8348612e-08 0)
(0.091678226 6.5755068e-08 0)
(0.091291514 6.3310644e-08 0)
(0.090918904 6.1069832e-08 0)
(0.090559061 5.9017173e-08 0)
(0.090211061 5.7076397e-08 0)
(0.089874484 5.5218248e-08 0)
(0.089548763 5.3474762e-08 0)
(0.089233095 5.1902161e-08 0)
(0.088926235 5.0454885e-08 0)
(0.088627925 4.9267724e-08 0)
(0.088335313 4.7929986e-08 0)
(0.088053048 4.7861475e-08 0)
(0.087761327 4.5853748e-08 -3.6683386e-23)
(0.087503321 5.6433061e-08 0)
(0.087083721 3.5064421e-08 0)
(1 3.9874348e-09 0)
(0.99998254 1.4521722e-08 0)
(0.9999419 2.6495102e-08 0)
(0.99988763 3.7608394e-08 0)
(0.99982274 4.9896388e-08 0)
(0.99974806 6.4156937e-08 0)
(0.9996643 8.0676641e-08 0)
(0.9995721 9.9897041e-08 0)
(0.99947176 1.2252502e-07 0)
(0.99936325 1.4946555e-07 0)
(0.9992462 1.8183819e-07 0)
(0.99911993 2.2110908e-07 0)
(0.99898335 2.6926919e-07 0)
(0.99883486 3.2921902e-07 0)
(0.99867199 4.0496101e-07 0)
(0.99849137 5.0374793e-07 0)
(0.99828696 6.3338813e-07 0)
(0.99805236 8.2339324e-07 0)
(0.99776609 1.0706187e-06 0)
(0.9974275 1.5957243e-06 0)
(0.99690211 2.1051009e-06 0)
(0.99634684 6.2528146e-06 0)
(0.99387089 5.2628768e-06 0)
(0.99382911 0.0017108242 -7.9550108e-54)
(0.36947664 0.0018974912 1.1139516e-53)
(0.21930569 0.00019234053 -6.148687e-19)
(0.2134414 5.5418777e-06 0)
(0.21340426 4.1682815e-06 -3.8627863e-20)
(0.20914324 1.0069918e-05 0)
(0.20370287 1.0854528e-05 0)