/*--------------------------------*- C++ -*----------------------------------*\
  =========                 |
  \\      /  F ield         | OpenFOAM: The Open Source CFD Toolbox
   \\    /   O peration     | Website:  https://openfoam.org
    \\  /    A nd           | Version:  12
     \\/     M anipulation  |
\*---------------------------------------------------------------------------*/
FoamFile
{
    format      ascii;
    class       volVectorField;
    location    "2000";
    object      wallShearStress;
}
// * * * * * * * * * * * * * * * * * * * * * * * * * * * * * * * * * * * * * //

dimensions      [0 2 -2 0 0 0 0];

internalField   uniform (0 0 0);

boundaryField
{
    bottom
    {
        type            calculated;
        value           nonuniform List<vector> 
112
(
(-0.0052231575 -3.4938207e-05 0)
(-0.0025556531 -5.6713641e-07 7.1396878e-19)
(-0.0024920734 -6.8934332e-09 7.2963443e-19)
(-0.0024962997 -5.1259881e-09 -2.7616831e-19)
(-0.0024466034 -1.2850699e-08 0)
(-0.0023825011 -1.391521e-08 0)
(-0.0023225343 -1.242057e-08 0)
(-0.0022707889 -1.062876e-08 0)
(-0.0022259788 -9.184039e-09 0)
(-0.0021865138 -8.0563189e-09 -8.5862405e-19)
(-0.0021513036 -7.1480903e-09 0)
(-0.0021195682 -6.4529747e-09 -6.8771109e-19)
(-0.0020902165 -5.912427e-09 6.3010866e-19)
(-0.0020629839 -5.4326868e-09 -5.7898646e-19)
(-0.0020376379 -5.0005772e-09 0)
(-0.00201403 -4.606317e-09 4.9091551e-19)
(-0.0019920103 -4.2554723e-09 0)
(-0.0019713666 -3.9482346e-09 -2.1039369e-19)
(-0.001951936 -3.6744548e-09 0)
(-0.001933597 -3.4314845e-09 -3.6571638e-19)
(-0.0019162054 -3.2150725e-09 3.4265982e-19)
(-0.0018996736 -3.0189508e-09 0)
(-0.0018839185 -2.8394724e-09 0)
(-0.001868883 -2.6745568e-09 0)
(-0.0018545022 -2.5253869e-09 -2.6914556e-19)
(-0.0018407042 -2.3869363e-09 0)
(-0.0018274711 -2.2585948e-09 0)
(-0.0018147361 -2.1436952e-09 0)
(-0.0018024419 -2.0360867e-09 0)
(-0.0017905849 -1.9346387e-09 -2.0620274e-19)
(-0.0017791203 -1.8429051e-09 1.9641465e-19)
(-0.0017680012 -1.7569539e-09 0)
(-0.0017572248 -1.6748108e-09 0)
(-0.001746767 -1.5998708e-09 0)
(-0.0017365816 -1.5308005e-09 1.6314888e-19)
(-0.001726659 -1.4638247e-09 0)
(-0.0017169979 -1.4005949e-09 0)
(-0.001707567 -1.343088e-09 -1.4314924e-19)
(-0.0016983378 -1.28869e-09 0)
(-0.0016893114 -1.2373155e-09 0)
(-0.0016804571 -1.1902522e-09 0)
(-0.0016717575 -1.145352e-09 1.2207423e-19)
(-0.0016632124 -1.1011518e-09 -5.8679803e-20)
(-0.0016548243 -1.0578478e-09 1.1274882e-19)
(-0.0016465895 -1.0168154e-09 0)
(-0.0016384892 -9.7867675e-10 0)
(-0.0016305095 -9.4222492e-10 -1.5063454e-19)
(-0.0016226484 -9.0685789e-10 0)
(-0.001614901 -8.7312076e-10 9.3063162e-20)
(-0.0016072554 -8.4127049e-10 0)
(-0.001599702 -8.1084091e-10 0)
(-0.0015922356 -7.8154862e-10 -4.1649101e-20)
(-0.0015848506 -7.532313e-10 -4.014165e-20)
(-0.0015775436 -7.2609179e-10 0)
(-0.0015703051 -7.0021828e-10 -7.463207e-20)
(-0.0015631297 -6.752066e-10 0)
(-0.0015560141 -6.5107694e-10 0)
(-0.0015489519 -6.2792317e-10 0)
(-0.001541937 -6.055333e-10 0)
(-0.0015349676 -5.8384061e-10 0)
(-0.001528038 -5.6309718e-10 0)
(-0.0015211397 -5.4305646e-10 0)
(-0.0015142716 -5.2349304e-10 0)
(-0.0015074306 -5.0455333e-10 0)
(-0.001500612 -4.8627606e-10 -5.1829128e-20)
(-0.0014938101 -4.6865763e-10 0)
(-0.0014870195 -4.5154929e-10 -2.4064665e-20)
(-0.0014802379 -4.3478645e-10 0)
(-0.0014734648 -4.1853609e-10 -2.2304813e-20)
(-0.001466692 -4.0302381e-10 4.2955954e-20)
(-0.0014599105 -3.8800281e-10 4.1355908e-20)
(-0.001453119 -3.7317238e-10 -1.9887807e-20)
(-0.0014463187 -3.5872318e-10 0)
(-0.0014395011 -3.4507258e-10 0)
(-0.00143265 -3.319027e-10 3.5376307e-20)
(-0.0014257675 -3.1871592e-10 -3.3971205e-20)
(-0.0014188571 -3.0577994e-10 0)
(-0.0014119102 -2.9341514e-10 0)
(-0.0014049147 -2.8147428e-10 -3.0001393e-20)
(-0.0013978665 -2.6966043e-10 0)
(-0.0013907675 -2.5812078e-10 0)
(-0.0013836057 -2.4712472e-10 0)
(-0.0013763663 -2.3642776e-10 0)
(-0.0013690486 -2.2583388e-10 0)
(-0.0013616489 -2.1556929e-10 0)
(-0.0013541512 -2.0569373e-10 0)
(-0.0013465447 -1.9596145e-10 0)
(-0.0013388292 -1.8641132e-10 1.9869066e-20)
(-0.0013309896 -1.7733663e-10 -1.8901735e-20)
(-0.0013231773 -1.6871788e-10 0)
(-0.0013156516 -1.6064987e-10 0)
(-0.0013084775 -1.5360699e-10 0)
(-0.0013015964 -1.4711663e-10 0)
(-0.001295016 -1.4071716e-10 0)
(-0.0012887205 -1.3477584e-10 0)
(-0.0012826838 -1.2938208e-10 0)
(-0.0012768818 -1.2440323e-10 0)
(-0.0012713006 -1.1968048e-10 -1.2756486e-20)
(-0.0012659308 -1.1523202e-10 0)
(-0.0012607567 -1.1115449e-10 0)
(-0.00125576 -1.0741809e-10 0)
(-0.0012509278 -1.0388379e-10 0)
(-0.0012462544 -1.0050143e-10 0)
(-0.0012417317 -9.7329944e-11 0)
(-0.0012373486 -9.4469522e-11 0)
(-0.0012330877 -9.1837281e-11 0)
(-0.0012289456 -8.9679865e-11 0)
(-0.0012248818 -8.7251874e-11 0)
(-0.0012209629 -8.7147917e-11 0)
(-0.001216907 -1.5034494e-10 0)
(-0.001213325 -1.0225093e-10 -1.0981902e-20)
(-0.0012074999 -1.1557205e-10 0)
)
;
    }
    back
    {
        type            empty;
    }
    front
    {
        type            empty;
    }
    inlet
    {
        type            calculated;
        value           uniform (0 0 0);
    }
    outlet
    {
        type            calculated;
        value           uniform (0 0 0);
    }
    top
    {
        type            calculated;
        value           uniform (0 0 0);
    }
    slipsurface
    {
        type            calculated;
        value           uniform (0 0 0);
    }
}


// ************************************************************************* //
