#      distance             U_x             U_y             U_z wallShearStr... wallShearStr... wallShearStr...               p           omega               k             nut
    0.001215373      0.62966122   9.9140334e-05               0               0               0               0   0.00015900714        356.9183    0.0041861483    1.516021e-05
   0.0020572852      0.68699729   0.00011985033               0               0               0               0   0.00016310908       180.47918    0.0041284574   2.5066818e-05
   0.0029273097      0.72303712   0.00014443603               0               0               0               0   0.00016834686       119.73098    0.0039714017   3.4680936e-05
   0.0038263852      0.75019367   0.00017348113               0               0               0               0   0.00017428619       89.971573    0.0038431037   4.3783309e-05
   0.0047554818       0.7724349   0.00020681686               0               0               0               0   0.00018062909       72.469492    0.0037249212   5.2171679e-05
   0.0057156019       0.7915963   0.00024431589               0               0               0               0   0.00018715982        61.05465    0.0036077216   5.9648165e-05
   0.0067077814      0.80869527   0.00028594641               0               0               0               0    0.0001937019       53.114679    0.0034871935   6.6050954e-05
   0.0077330908      0.82436009   0.00033175338               0               0               0               0   0.00020009314       47.357862    0.0033608755   7.1239766e-05
   0.0087926364      0.83901945   0.00038194851               0               0               0               0   0.00020617726       43.072226    0.0032269026   7.5006937e-05
   0.0098875613      0.85301755   0.00043698403               0               0               0               0   0.00021179211       39.821233    0.0030828449   7.6909597e-05
    0.011019047      0.86666181   0.00049756873               0               0               0               0    0.0002167424        37.30381    0.0029251279   7.6702303e-05
    0.012188314      0.88020174     0.000564781               0               0               0               0   0.00022081958       35.293182    0.0027491723   7.4569116e-05
    0.013396624      0.89381976   0.00064008542               0               0               0               0   0.00022387265       33.604838    0.0025496559   7.0738054e-05
    0.014645281      0.90764231   0.00072502326               0               0               0               0    0.0002258458       32.078277    0.0023212431   6.5469087e-05
    0.015935632      0.92171407   0.00082058191               0               0               0               0   0.00022676294       30.574312    0.0020602501   5.9222325e-05
    0.017269069      0.93591677   0.00092628478               0               0               0               0   0.00022668824        28.98673    0.0017678488   5.2725967e-05
    0.018647031      0.94987344    0.0010390862               0               0               0               0   0.00022569885       27.282576    0.0014549747   4.6781738e-05
    0.020071004      0.96302405    0.0011539623               0               0               0               0   0.00022393294       25.487098    0.0011401125   4.1379391e-05
    0.021542526      0.97503765    0.0012670204               0               0               0               0   0.00022162247       23.532274   0.00083490274   3.4512935e-05
    0.023063183      0.98587238     0.001375738               0               0               0               0   0.00021897129       21.086404   0.00054502914   2.5311657e-05
    0.024634616      0.99493516     0.001470276               0               0               0               0   0.00021605658        17.52414   0.00029264242   1.5826252e-05
    0.026258521       1.0008285    0.0015307409               0               0               0               0   0.00021297166       12.689962   0.00011661799   8.1269008e-06
     0.02793665       1.0032288     0.001552607               0               0               0               0   0.00020995605       8.3020501   3.1253604e-05   3.1487286e-06
    0.029670814       1.0037137    0.0015543559               0               0               0               0   0.00020714406       6.2086567   5.6793718e-06   8.3599021e-07
    0.031462883       1.0037479    0.0015515784               0               0               0               0   0.00020443167       5.7843309   1.2886704e-06   2.2139313e-07
    0.033314791       1.0037455    0.0015480264               0               0               0               0   0.00020167965       5.7421205   8.3847785e-07    1.460118e-07
    0.035228536       1.0037437    0.0015423159               0               0               0               0   0.00019878042       5.7389336   8.0335738e-07   1.3997928e-07
    0.037206184       1.0037425    0.0015390951               0               0               0               0    0.0001957352       5.7387109   8.0084898e-07   1.3954734e-07
    0.039249867       1.0037407    0.0015412228               0               0               0               0    0.0001926852       5.7386923   8.0067835e-07   1.3951803e-07
     0.04136179        1.003738     0.001542834               0               0               0               0   0.00018969453       5.7386864   8.0066646e-07    1.395161e-07
    0.043544233       1.0037351    0.0015422047               0               0               0               0   0.00018670951       5.7386805   8.0066472e-07   1.3951594e-07
     0.04579955       1.0037321    0.0015401309               0               0               0               0   0.00018367701       5.7386738   8.0066349e-07   1.3951589e-07
    0.048130175       1.0037294    0.0015376186               0               0               0               0   0.00018056269       5.7386662   8.0066218e-07   1.3951584e-07
    0.050538621       1.0037314    0.0015366165               0               0               0               0   0.00017737272       5.7386586   8.0066096e-07   1.3951582e-07
    0.053027488       1.0037424    0.0015419055               0               0               0               0   0.00017420869         5.73865   8.0065973e-07   1.3951581e-07
    0.055599461       1.0037553    0.0015540156               0               0               0               0   0.00017125913       5.7386384   8.0065781e-07   1.3951576e-07
    0.058257315       1.0037636    0.0015643169               0               0               0               0   0.00016860856       5.7386247   8.0065541e-07   1.3951567e-07
    0.061003917       1.0037689    0.0015706065               0               0               0               0   0.00016619086       5.7386103     8.00653e-07   1.3951561e-07
    0.063842231       1.0037733     0.001575105               0               0               0               0   0.00016395322       5.7385946   8.0065046e-07   1.3951554e-07
     0.06677532       1.0037768    0.0015774573               0               0               0               0   0.00016187346       5.7385774   8.0064771e-07   1.3951548e-07
    0.069806347         1.00378    0.0015775993               0               0               0               0   0.00015994732       5.7385585   8.0064473e-07   1.3951542e-07
    0.072938584       1.0037828    0.0015750317               0               0               0               0   0.00015817755       5.7385377   8.0064145e-07   1.3951536e-07
    0.076175409       1.0037832     0.001569969               0               0               0               0   0.00015651911       5.7385149   8.0063789e-07   1.3951529e-07
    0.079520315       1.0037802    0.0015626527               0               0               0               0    0.0001549036       5.7384901   8.0063403e-07   1.3951522e-07
    0.082976911       1.0037753    0.0015548133               0               0               0               0   0.00015330039       5.7384632   8.0062983e-07   1.3951514e-07
    0.086548926       1.0037698    0.0015473653               0               0               0               0   0.00015171573       5.7384339   8.0062527e-07   1.3951506e-07
    0.090240215       1.0037636    0.0015402859               0               0               0               0   0.00015015256       5.7384026   8.0062036e-07   1.3951497e-07
     0.09405476        1.003758    0.0015334108               0               0               0               0   0.00014860389       5.7383756   8.0061603e-07   1.3951487e-07
