/*--------------------------------*- C++ -*----------------------------------*\
  =========                 |
  \\      /  F ield         | OpenFOAM: The Open Source CFD Toolbox
   \\    /   O peration     | Website:  https://openfoam.org
    \\  /    A nd           | Version:  12
     \\/     M anipulation  |
\*---------------------------------------------------------------------------*/
FoamFile
{
    format      ascii;
    class       volVectorField;
    location    "800";
    object      U;
}
// * * * * * * * * * * * * * * * * * * * * * * * * * * * * * * * * * * * * * //

dimensions      [0 1 -1 0 0 0 0];

internalField   nonuniform List<vector> 
3000
(
(1.15245022825 -0.00996572668947 -1.25169706202e-10)
(1.1531843931 -0.0254593816204 -1.71531766928e-10)
(1.15521493869 -0.0400104132726 -1.51030391417e-10)
(1.15799850263 -0.0540946049174 -1.26723958454e-10)
(1.16102965217 -0.0671659932754 -1.0713890066e-10)
(1.16374798762 -0.0791823805375 -9.22470456584e-11)
(1.1655079644 -0.0901196009181 -8.09767426912e-11)
(1.16556702701 -0.0999052700138 -7.22274862724e-11)
(1.16310911788 -0.10843489529 -6.50635049905e-11)
(1.15729346337 -0.115593397327 -5.92871315857e-11)
(1.14731465183 -0.121273039665 -5.40961568839e-11)
(1.13246101277 -0.125388308611 -4.9505309407e-11)
(1.11216139123 -0.127886760908 -4.52534586619e-11)
(1.08601471329 -0.128755068518 -4.12045202208e-11)
(1.05380110814 -0.128020357301 -3.76853537694e-11)
(1.01547676629 -0.125747601575 -3.4105548574e-11)
(0.971156692849 -0.122034181234 -3.07471539214e-11)
(0.921090107872 -0.117002783038 -2.7516211227e-11)
(0.86563282051 -0.110793709833 -2.41747642351e-11)
(0.805219919109 -0.103557434519 -2.10839723198e-11)
(0.74034096986 -0.0954479726285 -1.85460755063e-11)
(0.671518868513 -0.0866173895768 -1.60395389878e-11)
(0.599292677441 -0.0772115154904 -1.34540508029e-11)
(0.524204237 -0.0673667917988 -1.12429648125e-11)
(0.446788042933 -0.057208438774 -9.20529919013e-12)
(0.367563781669 -0.0468507278639 -7.21159583285e-12)
(0.28703092407 -0.0363978212632 -5.34585872246e-12)
(0.205664734875 -0.025932841631 -3.6439988411e-12)
(0.123912980745 -0.0154879035796 -2.07128966011e-12)
(0.0421933805568 -0.00507603815879 -6.82399196995e-13)
(1.43177242725 -0.00537614417418 -1.23673639258e-10)
(1.43345702737 -0.0129893777946 -2.20179515598e-10)
(1.436613237 -0.018840678607 -2.28299921104e-10)
(1.44000298986 -0.0247405357691 -2.11502469015e-10)
(1.44220239704 -0.0302873636668 -1.89665897615e-10)
(1.44162317259 -0.0352246141734 -1.68750003114e-10)
(1.43660007046 -0.0393589259713 -1.50370476562e-10)
(1.42552380945 -0.0425383375022 -1.34552259804e-10)
(1.40699647029 -0.0446607480375 -1.20787731143e-10)
(1.37997485154 -0.0456837094955 -1.08817676286e-10)
(1.34387229028 -0.0456265504709 -9.8007577791e-11)
(1.2986027087 -0.0445653247463 -8.82709667565e-11)
(1.24456512043 -0.0426222396803 -7.93047975163e-11)
(1.18257830389 -0.0399517625755 -7.10577337578e-11)
(1.11378194841 -0.0367257597294 -6.35166788549e-11)
(1.03952231691 -0.0331196724761 -5.64638725793e-11)
(0.961238538846 -0.0293010884158 -4.99528202356e-11)
(0.880361627901 -0.0254213672886 -4.39269396976e-11)
(0.798233644266 -0.0216103901441 -3.83180795615e-11)
(0.716050098126 -0.017974090798 -3.31973769585e-11)
(0.634825273663 -0.0145942076125 -2.85720920517e-11)
(0.555377825222 -0.011529630214 -2.43087551664e-11)
(0.478332701747 -0.00881876217656 -2.03785858199e-11)
(0.404135002895 -0.00648241377441 -1.68161668903e-11)
(0.333071529358 -0.00452679782454 -1.35571296004e-11)
(0.265296339517 -0.00294626925556 -1.05715249484e-11)
(0.200857370075 -0.00172607906055 -7.84248592278e-12)
(0.139721933888 -0.000846912497175 -5.35026813146e-12)
(0.0817995352412 -0.000290979619391 -3.07119002096e-12)
(0.0269611717852 -2.43553782644e-05 -9.87207981898e-13)
(1.55140256877 -0.0045190181778 -1.16128659917e-10)
(1.55105663338 -0.0119696980447 -2.25340998406e-10)
(1.54926982992 -0.0188790972512 -2.5460925517e-10)
(1.54435396958 -0.0248838665888 -2.50133317975e-10)
(1.53429242858 -0.0295706849511 -2.32358956325e-10)
(1.51708290802 -0.0329008040297 -2.10591409648e-10)
(1.49102275519 -0.0349014741109 -1.8887919519e-10)
(1.45494389861 -0.0356418802496 -1.68688784247e-10)
(1.40836587607 -0.0352424320797 -1.50355049228e-10)
(1.35154406136 -0.0338712849874 -1.33987489402e-10)
(1.28541268586 -0.0317299081406 -1.19199462158e-10)
(1.21144418348 -0.0290341408477 -1.05959263554e-10)
(1.13145971468 -0.0259952981121 -9.39831184065e-11)
(1.04742841826 -0.0228045351177 -8.32015114199e-11)
(0.961286911943 -0.0196222695558 -7.34954753386e-11)
(0.874799585454 -0.0165730515939 -6.46924488883e-11)
(0.789468216361 -0.0137452032355 -5.6742403261e-11)
(0.706489304267 -0.0111939671769 -4.95489139972e-11)
(0.626750787745 -0.00894676271493 -4.30201512286e-11)
(0.550856702943 -0.00700930427177 -3.71283475918e-11)
(0.47916820892 -0.00537164643384 -3.18156620232e-11)
(0.411851190125 -0.00401355954331 -2.69877317082e-11)
(0.348923302176 -0.00290893817889 -2.2596321456e-11)
(0.290296042325 -0.00202916359992 -1.86137034109e-11)
(0.23580971227 -0.00134546934214 -1.4988105917e-11)
(0.185260798083 -0.000830447571846 -1.16820545133e-11)
(0.138422324266 -0.000459047702405 -8.66580717275e-12)
(0.0950582654439 -0.000209634210699 -5.91180834331e-12)
(0.0549332709477 -6.44443617082e-05 -3.39411990959e-12)
(0.017818868821 -1.77571336755e-06 -1.09062440713e-12)
(1.67590468967 -0.00280541960105 -9.20902570734e-11)
(1.67253281981 -0.00678341669684 -1.91193745084e-10)
(1.66442873051 -0.0096851300097 -2.29894398842e-10)
(1.65008776791 -0.0120666850042 -2.37104861847e-10)
(1.62768952478 -0.0137120895767 -2.28060219536e-10)
(1.59575690539 -0.0145696490679 -2.11560560624e-10)
(1.55347620733 -0.0146752521981 -1.92426637137e-10)
(1.50083666428 -0.014128689059 -1.7310020402e-10)
(1.4386057898 -0.0130733935603 -1.54679685045e-10)
(1.36817412021 -0.0116730542749 -1.37709197025e-10)
(1.29132419585 -0.0100887783105 -1.22227789977e-10)
(1.20998425883 -0.00846129779354 -1.08275311797e-10)
(1.12601621217 -0.0069003178411 -9.57188113017e-11)
(1.04106668535 -0.00548096511895 -8.44630947485e-11)
(0.956488190558 -0.00424585841458 -7.43747420543e-11)
(0.873320796905 -0.00321069920907 -6.53173992138e-11)
(0.792316182672 -0.00237134543709 -5.71831125522e-11)
(0.713984650252 -0.00171080736068 -4.98692985281e-11)
(0.638649160434 -0.0012052110645 -4.32787459186e-11)
(0.566495830758 -0.000828319441901 -3.73367367526e-11)
(0.497615534094 -0.00055459206228 -3.19696947488e-11)
(0.43203513178 -0.000360991400106 -2.71088320248e-11)
(0.369739232103 -0.000227834500836 -2.26993427729e-11)
(0.310684425399 -0.000138991841149 -1.8694470856e-11)
(0.254808137594 -8.16893034015e-05 -1.50511339319e-11)
(0.202033967143 -4.60982142622e-05 -1.17315831838e-11)
(0.152274919608 -2.48208087329e-05 -8.70334811165e-12)
(0.105435504138 -1.23805668881e-05 -5.93773939023e-12)
(0.0614132874069 -5.02140841615e-06 -3.40931623842e-12)
(0.0201002234098 -1.33494030502e-06 -1.09557853337e-12)
(1.74792776265 -0.00234417101917 -7.85364092936e-11)
(1.74084249515 -0.00598075187269 -1.66398244722e-10)
(1.72511101367 -0.00894898654944 -2.05975440816e-10)
(1.70013643161 -0.011241952127 -2.181795489e-10)
(1.66495726441 -0.0126838488663 -2.14521767456e-10)
(1.61910610937 -0.0133268646808 -2.02349977087e-10)
(1.56285000022 -0.0132964594221 -1.86272766024e-10)
(1.49717181195 -0.01274685551 -1.6893469821e-10)
(1.42359454894 -0.0118375730368 -1.51783129916e-10)
(1.34393867835 -0.0107147462908 -1.35590004408e-10)
(1.26008742477 -0.00949855143855 -1.20608714923e-10)
(1.17380716757 -0.00827815665625 -1.06984914424e-10)
(1.08663946495 -0.00711292049107 -9.46693063085e-11)
(0.999857772217 -0.00603740418677 -8.35912029883e-11)
(0.91447002265 -0.00506782324318 -7.36457665663e-11)
(0.831246599558 -0.00420822139489 -6.47071235352e-11)
(0.750757653225 -0.00345544809538 -5.6671533268e-11)
(0.673409965589 -0.00280267767865 -4.94375084836e-11)
(0.599478930667 -0.00224161685344 -4.2911562507e-11)
(0.529134679974 -0.00176372360771 -3.70246919193e-11)
(0.462463057741 -0.00136077832677 -3.17077395814e-11)
(0.399482623391 -0.00102508511097 -2.68902108508e-11)
(0.340158726693 -0.000749495260541 -2.25168433198e-11)
(0.284415379228 -0.000527366299774 -1.85455247155e-11)
(0.232145351917 -0.000352508903812 -1.49319341366e-11)
(0.183218735973 -0.000219140766565 -1.16387349687e-11)
(0.137490109941 -0.000121894893801 -8.63435718374e-12)
(0.0948044260955 -5.59832191147e-05 -5.89062749959e-12)
(0.0550017343958 -1.7314163257e-05 -3.38221082926e-12)
(0.0179208779324 -5.42331951387e-07 -1.08687506273e-12)
(1.81040728216 -0.00161269791013 -6.35327268307e-11)
(1.79984044446 -0.00394800136513 -1.39077084978e-10)
(1.77739623382 -0.00559988390922 -1.76921388964e-10)
(1.74370712178 -0.0067686622071 -1.91751990268e-10)
(1.6988675331 -0.00737970241053 -1.92184696996e-10)
(1.64339386919 -0.00749713671026 -1.84138236903e-10)
(1.57836548997 -0.00723070270574 -1.71637565677e-10)
(1.50531639211 -0.00669954554819 -1.57200257026e-10)
(1.42602987218 -0.00601291307117 -1.42332598056e-10)
(1.34233134091 -0.00525953644005 -1.27902768771e-10)
(1.25593063196 -0.00450407448037 -1.14308316708e-10)
(1.16832858586 -0.00378877714147 -1.01767780416e-10)
(1.08077949429 -0.00313784180279 -9.03044044594e-11)
(0.99429178891 -0.00256239478191 -7.9920397269e-11)
(0.909649837904 -0.00206489354873 -7.05319965045e-11)
(0.82744443485 -0.00164249355684 -6.2051680356e-11)
(0.748104658471 -0.00128938826189 -5.44043250052e-11)
(0.671927523592 -0.000998333449704 -4.74970452e-11)
(0.599104037864 -0.000761600091925 -4.12583270094e-11)
(0.529741360263 -0.000571555080404 -3.56175278756e-11)
(0.463881225177 -0.000421006756256 -3.05101703194e-11)
(0.401514984604 -0.000303400359097 -2.58796172709e-11)
(0.342595697368 -0.000212914400207 -2.16751004739e-11)
(0.287047718657 -0.000144489500617 -1.78537842176e-11)
(0.23477423399 -9.38101869851e-05 -1.43754265808e-11)
(0.185663146558 -5.72524367571e-05 -1.12053237242e-11)
(0.13959167359 -3.18102420295e-05 -8.31352207966e-12)
(0.0964299453652 -1.50417096419e-05 -5.67179432694e-12)
(0.0560438393669 -5.09176317905e-06 -3.25661653038e-12)
(0.018297224718 -5.66355520691e-07 -1.04650768068e-12)
(1.85301617458 -0.00127913057785 -5.28240121728e-11)
(1.83937953948 -0.00319874700692 -1.17495950689e-10)
(1.8111162489 -0.00463366782259 -1.52058411441e-10)
(1.77013604944 -0.00565016745125 -1.67534695745e-10)
(1.71753518951 -0.00619676276497 -1.70320545501e-10)
(1.65461180259 -0.00634363279485 -1.6522670922e-10)
(1.58296538753 -0.00618892405996 -1.5564631098e-10)
(1.50439036154 -0.00582802944077 -1.43821645898e-10)
(1.42071935689 -0.00534199487374 -1.3117464406e-10)
(1.33368895922 -0.00479360892515 -1.18579288061e-10)
(1.24485324053 -0.00422787867051 -1.06486333885e-10)
(1.15554337384 -0.00367487780831 -9.5167304585e-11)
(1.0668607251 -0.00315328724908 -8.47065806052e-11)
(0.979689917263 -0.00267364487253 -7.51360038903e-11)
(0.894721620443 -0.00224093308585 -6.64263931456e-11)
(0.812478620183 -0.00185648245209 -5.85209435237e-11)
(0.733341621211 -0.00151930919408 -5.13588349994e-11)
(0.657573072439 -0.00122702919874 -4.48733242042e-11)
(0.585338333476 -0.000976470613392 -3.90001024099e-11)
(0.516724046916 -0.000764077177698 -3.36814935912e-11)
(0.451753848024 -0.000586168488978 -2.88626443832e-11)
(0.390401658337 -0.000439103975394 -2.44869232267e-11)
(0.332602844116 -0.000319383342754 -2.05109811386e-11)
(0.278263514128 -0.000223705652192 -1.68961496769e-11)
(0.227268208195 -0.000149000011128 -1.36054381793e-11)
(0.179486201257 -9.243582285e-05 -1.06056318344e-11)
(0.134776622471 -5.14349573845e-05 -7.86835352914e-12)
(0.0929925661792 -2.37350664582e-05 -5.36817651167e-12)
(0.0539843521932 -7.44764371055e-06 -3.08229406677e-12)
(0.0176020750967 -3.29429777462e-07 -9.90492653462e-13)
(1.88686414222 -0.000923019922199 -4.31210674128e-11)
(1.87081410694 -0.00226957990752 -9.80230445376e-11)
(1.8380875469 -0.00321489156107 -1.2921537525e-10)
(1.79168400114 -0.00385898780841 -1.44457662656e-10)
(1.73349552412 -0.00417718845313 -1.48755526887e-10)
(1.66537413974 -0.00422483303239 -1.45914810648e-10)
(1.58923818872 -0.00407361775201 -1.3876022155e-10)
(1.50700887686 -0.00379058101357 -1.29243123255e-10)
(1.42051459768 -0.00343110574 -1.1865925459e-10)
(1.33141446965 -0.00303736729121 -1.07853097567e-10)
(1.2411544531 -0.00263935147474 -9.72857023638e-11)
(1.15095244092 -0.00225700383195 -8.72517187534e-11)
(1.06180367446 -0.00190257014392 -7.78774565665e-11)
(0.974498278033 -0.00158267185466 -6.92247466208e-11)
(0.889644801755 -0.0012999799569 -6.12962945529e-11)
(0.807695723848 -0.00105449920964 -5.40692303545e-11)
(0.728972432996 -0.00084452369793 -4.74951702733e-11)
(0.653688291586 -0.000667331246769 -4.15260868692e-11)
(0.581969098543 -0.000519676359133 -3.61086092142e-11)
(0.513870731576 -0.000398130466669 -3.11955242289e-11)
(0.449394032309 -0.000299308127569 -2.67376668099e-11)
(0.388497158161 -0.000220009319599 -2.26892809653e-11)
(0.331105702304 -0.000157301191094 -1.90090294936e-11)
(0.277120905059 -0.000108557139657 -1.56613852592e-11)
(0.226426268462 -7.14660668755e-05 -1.26120997282e-11)
(0.17889285572 -4.40204894433e-05 -9.83185428764e-12)
(0.134383519211 -2.44954197396e-05 -7.29385086423e-12)
(0.0927562608601 -1.14461425172e-05 -4.9765278006e-12)
(0.0538668922629 -3.7324709613e-06 -2.85747229557e-12)
(0.0175711290281 -2.92074206114e-07 -9.18348873232e-13)
(1.91127593686 -0.000711826769733 -3.56339679874e-11)
(1.89335118499 -0.0017676978284 -8.21797347313e-11)
(1.85717118115 -0.00253337108039 -1.09872693638e-10)
(1.80660296552 -0.00306347965142 -1.24327883377e-10)
(1.74414679957 -0.00333801462092 -1.2938080804e-10)
(1.67205409876 -0.00340051077735 -1.28073758967e-10)
(1.59246015941 -0.00330594389424 -1.22750010248e-10)
(1.50736750205 -0.00310503350707 -1.15088042459e-10)
(1.41859925171 -0.00283969149603 -1.06242996389e-10)
(1.32776220672 -0.00254219551607 -9.70053109521e-11)
(1.23622984056 -0.00223594594078 -8.78209422756e-11)
(1.14514354709 -0.00193693582091 -7.89895253579e-11)
(1.05542679586 -0.00165537407281 -7.06645612327e-11)
(0.967806800295 -0.0013971696887 -6.29252695876e-11)
(0.88283945322 -0.00116516677117 -5.579765002e-11)
(0.8009346172 -0.00096011381526 -4.92684352039e-11)
(0.722380000445 -0.000781392085965 -4.33124278797e-11)
(0.647362696316 -0.000627543350189 -3.7891498443e-11)
(0.575988036034 -0.000496639747536 -3.29627420784e-11)
(0.508295751585 -0.000386534791252 -2.84862652817e-11)
(0.444273633407 -0.000295028049068 -2.44211046942e-11)
(0.383868950447 -0.000219969087096 -2.07261490783e-11)
(0.326997922166 -0.00015931989508 -1.73656222514e-11)
(0.273553520907 -0.000111189510232 -1.43078945241e-11)
(0.223411857329 -7.3849550956e-05 -1.15226112004e-11)
(0.176437371568 -4.5736185711e-05 -8.98251574378e-12)
(0.132487023257 -2.54501248498e-05 -6.66439546866e-12)
(0.0914136458482 -1.17802922895e-05 -4.54688346412e-12)
(0.0530686068294 -3.73202915748e-06 -2.6108034065e-12)
(0.0173038939903 -1.97106551001e-07 -8.39035103212e-13)
(1.93016028804 -0.00052871275301 -2.93178001532e-11)
(1.91083004249 -0.00130394591806 -6.86865445394e-11)
(1.87207502396 -0.00185306589008 -9.30443758695e-11)
(1.81841830884 -0.00222907907951 -1.06501056253e-10)
(1.75281197151 -0.00241865440315 -1.11877281781e-10)
(1.67779942768 -0.00245387553567 -1.1162929353e-10)
(1.59567387697 -0.00237513351221 -1.07705735099e-10)
(1.508498362 -0.00221979226693 -1.01547294017e-10)
(1.41809422544 -0.00201881170556 -9.41772580633e-11)
(1.32603140357 -0.00179606363431 -8.63001775779e-11)
(1.23363004716 -0.00156882319839 -7.83571555101e-11)
(1.14197338585 -0.00134881932735 -7.06411245464e-11)
(1.05192853202 -0.00114342985463 -6.33101352957e-11)
(0.964171536696 -0.000956792169181 -5.64563068427e-11)
(0.879213708445 -0.000790735670872 -5.01176957141e-11)
(0.79742714481 -0.000645517320226 -4.42876648568e-11)
(0.719068262203 -0.000520376822037 -3.89580228312e-11)
(0.644298731751 -0.000413941287586 -3.40994522084e-11)
(0.57320364573 -0.000324511208352 -2.96735783025e-11)
(0.505806992349 -0.000250256342377 -2.5650932183e-11)
(0.442084654801 -0.000189345091035 -2.19944126903e-11)
(0.38197521277 -0.000140025868912 -1.86686092745e-11)
(0.32538884101 -0.000100674577736 -1.56426895996e-11)
(0.272214588484 -6.98186492527e-05 -1.28879997191e-11)
(0.222326296372 -4.61448386602e-05 -1.03794470167e-11)
(0.175587382381 -2.84955031976e-05 -8.09151011621e-12)
(0.131854686868 -1.58608759767e-05 -6.00340014171e-12)
(0.0909815455994 -7.38463000218e-06 -4.09591017729e-12)
(0.052820227097 -2.38065574895e-06 -2.35181727586e-12)
(0.0172238485785 -1.61991793498e-07 -7.5575331412e-13)
(1.94422567195 -0.000405976532714 -2.42975442437e-11)
(1.92382929523 -0.00100589989462 -5.76244755883e-11)
(1.88311640862 -0.00143808070899 -7.89480888989e-11)
(1.82710557021 -0.00173709627999 -9.11659716112e-11)
(1.75908960622 -0.00189168717247 -9.6505091626e-11)
(1.6818328367 -0.00192621802036 -9.6920872317e-11)
(1.59774937626 -0.00187155551606 -9.40268005996e-11)
(1.50895015405 -0.00175634197063 -8.90532069057e-11)
(1.41725696916 -0.00160441129665 -8.2885796026e-11)
(1.324213023 -0.00143423279948 -7.61916966424e-11)
(1.23109882797 -0.00125925114262 -6.93463430769e-11)
(1.13895428985 -0.00108866774893 -6.2642864596e-11)
(1.04860491866 -0.000928345845995 -5.62209467687e-11)
(0.960689651006 -0.000781657920943 -5.0192582284e-11)
(0.875688230071 -0.000650199177029 -4.45946378409e-11)
(0.793946777545 -0.000534350188868 -3.9435409562e-11)
(0.715700815226 -0.000433700487526 -3.47070801389e-11)
(0.641095451589 -0.000347355899096 -3.0388581882e-11)
(0.570202747905 -0.000274154469012 -2.64523912705e-11)
(0.503036449516 -0.00021281352025 -2.2870358752e-11)
(0.439564350659 -0.000162026509204 -1.96126151476e-11)
(0.379718587375 -0.000120524270557 -1.66488053962e-11)
(0.323404147517 -8.71116276868e-05 -1.39515557539e-11)
(0.270505864142 -6.06872880699e-05 -1.14960859781e-11)
(0.220894129051 -4.0252185875e-05 -9.25883761337e-12)
(0.174429532653 -2.49095940493e-05 -7.21799812823e-12)
(0.130966607349 -1.38633846913e-05 -5.35537766089e-12)
(0.0903568248782 -6.42875598888e-06 -3.65384023137e-12)
(0.0524509752127 -2.04756060344e-06 -2.09803631374e-12)
(0.0171010342578 -1.17619042182e-07 -6.74309131951e-13)
(1.95505542804 -0.000307250182932 -2.01410049587e-11)
(1.93385449382 -0.000759083477075 -4.83340680197e-11)
(1.89166436149 -0.00108155459665 -6.68612655609e-11)
(1.83387676666 -0.00130380592779 -7.78719103603e-11)
(1.76404184823 -0.00141750412904 -8.29911729828e-11)
(1.68509178264 -0.00144095161018 -8.38137086497e-11)
(1.59953338059 -0.0013974286431 -8.16852119085e-11)
(1.50951483781 -0.00130860185901 -7.7656151912e-11)
(1.41685887104 -0.00119251983923 -7.25094902107e-11)
(1.32308857035 -0.00106316123827 -6.68069329748e-11)
(1.22945421444 -0.000930681978586 -6.09226185979e-11)
(1.13696238915 -0.000802007456053 -5.51115642342e-11)
(1.04640630105 -0.000681521787362 -4.95238772748e-11)
(0.958395693519 -0.000571713562248 -4.4260282402e-11)
(0.873385059502 -0.000473719453194 -3.93584736174e-11)
(0.791699322284 -0.000387753181611 -3.48268229379e-11)
(0.713556593599 -0.000313429077418 -3.06637200171e-11)
(0.639087936064 -0.00024999765288 -2.68585484166e-11)
(0.568354261225 -0.000196511887664 -2.3384959041e-11)
(0.501360606834 -0.00015194105206 -2.02226182957e-11)
(0.438068086688 -0.000115245942836 -1.73424926668e-11)
(0.378403815743 -8.54264028054e-05 -1.472225793e-11)
(0.322269100175 -6.15493801943e-05 -1.23371555164e-11)
(0.269546156417 -4.27635987404e-05 -1.01654312085e-11)
(0.220103592704 -2.83049370847e-05 -8.18698726789e-12)
(0.173800855732 -1.74952011639e-05 -6.38222588488e-12)
(0.130491815824 -9.73884960223e-06 -4.73568753736e-12)
(0.0900276370683 -4.528084942e-06 -3.23112531157e-12)
(0.0522590558824 -1.45344659689e-06 -1.85526150266e-12)
(0.0170381711356 -9.32568264323e-08 -5.96183506276e-13)
(1.96327005085 -0.000236244714493 -1.67578941377e-11)
(1.94145485484 -0.000584845321665 -4.06249240184e-11)
(1.89813489489 -0.000835507496019 -5.66542168028e-11)
(1.83898594467 -0.00100905812959 -6.64666290912e-11)
(1.76775462595 -0.0010988027562 -7.1234912508e-11)
(1.68750182587 -0.00111874724196 -7.22763152453e-11)
(1.6008057815 -0.0010867668934 -7.0710232188e-11)
(1.50984364426 -0.00101951621763 -6.74319183658e-11)
(1.41643914098 -0.000930887040656 -6.31209239878e-11)
(1.3221001915 -0.000831657704715 -5.82731202053e-11)
(1.2280541449 -0.000729678218513 -5.32247315592e-11)
(1.13528235108 -0.000630321111798 -4.82079586555e-11)
(1.04455366349 -0.000537008005037 -4.3363555914e-11)
(0.9564559818 -0.000451703806913 -3.87787429121e-11)
(0.871425096419 -0.000375333149762 -3.44969820979e-11)
(0.78977041716 -0.000308109097424 -3.05366572364e-11)
(0.711697470748 -0.000249780954971 -2.68951403955e-11)
(0.637327268179 -0.000199814448419 -2.35634272768e-11)
(0.566712776357 -0.0001575186612 -2.05186683081e-11)
(0.499852794054 -0.000122132759838 -1.77462088603e-11)
(0.436703552065 -9.28832887341e-05 -1.52213399082e-11)
(0.377188348675 -6.90204743263e-05 -1.29231193681e-11)
(0.32120550814 -4.98399137873e-05 -1.08300197132e-11)
(0.268634919084 -3.46942816776e-05 -8.92344329846e-12)
(0.219343377282 -2.29981144446e-05 -7.18707530169e-12)
(0.173188926433 -1.42276565507e-05 -5.60300875792e-12)
(0.130024362385 -7.91943151023e-06 -4.15716353654e-12)
(0.0897000407825 -3.67581298696e-06 -2.8363129908e-12)
(0.0520661066067 -1.1738040621e-06 -1.62857999541e-12)
(0.0169742451195 -7.00195202734e-08 -5.23341757818e-13)
(1.96959592383 -0.000180608032912 -1.39577579328e-11)
(1.94731176531 -0.000446547465225 -3.41520097901e-11)
(1.90312925298 -0.000636984193712 -4.8048176505e-11)
(1.84294092034 -0.000768603079611 -5.66573553761e-11)
(1.7706435449 -0.000836345310533 -6.10250500922e-11)
(1.68939656862 -0.000850894536217 -6.21634952743e-11)
(1.60183302723 -0.000825899152507 -6.10123897831e-11)
(1.51015235678 -0.000774085207502 -5.83345558651e-11)
(1.41617914379 -0.000706069494818 -5.47187233314e-11)
(1.32140974047 -0.00063008680726 -5.0599165313e-11)
(1.22705393645 -0.000552130171461 -4.62752348624e-11)
(1.13407368935 -0.000476295600033 -4.19552421857e-11)
(1.04321905512 -0.000405185117033 -3.77681171147e-11)
(0.955060971014 -0.000340285085728 -3.37945306683e-11)
(0.870020592457 -0.000282285093453 -3.00739006199e-11)
(0.78839508122 -0.000231329819881 -2.66313015184e-11)
(0.71037993732 -0.000187209142486 -2.34604314977e-11)
(0.636088102616 -0.000149496607608 -2.05564156406e-11)
(0.565566142618 -0.000117647205497 -1.79034346589e-11)
(0.498807843776 -9.10643305408e-05 -1.54858288872e-11)
(0.435765562885 -6.91440931947e-05 -1.32843491863e-11)
(0.376359645268 -5.13033876767e-05 -1.12782447441e-11)
(0.320486199351 -3.69965747842e-05 -9.45172171187e-12)
(0.268023481891 -2.57243421656e-05 -7.78820089837e-12)
(0.218837114818 -1.70371310564e-05 -6.27259500258e-12)
(0.172784323618 -1.05346896826e-05 -4.89022227978e-12)
(0.129717359169 -5.86448694824e-06 -3.6283652597e-12)
(0.0894862398199 -2.72520729668e-06 -2.4755479095e-12)
(0.0519409292533 -8.73215291303e-07 -1.4214379063e-12)
(0.0169330471233 -5.46444817227e-08 -4.56777476457e-13)
(1.97443803263 -0.000139078671537 -1.1657016589e-11)
(1.95179373134 -0.000344163851554 -2.87627308551e-11)
(1.90694839794 -0.000491484017015 -4.07183542882e-11)
(1.84596089812 -0.000593494549673 -4.8255120964e-11)
(1.77284331507 -0.000646235203148 -5.2184336108e-11)
(1.69083082473 -0.000657920600295 -5.33234014715e-11)
(1.60259861182 -0.000639054033883 -5.24946550858e-11)
(1.51036329154 -0.000599430897761 -5.02904707505e-11)
(1.41595017012 -0.000547226877163 -4.72559911524e-11)
(1.32084677204 -0.000488788250176 -4.37606512725e-11)
(1.22624946146 -0.000428738858623 -4.00629118697e-11)
(1.13310537736 -0.000370244245725 -3.63552391282e-11)
(1.0421502384 -0.000315320857981 -3.27489416158e-11)
(0.953942084547 -0.000265126547125 -2.9317823172e-11)
(0.868890990995 -0.000220205566868 -2.61017004522e-11)
(0.787284893539 -0.00018068213041 -2.31183445118e-11)
(0.709311778558 -0.000146406488556 -2.03720386902e-11)
(0.635078566338 -0.000117061281949 -1.78522125969e-11)
(0.564627053145 -9.22365829288e-05 -1.55494418088e-11)
(0.497947281013 -7.14812536177e-05 -1.34496568099e-11)
(0.434988686653 -5.43369322795e-05 -1.15375376287e-11)
(0.375669350907 -4.03595964875e-05 -9.79637081572e-12)
(0.319883635646 -2.91324492735e-05 -8.2107534975e-12)
(0.267508458963 -2.02728611071e-05 -6.76648274093e-12)
(0.218408425239 -1.34351828226e-05 -5.45018708355e-12)
(0.172439995576 -8.31061030915e-06 -4.24898036692e-12)
(0.129454856563 -4.62624598369e-06 -3.15257616937e-12)
(0.0893026208069 -2.14821635553e-06 -2.15092733034e-12)
(0.0518329721095 -6.8681502137e-07 -1.23504354764e-12)
(0.0168973502179 -4.16537411798e-08 -3.96879614575e-13)
(1.97816968179 -0.00010685871898 -9.74077361705e-12)
(1.95524878508 -0.000264286196799 -2.42201803712e-11)
(1.90989444944 -0.00037716429043 -3.44866731453e-11)
(1.84829330815 -0.00045526185867 -4.10676558649e-11)
(1.7745460221 -0.000495554959026 -4.45613543464e-11)
(1.69194595768 -0.000504351225235 -4.5674848276e-11)
(1.60320069501 -0.000489716270103 -4.50539782431e-11)
(1.51054006385 -0.000459173483492 -4.32512199368e-11)
(1.41578993827 -0.00041900228503 -4.07007310971e-11)
(1.32043106934 -0.000374076284575 -3.77315314789e-11)
(1.22564950374 -0.000327945257528 -3.45762926123e-11)
(1.13238097553 -0.000283038080889 -3.13972015035e-11)
(1.04135014728 -0.000240900343909 -2.82978230939e-11)
(0.953105086791 -0.000202417600588 -2.53438766478e-11)
(0.868047273257 -0.000168003674534 -2.25681022326e-11)
(0.786457457108 -0.000137749472689 -1.99960035329e-11)
(0.708517749833 -0.000111535357233 -1.76218754344e-11)
(0.634330348067 -8.91130252839e-05 -1.54443834312e-11)
(0.563933300869 -7.0163343247e-05 -1.34542999994e-11)
(0.497313712012 -5.43359709421e-05 -1.16390952578e-11)
(0.434418739135 -4.12756039443e-05 -9.98516659643e-12)
(0.375164714644 -3.06386222128e-05 -8.4782060474e-12)
(0.319444675065 -2.21030186496e-05 -7.10556656091e-12)
(0.267134547851 -1.53737119822e-05 -5.85577924591e-12)
(0.218098209705 -1.01846510871e-05 -4.71584806819e-12)
(0.172191599342 -6.29862894968e-06 -3.67663647535e-12)
(0.129266040256 -3.50643727516e-06 -2.72796840907e-12)
(0.089170904808 -1.6290689025e-06 -1.8612438758e-12)
(0.0517557306908 -5.21608686484e-07 -1.06871480768e-12)
(0.0168718831594 -3.22949156781e-08 -3.43430863207e-13)
(1.98103873852 -8.23776297505e-05 -8.14638396193e-12)
(1.95790485268 -0.000203813402931 -2.03973038525e-11)
(1.91215847603 -0.000291000043599 -2.92021680839e-11)
(1.850084611 -0.000351369927319 -3.49211125939e-11)
(1.77585211882 -0.000382576406548 -3.8017351664e-11)
(1.69279917038 -0.000389479508662 -3.90625711284e-11)
(1.60365829317 -0.000378295287272 -3.86067899038e-11)
(1.51066949995 -0.000354822030154 -3.71181467734e-11)
(1.41565911339 -0.000323900100772 -3.49717404268e-11)
(1.3201026829 -0.000289287416197 -3.24515231954e-11)
(1.22517832763 -0.000253722448144 -2.97594472379e-11)
(1.13181302135 -0.000219080334287 -2.70381283628e-11)
(1.04072294144 -0.00018655574035 -2.43792623376e-11)
(0.952448512855 -0.00015683472415 -2.18412903748e-11)
(0.867384638647 -0.000130239727126 -1.94537904867e-11)
(0.785806584247 -0.000106844169808 -1.72398845956e-11)
(0.707891986332 -8.65589815613e-05 -1.51952787667e-11)
(0.633739449836 -6.91956390713e-05 -1.33191116203e-11)
(0.563384176335 -5.4510680329e-05 -1.1604102156e-11)
(0.496811034014 -4.2236195852e-05 -1.00392445766e-11)
(0.433965439571 -3.21000238154e-05 -8.61321333203e-12)
(0.374762379726 -2.38385726886e-05 -7.31350295441e-12)
(0.319093858747 -1.72044871893e-05 -6.12969427546e-12)
(0.266835019186 -1.1970776565e-05 -5.05063669831e-12)
(0.217849147521 -7.93248330807e-06 -4.06829573985e-12)
(0.171991745267 -4.9065946757e-06 -3.17170166256e-12)
(0.129113818928 -2.7314647001e-06 -2.35327874232e-12)
(0.0890645182754 -1.26862224284e-06 -1.60558178896e-12)
(0.0516932324817 -4.05813727621e-07 -9.2190912486e-13)
(0.0168512363025 -2.47896454265e-08 -2.9625364336e-13)
(1.9832514655 -6.34543185126e-05 -6.81562743803e-12)
(1.9599535508 -0.000156956864759 -1.7175164509e-11)
(1.91390526952 -0.000224034618617 -2.46723166848e-11)
(1.85146739242 -0.00027046405272 -2.96608129941e-11)
(1.77686130877 -0.000294442630425 -3.23813915339e-11)
(1.69345969723 -0.000299713229274 -3.33412132199e-11)
(1.6040142996 -0.00029106291725 -3.30012986391e-11)
(1.51077297268 -0.000272957225112 -3.17770864256e-11)
(1.41556238658 -0.000249123861769 -2.99728560642e-11)
(1.31985408592 -0.000222456686015 -2.78295076394e-11)
(1.22482008339 -0.000195064222642 -2.55456086148e-11)
(1.13138060108 -0.000168389924396 -2.32233331618e-11)
(1.04024527139 -0.0001433530346 -2.09493122082e-11)
(0.951948617256 -0.00012048097264 -1.87748982342e-11)
(0.866880456129 -0.000100021021888 -1.67321703522e-11)
(0.785311804483 -8.20286140034e-05 -1.48252743514e-11)
(0.707416826643 -6.64340074845e-05 -1.30701377543e-11)
(0.6332913365 -5.30908821411e-05 -1.14583933688e-11)
(0.56296832136 -4.18106697733e-05 -9.98364772629e-12)
(0.49643091188 -3.23860816657e-05 -8.63759643669e-12)
(0.433623174778 -2.46066974663e-05 -7.41070757599e-12)
(0.374459058084 -1.82688633092e-05 -6.29298080242e-12)
(0.318829775198 -1.31816045658e-05 -5.27483777769e-12)
(0.266609873748 -9.16980123394e-06 -4.34727900193e-12)
(0.217662199378 -6.07545955871e-06 -3.5011895492e-12)
(0.171841933371 -3.75762360133e-06 -2.73005607657e-12)
(0.128999856011 -2.09189895587e-06 -2.02560042104e-12)
(0.0889849638154 -9.71796878411e-07 -1.38201858148e-12)
(0.0516465491015 -3.11063409638e-07 -7.93542886382e-13)
(0.0168358331354 -1.91716163468e-08 -2.55003696193e-13)
(1.98495653268 -4.89550943046e-05 -5.70561978403e-12)
(1.96153213623 -0.000121111329453 -1.44614894476e-11)
(1.91525103469 -0.00017290473261 -2.08987590793e-11)
(1.85253242133 -0.000208766949355 -2.51710744151e-11)
(1.77763818817 -0.000227303352002 -2.75514362972e-11)
(1.69396762075 -0.000231400993075 -2.842601562e-11)