/*--------------------------------*- C++ -*----------------------------------*\
  =========                 |
  \\      /  F ield         | OpenFOAM: The Open Source CFD Toolbox
   \\    /   O peration     | Website:  https://openfoam.org
    \\  /    A nd           | Version:  12
     \\/     M anipulation  |
\*---------------------------------------------------------------------------*/
FoamFile
{
    format      ascii;
    class       volVectorField;
    location    "800";
    object      wallShearStress;
}
// * * * * * * * * * * * * * * * * * * * * * * * * * * * * * * * * * * * * * //

dimensions      [0 2 -2 0 0 0 0];

internalField   uniform (0 0 0);

boundaryField
{
    top
    {
        type            calculated;
        value           nonuniform List<vector> 
100
(
(-0.201066519424 0.0484002967009 3.26509255076e-12)
(-0.128375440367 0.000358147400446 4.72273686311e-12)
(-0.0848860580669 6.84773124952e-05 5.21747143317e-12)
(-0.0957543521925 7.64706503063e-06 5.24117158128e-12)
(-0.0853722919061 1.84770318752e-05 5.1995346988e-12)
(-0.0871651569575 6.26164751888e-06 5.00641995578e-12)
(-0.0838535704915 8.14767863634e-06 4.73844793952e-12)
(-0.0837061499627 4.3439486798e-06 4.39331711292e-12)
(-0.0824330834422 4.14862325412e-06 4.0138855482e-12)
(-0.0820517600645 2.72160537801e-06 3.61547126284e-12)
(-0.0814666916967 2.29597889464e-06 3.22584796003e-12)
(-0.0811672217315 1.65017303233e-06 2.85210040267e-12)
(-0.0808626881519 1.32172058146e-06 2.5036305462e-12)
(-0.080666427373 9.88613039122e-07 2.18519165618e-12)
(-0.0804963728907 7.7483343478e-07 1.89864445313e-12)
(-0.080375051816 5.89845716361e-07 1.64294934625e-12)
(-0.0802766934173 4.58207525987e-07 1.41725680978e-12)
(-0.0802033151415 3.51583206622e-07 1.21991993341e-12)
(-0.0801454672482 2.72159599425e-07 1.04649843027e-12)
(-0.0801014571914 2.09586711002e-07 8.96097419143e-13)
(-0.0800671682221 1.62024381933e-07 7.66578266129e-13)
(-0.0800408564033 1.24984100525e-07 6.53881622123e-13)
(-0.0800204574027 9.65756647365e-08 5.57073491213e-13)
(-0.0800047447977 7.45574369662e-08 4.75462958516e-13)
(-0.0799925881082 5.7602689286e-08 4.03729766688e-13)
(-0.0799832085454 4.44872809939e-08 3.42827220079e-13)
(-0.0799759577666 3.43697401092e-08 2.9093159277e-13)
(-0.0799703591894 2.65493808999e-08 2.46655546198e-13)
(-0.0799660327236 2.05115874923e-08 2.09038734727e-13)
(-0.0799626909737 1.58460331939e-08 1.76894712086e-13)
(-0.0799601088749 1.22425793237e-08 1.4957401168e-13)
(-0.0799581141566 9.45839862126e-09 1.26338932997e-13)
(-0.0799565729538 7.30762256445e-09 1.06625143949e-13)
(-0.079955382259 5.64589134779e-09 8.99784029022e-14)
(-0.0799544622926 4.3621098994e-09 7.58218223213e-14)
(-0.0799537515243 3.37024022381e-09 6.3732998132e-14)
(-0.0799532023655 2.6038960784e-09 5.36684439893e-14)
(-0.0799527780763 2.01184102016e-09 4.51343479906e-14)
(-0.0799524502592 1.55440237678e-09 3.79132866758e-14)
(-0.0799521969802 1.20096527169e-09 3.18318929477e-14)
(-0.0799520012897 9.27901196644e-10 2.67129951267e-14)
(-0.079951850094 7.16934647383e-10 2.2203206526e-14)
(-0.0799517332759 5.53900963008e-10 1.85069766668e-14)
(-0.0799516430188 4.27975289713e-10 1.54587981449e-14)
(-0.0799515732835 3.30663105373e-10 1.28397366015e-14)
(-0.0799515194041 2.55473657217e-10 1.05745139525e-14)
(-0.0799514777752 1.97389609889e-10 8.93100771762e-15)
(-0.0799514456113 1.5250812144e-10 7.66184082605e-15)
(-0.0799514207606 1.17825447615e-10 6.22954565894e-15)
(-0.0799514015602 9.10439027541e-11 5.02855000604e-15)
(-0.0799513867253 7.03473443972e-11 4.08886449508e-15)
(-0.0799513752635 5.43501106083e-11 3.25927102887e-15)
(-0.0799513664078 4.19889729932e-11 2.5955369972e-15)
(-0.0799513595655 3.24419391373e-11 2.05247350185e-15)
(-0.0799513542789 2.50593656228e-11 1.47035039574e-15)
(-0.0799513501944 1.93654456276e-11 1.07982295545e-15)
(-0.0799513470386 1.49626509455e-11 9.55493946538e-16)
(-0.0799513446003 1.15588085971e-11 5.71633857572e-16)
(-0.0799513427164 8.93856807314e-12 2.34107805408e-16)
(-0.0799513412608 6.8957860989e-12 -2.16732615702e-17)
(-0.0799513401361 5.3392009763e-12 -1.30169812373e-16)
(-0.0799513392672 4.12591913571e-12 -2.77809155406e-16)
(-0.079951338596 3.17592064594e-12 -3.81184650547e-16)
(-0.0799513380772 2.45859878507e-12 -4.71232961783e-16)
(-0.0799513376764 1.90135645845e-12 -4.83010327138e-16)
(-0.0799513373668 1.46867131887e-12 -5.40954173215e-16)
(-0.0799513371276 1.12677680821e-12 -6.08987813061e-16)
(-0.0799513369427 8.71668965261e-13 -6.44018417371e-16)
(-0.0799513368 6.69159454503e-13 -6.79065187303e-16)
(-0.0799513366896 5.23634337711e-13 -4.64204647499e-16)
(-0.0799513366042 4.10918387061e-13 -3.57674431061e-16)
(-0.0799513365384 3.16045017189e-13 -2.36640864154e-16)
(-0.0799513364875 2.42819665595e-13 -8.65904205815e-16)
(-0.0799513364482 1.84824684005e-13 -5.45307385452e-16)
(-0.0799513364178 1.44083417671e-13 -4.35321111346e-16)
(-0.0799513363944 1.08779071108e-13 -3.19285076412e-16)
(-0.0799513363762 8.84406410034e-14 -8.00045271761e-16)
(-0.0799513363621 7.31686860702e-14 -5.19495322813e-16)
(-0.0799513363515 5.19853645829e-14 -3.97237531964e-16)
(-0.0799513363431 3.84804967061e-14 -3.20164441953e-16)
(-0.0799513363365 2.97420292436e-14 -7.26283488963e-16)
(-0.0799513363315 2.27752382334e-14 -5.29883852814e-16)
(-0.0799513363277 1.75395360978e-14 -5.35704272298e-16)
(-0.0799513363247 1.59544492259e-14 -5.57219105731e-16)
(-0.0799513363224 1.23962530244e-14 -5.43308702294e-16)
(-0.0799513363207 7.32790230259e-15 -5.17139570221e-16)
(-0.0799513363191 5.82234952991e-15 -4.86694865097e-16)
(-0.079951336318 7.99038410641e-15 -4.5558792879e-16)
(-0.0799513363174 2.14896004964e-15 -4.37537310408e-16)
(-0.0799513363168 4.26535504242e-16 -4.0890921778e-16)
(-0.0799513363161 8.81749913773e-15 -3.80402078276e-16)
(-0.0799513363157 4.56887078109e-15 -3.54006457057e-16)
(-0.0799513363156 2.60634133043e-15 -3.24335710755e-16)
(-0.0799513363152 3.78264089055e-15 -2.98035834703e-16)
(-0.0799513363152 -2.61093467684e-15 -2.36270620357e-16)
(-0.0799513363151 -3.10815703587e-15 -1.94503163005e-16)
(-0.0799513363149 6.00104104173e-15 -1.68026515647e-16)
(-0.0799513363145 5.57595692493e-15 -2.07056157803e-16)
(-0.0799513363149 8.01599691193e-16 -1.70116152117e-16)
(-0.0799513363146 -2.47539372831e-16 -1.37211771869e-16)
)
;
    }
    inlet
    {
        type            calculated;
        value           uniform (0 0 0);
    }
    outlet
    {
        type            calculated;
        value           uniform (0 0 0);
    }
    front
    {
        type            wedge;
    }
    back
    {
        type            wedge;
    }
}


// ************************************************************************* //
