# y+          
# Time          	patch           	min             	max             	average         
0               	bottom	1.17665518e+02	1.17665518e+02	1.17665518e+02
1               	bottom	6.79620185e+01	1.16805705e+02	9.52550998e+01
2               	bottom	4.18321592e+01	1.16069894e+02	7.54726232e+01
3               	bottom	3.57307329e+01	1.15920932e+02	6.75708035e+01
4               	bottom	3.73831985e+01	1.15872496e+02	6.43400400e+01
5               	bottom	3.93831325e+01	1.15997462e+02	6.40263521e+01
6               	bottom	4.48430462e+01	1.16020199e+02	6.59033109e+01
7               	bottom	4.77892049e+01	1.15837373e+02	6.81416176e+01
8               	bottom	5.01274234e+01	1.15820109e+02	6.98474302e+01
9               	bottom	5.21003669e+01	1.15823851e+02	7.14676722e+01
10              	bottom	5.37962317e+01	1.15830923e+02	7.29564284e+01
11              	bottom	5.52037813e+01	1.15838243e+02	7.42770706e+01
12              	bottom	5.64089231e+01	1.15843508e+02	7.54300783e+01
13              	bottom	5.74384695e+01	1.15847167e+02	7.64265456e+01
14              	bottom	5.83032243e+01	1.15849438e+02	7.72797211e+01
15              	bottom	5.90637486e+01	1.15850042e+02	7.80083184e+01
16              	bottom	5.97282740e+01	1.15850220e+02	7.86316550e+01
17              	bottom	6.03162198e+01	1.15849457e+02	7.91657926e+01
18              	bottom	6.08437650e+01	1.15849117e+02	7.96232535e+01
19              	bottom	6.13340171e+01	1.15847895e+02	8.00153730e+01
20              	bottom	6.17990954e+01	1.15847460e+02	8.03516083e+01
21              	bottom	6.22482968e+01	1.15846596e+02	8.06407354e+01
22              	bottom	6.26883443e+01	1.15846782e+02	8.08905518e+01
23              	bottom	6.31215063e+01	1.15846821e+02	8.11073465e+01
24              	bottom	6.35463027e+01	1.15847316e+02	8.12966791e+01
25              	bottom	6.39587897e+01	1.15847653e+02	8.14628963e+01
26              	bottom	6.43555848e+01	1.15848117e+02	8.16094839e+01
27              	bottom	6.47343824e+01	1.15848376e+02	8.17392397e+01
28              	bottom	6.50936130e+01	1.15848919e+02	8.18545204e+01
29              	bottom	6.54316654e+01	1.15849080e+02	8.19572384e+01
30              	bottom	6.57470868e+01	1.15849441e+02	8.20490084e+01
31              	bottom	6.60397808e+01	1.15849779e+02	8.21311650e+01
32              	bottom	6.63104790e+01	1.15849897e+02	8.22047729e+01
33              	bottom	6.65604973e+01	1.15850099e+02	8.22708196e+01
34              	bottom	6.67912133e+01	1.15849948e+02	8.23300549e+01
35              	bottom	6.70040509e+01	1.15849620e+02	8.23834327e+01
36              	bottom	6.72006519e+01	1.15849192e+02	8.24315491e+01
37              	bottom	6.73826806e+01	1.15848912e+02	8.24751731e+01
38              	bottom	6.75517474e+01	1.15848945e+02	8.25146742e+01
39              	bottom	6.77092259e+01	1.15849288e+02	8.25504079e+01
40              	bottom	6.78562494e+01	1.15849771e+02	8.25826998e+01
41              	bottom	6.79937918e+01	1.15850334e+02	8.26119073e+01
42              	bottom	6.81227017e+01	1.15850885e+02	8.26383235e+01
43              	bottom	6.82436960e+01	1.15851406e+02	8.26622113e+01
44              	bottom	6.83573706e+01	1.15851854e+02	8.26838075e+01
45              	bottom	6.84642232e+01	1.15852236e+02	8.27033103e+01
46              	bottom	6.85646588e+01	1.15852539e+02	8.27209004e+01
47              	bottom	6.86590005e+01	1.15852779e+02	8.27367145e+01
48              	bottom	6.87475142e+01	1.15852919e+02	8.27508490e+01
49              	bottom	6.88304328e+01	1.15852881e+02	8.27633477e+01
50              	bottom	6.89079795e+01	1.15852511e+02	8.27744832e+01
51              	bottom	6.89803636e+01	1.15852006e+02	8.27842972e+01
52              	bottom	6.90477734e+01	1.15851316e+02	8.27932724e+01
53              	bottom	6.91104272e+01	1.15851035e+02	8.28014141e+01
54              	bottom	6.91685287e+01	1.15851089e+02	8.28087813e+01
55              	bottom	6.92222805e+01	1.15851399e+02	8.28153413e+01
56              	bottom	6.92718528e+01	1.15851819e+02	8.28211723e+01
57              	bottom	6.93174578e+01	1.15852273e+02	8.28263690e+01
58              	bottom	6.93593216e+01	1.15852702e+02	8.28310117e+01
59              	bottom	6.93976749e+01	1.15853225e+02	8.28351712e+01
60              	bottom	6.94327287e+01	1.15853723e+02	8.28389046e+01
61              	bottom	6.94646869e+01	1.15853978e+02	8.28422216e+01
62              	bottom	6.94937460e+01	1.15854258e+02	8.28451682e+01
63              	bottom	6.95201024e+01	1.15854438e+02	8.28477204e+01
64              	bottom	6.95439413e+01	1.15854481e+02	8.28498672e+01
65              	bottom	6.95654550e+01	1.15854302e+02	8.28515119e+01
66              	bottom	6.95848204e+01	1.15853687e+02	8.28529340e+01
67              	bottom	6.96022221e+01	1.15853152e+02	8.28539992e+01
68              	bottom	6.96178083e+01	1.15852361e+02	8.28551440e+01
69              	bottom	6.96317829e+01	1.15852240e+02	8.28562547e+01
70              	bottom	6.96442660e+01	1.15852353e+02	8.28573153e+01
71              	bottom	6.96553998e+01	1.15852765e+02	8.28582389e+01
72              	bottom	6.96652743e+01	1.15853235e+02	8.28590421e+01
73              	bottom	6.96740177e+01	1.15853728e+02	8.28597650e+01
74              	bottom	6.96817531e+01	1.15854168e+02	8.28604280e+01
75              	bottom	6.96885980e+01	1.15854533e+02	8.28610413e+01
76              	bottom	6.96946514e+01	1.15854809e+02	8.28616145e+01
77              	bottom	6.96999989e+01	1.15855014e+02	8.28621307e+01
78              	bottom	6.97047083e+01	1.15855142e+02	8.28625906e+01
79              	bottom	6.97088483e+01	1.15855214e+02	8.28629279e+01
80              	bottom	6.97124811e+01	1.15855119e+02	8.28631065e+01
81              	bottom	6.97156643e+01	1.15854802e+02	8.28630092e+01
82              	bottom	6.97184470e+01	1.15854045e+02	8.28629195e+01
83              	bottom	6.97208869e+01	1.15853435e+02	8.28627219e+01
84              	bottom	6.97230076e+01	1.15852718e+02	8.28627544e+01
85              	bottom	6.97248962e+01	1.15852626e+02	8.28628813e+01
86              	bottom	6.97265510e+01	1.15852761e+02	8.28630635e+01
87              	bottom	6.97280014e+01	1.15853154e+02	8.28632144e+01
88              	bottom	6.97292405e+01	1.15853590e+02	8.28633493e+01
89              	bottom	6.97302986e+01	1.15854040e+02	8.28634937e+01
90              	bottom	6.97312115e+01	1.15854430e+02	8.28636560e+01
91              	bottom	6.97320095e+01	1.15854750e+02	8.28638336e+01
92              	bottom	6.97327122e+01	1.15854985e+02	8.28640267e+01
93              	bottom	6.97333292e+01	1.15855155e+02	8.28642089e+01
94              	bottom	6.97338645e+01	1.15855253e+02	8.28643720e+01
95              	bottom	6.97343265e+01	1.15855289e+02	8.28644359e+01
96              	bottom	6.97347204e+01	1.15855134e+02	8.28643560e+01
97              	bottom	6.97350583e+01	1.15854727e+02	8.28640623e+01
98              	bottom	6.97353442e+01	1.15853948e+02	8.28637589e+01
99              	bottom	6.97355911e+01	1.15853236e+02	8.28634957e+01
100             	bottom	6.97357998e+01	1.15852697e+02	8.28634464e+01
101             	bottom	6.97360095e+01	1.15852663e+02	8.28635034e+01
102             	bottom	6.97362008e+01	1.15852883e+02	8.28635923e+01
103             	bottom	6.97363599e+01	1.15853289e+02	8.28636645e+01
104             	bottom	6.97364733e+01	1.15853728e+02	8.28637396e+01
105             	bottom	6.97365535e+01	1.15854161e+02	8.28638347e+01
106             	bottom	6.97366175e+01	1.15854530e+02	8.28639541e+01
107             	bottom	6.97366783e+01	1.15854823e+02	8.28641019e+01
108             	bottom	6.97367408e+01	1.15855042e+02	8.28642573e+01
109             	bottom	6.97367987e+01	1.15855187e+02	8.28644122e+01
110             	bottom	6.97368500e+01	1.15855274e+02	8.28645304e+01
111             	bottom	6.97368905e+01	1.15855267e+02	8.28645496e+01
112             	bottom	6.97369213e+01	1.15855071e+02	8.28643775e+01
113             	bottom	6.97369430e+01	1.15854529e+02	8.28641083e+01
114             	bottom	6.97369607e+01	1.15853851e+02	8.28637119e+01
115             	bottom	6.97369669e+01	1.15852976e+02	8.28635261e+01
116             	bottom	6.97369878e+01	1.15852667e+02	8.28634904e+01
117             	bottom	6.97370206e+01	1.15852665e+02	8.28635665e+01
118             	bottom	6.97370679e+01	1.15852979e+02	8.28636447e+01
119             	bottom	6.97370906e+01	1.15853393e+02	8.28637099e+01
120             	bottom	6.97370893e+01	1.15853846e+02	8.28637815e+01
121             	bottom	6.97370728e+01	1.15854260e+02	8.28638784e+01
122             	bottom	6.97370577e+01	1.15854614e+02	8.28639974e+01
123             	bottom	6.97370531e+01	1.15854877e+02	8.28641485e+01
124             	bottom	6.97370602e+01	1.15855081e+02	8.28643021e+01
125             	bottom	6.97370693e+01	1.15855205e+02	8.28644540e+01
126             	bottom	6.97370769e+01	1.15855283e+02	8.28645487e+01
127             	bottom	6.97370797e+01	1.15855233e+02	8.28645420e+01
128             	bottom	6.97370795e+01	1.15854992e+02	8.28643082e+01
129             	bottom	6.97370741e+01	1.15854338e+02	8.28640626e+01
130             	bottom	6.97370713e+01	1.15853732e+02	8.28636669e+01
131             	bottom	6.97370550e+01	1.15852873e+02	8.28635200e+01
132             	bottom	6.97370695e+01	1.15852668e+02	8.28635044e+01
133             	bottom	6.97370918e+01	1.15852705e+02	8.28635885e+01
134             	bottom	6.97371276e+01	1.15853058e+02	8.28636632e+01
135             	bottom	6.97371356e+01	1.15853477e+02	8.28637273e+01
136             	bottom	6.97371228e+01	1.15853932e+02	8.28638047e+01
137             	bottom	6.97371007e+01	1.15854335e+02	8.28639064e+01
138             	bottom	6.97370835e+01	1.15854674e+02	8.28640341e+01
139             	bottom	6.97370784e+01	1.15854927e+02	8.28641856e+01
140             	bottom	6.97370833e+01	1.15855115e+02	8.28643380e+01
141             	bottom	6.97370904e+01	1.15855228e+02	8.28644848e+01
142             	bottom	6.97370958e+01	1.15855291e+02	8.28645568e+01
143             	bottom	6.97370958e+01	1.15855197e+02	8.28645124e+01
144             	bottom	6.97370935e+01	1.15854890e+02	8.28642270e+01
145             	bottom	6.97370853e+01	1.15854146e+02	8.28639722e+01
146             	bottom	6.97370816e+01	1.15853540e+02	8.28636164e+01
147             	bottom	6.97370647e+01	1.15852788e+02	8.28635128e+01
148             	bottom	6.97370846e+01	1.15852670e+02	8.28635232e+01
149             	bottom	6.97371092e+01	1.15852778e+02	8.28636098e+01
150             	bottom	6.97371399e+01	1.15853159e+02	8.28636802e+01
151             	bottom	6.97371410e+01	1.15853585e+02	8.28637454e+01
152             	bottom	6.97371239e+01	1.15854032e+02	8.28638292e+01
153             	bottom	6.97371011e+01	1.15854420e+02	8.28639398e+01
154             	bottom	6.97370856e+01	1.15854744e+02	8.28640720e+01
155             	bottom	6.97370819e+01	1.15854979e+02	8.28642286e+01
156             	bottom	6.97370872e+01	1.15855155e+02	8.28643790e+01
157             	bottom	6.97370927e+01	1.15855252e+02	8.28645180e+01
158             	bottom	6.97370973e+01	1.15855295e+02	8.28645618e+01
159             	bottom	6.97370957e+01	1.15855145e+02	8.28644712e+01
160             	bottom	6.97370924e+01	1.15854756e+02	8.28641601e+01
161             	bottom	6.97370833e+01	1.15853972e+02	8.28638555e+01
162             	bottom	6.97370770e+01	1.15853284e+02	8.28635679e+01
163             	bottom	6.97370659e+01	1.15852708e+02	8.28635038e+01
164             	bottom	6.97370883e+01	1.15852666e+02	8.28635476e+01
165             	bottom	6.97371179e+01	1.15852869e+02	8.28636297e+01
166             	bottom	6.97371405e+01	1.15853272e+02	8.28636965e+01
167             	bottom	6.97371368e+01	1.15853708e+02	8.28637656e+01
168             	bottom	6.97371170e+01	1.15854144e+02	8.28638551e+01
169             	bottom	6.97370952e+01	1.15854514e+02	8.28639703e+01
170             	bottom	6.97370825e+01	1.15854812e+02	8.28641137e+01
171             	bottom	6.97370824e+01	1.15855033e+02	8.28642661e+01
172             	bottom	6.97370873e+01	1.15855182e+02	8.28644191e+01
173             	bottom	6.97370938e+01	1.15855271e+02	8.28645372e+01
174             	bottom	6.97370963e+01	1.15855270e+02	8.28645574e+01
175             	bottom	6.97370949e+01	1.15855077e+02	8.28643926e+01
176             	bottom	6.97370895e+01	1.15854553e+02	8.28641171e+01
177             	bottom	6.97370838e+01	1.15853861e+02	8.28637251e+01
178             	bottom	6.97370713e+01	1.15852997e+02	8.28635311e+01
179             	bottom	6.97370742e+01	1.15852668e+02	8.28634927e+01
180             	bottom	6.97370931e+01	1.15852663e+02	8.28635667e+01
181             	bottom	6.97371285e+01	1.15852970e+02	8.28636448e+01
182             	bottom	6.97371420e+01	1.15853383e+02	8.28637103e+01
183             	bottom	6.97371329e+01	1.15853835e+02	8.28637811e+01
184             	bottom	6.97371093e+01	1.15854251e+02	8.28638759e+01
185             	bottom	6.97370879e+01	1.15854604e+02	8.28639948e+01
186             	bottom	6.97370780e+01	1.15854870e+02	8.28641438e+01
187             	bottom	6.97370801e+01	1.15855073e+02	8.28642969e+01
188             	bottom	6.97370857e+01	1.15855199e+02	8.28644493e+01
189             	bottom	6.97370904e+01	1.15855279e+02	8.28645474e+01
190             	bottom	6.97370906e+01	1.15855236e+02	8.28645433e+01
191             	bottom	6.97370882e+01	1.15855001e+02	8.28643181e+01
192             	bottom	6.97370812e+01	1.15854363e+02	8.28640702e+01
193             	bottom	6.97370767e+01	1.15853749e+02	8.28636726e+01
194             	bottom	6.97370595e+01	1.15852885e+02	8.28635208e+01
195             	bottom	6.97370718e+01	1.15852668e+02	8.28635022e+01
196             	bottom	6.97370929e+01	1.15852699e+02	8.28635857e+01
197             	bottom	6.97371283e+01	1.15853048e+02	8.28636606e+01
198             	bottom	6.97371364e+01	1.15853466e+02	8.28637245e+01
199             	bottom	6.97371236e+01	1.15853920e+02	8.28638019e+01
200             	bottom	6.97371011e+01	1.15854325e+02	8.28639025e+01
201             	bottom	6.97370832e+01	1.15854666e+02	8.28640288e+01
202             	bottom	6.97370776e+01	1.15854921e+02	8.28641812e+01
203             	bottom	6.97370823e+01	1.15855111e+02	8.28643333e+01
204             	bottom	6.97370890e+01	1.15855225e+02	8.28644807e+01
205             	bottom	6.97370943e+01	1.15855291e+02	8.28645578e+01
206             	bottom	6.97370945e+01	1.15855204e+02	8.28645172e+01
207             	bottom	6.97370919e+01	1.15854905e+02	8.28642392e+01
208             	bottom	6.97370843e+01	1.15854173e+02	8.28639868e+01
209             	bottom	6.97370802e+01	1.15853570e+02	8.28636243e+01
210             	bottom	6.97370633e+01	1.15852800e+02	8.28635135e+01
211             	bottom	6.97370826e+01	1.15852670e+02	8.28635203e+01
212             	bottom	6.97371068e+01	1.15852766e+02	8.28636068e+01
213             	bottom	6.97371384e+01	1.15853144e+02	8.28636779e+01
214             	bottom	6.97371404e+01	1.15853568e+02	8.28637425e+01
215             	bottom	6.97371238e+01	1.15854017e+02	8.28638252e+01
216             	bottom	6.97371012e+01	1.15854407e+02	8.28639354e+01
217             	bottom	6.97370856e+01	1.15854734e+02	8.28640666e+01
218             	bottom	6.97370817e+01	1.15854972e+02	8.28642231e+01
219             	bottom	6.97370872e+01	1.15855150e+02	8.28643742e+01
220             	bottom	6.97370929e+01	1.15855250e+02	8.28645135e+01
221             	bottom	6.97370976e+01	1.15855295e+02	8.28645632e+01
222             	bottom	6.97370966e+01	1.15855155e+02	8.28644775e+01
223             	bottom	6.97370930e+01	1.15854775e+02	8.28641701e+01
224             	bottom	6.97370845e+01	1.15853997e+02	8.28638719e+01
225             	bottom	6.97370782e+01	1.15853319e+02	8.28635747e+01
226             	bottom	6.97370664e+01	1.15852718e+02	8.28635046e+01
227             	bottom	6.97370882e+01	1.15852665e+02	8.28635446e+01
228             	bottom	6.97371174e+01	1.15852856e+02	8.28636271e+01
229             	bottom	6.97371410e+01	1.15853256e+02	8.28636947e+01
230             	bottom	6.97371380e+01	1.15853691e+02	8.28637632e+01
231             	bottom	6.97371186e+01	1.15854128e+02	8.28638518e+01
232             	bottom	6.97370967e+01	1.15854501e+02	8.28639657e+01
233             	bottom	6.97370835e+01	1.15854802e+02	8.28641077e+01
234             	bottom	6.97370830e+01	1.15855025e+02	8.28642601e+01
235             	bottom	6.97370878e+01	1.15855177e+02	8.28644138e+01
236             	bottom	6.97370944e+01	1.15855269e+02	8.28645348e+01
237             	bottom	6.97370972e+01	1.15855274e+02	8.28645586e+01
238             	bottom	6.97370958e+01	1.15855088e+02	8.28644048e+01
239             	bottom	6.97370906e+01	1.15854584e+02	8.28641221e+01
240             	bottom	6.97370843e+01	1.15853875e+02	8.28637395e+01
241             	bottom	6.97370728e+01	1.15853029e+02	8.28635341e+01
242             	bottom	6.97370734e+01	1.15852671e+02	8.28634928e+01
243             	bottom	6.97370927e+01	1.15852662e+02	8.28635641e+01
244             	bottom	6.97371275e+01	1.15852958e+02	8.28636426e+01
245             	bottom	6.97371420e+01	1.15853369e+02	8.28637088e+01
246             	bottom	6.97371335e+01	1.15853821e+02	8.28637790e+01
247             	bottom	6.97371100e+01	1.15854238e+02	8.28638723e+01
248             	bottom	6.97370883e+01	1.15854592e+02	8.28639912e+01
249             	bottom	6.97370779e+01	1.15854862e+02	8.28641381e+01
250             	bottom	6.97370793e+01	1.15855066e+02	8.28642913e+01
251             	bottom	6.97370850e+01	1.15855195e+02	8.28644430e+01
252             	bottom	6.97370899e+01	1.15855275e+02	8.28645451e+01
253             	bottom	6.97370905e+01	1.15855239e+02	8.28645448e+01
254             	bottom	6.97370879e+01	1.15855011e+02	8.28643287e+01
255             	bottom	6.97370811e+01	1.15854392e+02	8.28640794e+01
256             	bottom	6.97370765e+01	1.15853770e+02	8.28636790e+01
257             	bottom	6.97370596e+01	1.15852899e+02	8.28635222e+01
258             	bottom	6.97370707e+01	1.15852670e+02	8.28635000e+01
259             	bottom	6.97370912e+01	1.15852693e+02	8.28635828e+01
260             	bottom	6.97371269e+01	1.15853036e+02	8.28636580e+01
261             	bottom	6.97371357e+01	1.15853453e+02	8.28637215e+01
262             	bottom	6.97371236e+01	1.15853907e+02	8.28637986e+01
263             	bottom	6.97371011e+01	1.15854314e+02	8.28638988e+01
264             	bottom	6.97370825e+01	1.15854657e+02	8.28640231e+01
265             	bottom	6.97370762e+01	1.15854913e+02	8.28641766e+01
266             	bottom	6.97370810e+01	1.15855107e+02	8.28643291e+01
267             	bottom	6.97370874e+01	1.15855222e+02	8.28644762e+01
268             	bottom	6.97370925e+01	1.15855290e+02	8.28645587e+01
269             	bottom	6.97370931e+01	1.15855213e+02	8.28645245e+01
270             	bottom	6.97370903e+01	1.15854924e+02	8.28642555e+01
271             	bottom	6.97370833e+01	1.15854207e+02	8.28640055e+01
272             	bottom	6.97370792e+01	1.15853606e+02	8.28636346e+01
273             	bottom	6.97370623e+01	1.15852814e+02	8.28635160e+01
274             	bottom	6.97370806e+01	1.15852668e+02	8.28635182e+01
275             	bottom	6.97371046e+01	1.15852752e+02	8.28636044e+01
276             	bottom	6.97371373e+01	1.15853125e+02	8.28636760e+01
277             	bottom	6.97371407e+01	1.15853548e+02	8.28637398e+01
278             	bottom	6.97371249e+01	1.15853998e+02	8.28638215e+01
279             	bottom	6.97371027e+01	1.15854391e+02	8.28639299e+01
280             	bottom	6.97370870e+01	1.15854722e+02	8.28640607e+01
281             	bottom	6.97370832e+01	1.15854963e+02	8.28642158e+01
282             	bottom	6.97370887e+01	1.15855144e+02	8.28643680e+01
283             	bottom	6.97370949e+01	1.15855247e+02	8.28645069e+01
284             	bottom	6.97370996e+01	1.15855294e+02	8.28645643e+01
285             	bottom	6.97370995e+01	1.15855167e+02	8.28644846e+01
286             	bottom	6.97370955e+01	1.15854799e+02	8.28641807e+01
287             	bottom	6.97370877e+01	1.15854025e+02	8.28638917e+01
288             	bottom	6.97370818e+01	1.15853363e+02	8.28635824e+01
289             	bottom	6.97370687e+01	1.15852731e+02	8.28635056e+01
290             	bottom	6.97370900e+01	1.15852666e+02	8.28635400e+01
291             	bottom	6.97371181e+01	1.15852840e+02	8.28636234e+01
292             	bottom	6.97371430e+01	1.15853236e+02	8.28636920e+01
293             	bottom	6.97371407e+01	1.15853671e+02	8.28637597e+01
294             	bottom	6.97371215e+01	1.15854110e+02	8.28638473e+01
295             	bottom	6.97370991e+01	1.15854485e+02	8.28639599e+01
296             	bottom	6.97370852e+01	1.15854789e+02	8.28641004e+01
297             	bottom	6.97370838e+01	1.15855016e+02	8.28642528e+01
298             	bottom	6.97370883e+01	1.15855172e+02	8.28644067e+01
299             	bottom	6.97370947e+01	1.15855266e+02	8.28645309e+01
300             	bottom	6.97370976e+01	1.15855277e+02	8.28645597e+01
301             	bottom	6.97370960e+01	1.15855100e+02	8.28644186e+01
302             	bottom	6.97370906e+01	1.15854620e+02	8.28641270e+01
303             	bottom	6.97370836e+01	1.15853890e+02	8.28637590e+01
304             	bottom	6.97370732e+01	1.15853074e+02	8.28635381e+01
305             	bottom	6.97370711e+01	1.15852675e+02	8.28634935e+01
306             	bottom	6.97370911e+01	1.15852662e+02	8.28635602e+01
307             	bottom	6.97371249e+01	1.15852941e+02	8.28636395e+01
308             	bottom	6.97371409e+01	1.15853352e+02	8.28637059e+01
309             	bottom	6.97371332e+01	1.15853800e+02	8.28637767e+01
310             	bottom	6.97371101e+01	1.15854222e+02	8.28638680e+01
311             	bottom	6.97370880e+01	1.15854577e+02	8.28639869e+01
312             	bottom	6.97370771e+01	1.15854853e+02	8.28641322e+01
313             	bottom	6.97370779e+01	1.15855059e+02	8.28642856e+01
314             	bottom	6.97370836e+01	1.15855192e+02	8.28644375e+01
315             	bottom	6.97370889e+01	1.15855273e+02	8.28645441e+01
316             	bottom	6.97370899e+01	1.15855246e+02	8.28645484e+01
317             	bottom	6.97370871e+01	1.15855027e+02	8.28643426e+01
318             	bottom	6.97370806e+01	1.15854427e+02	8.28640900e+01
319             	bottom	6.97370762e+01	1.15853794e+02	8.28636871e+01
320             	bottom	6.97370600e+01	1.15852915e+02	8.28635239e+01
321             	bottom	6.97370699e+01	1.15852669e+02	8.28634978e+01
322             	bottom	6.97370898e+01	1.15852684e+02	8.28635792e+01
323             	bottom	6.97371259e+01	1.15853021e+02	8.28636550e+01
324             	bottom	6.97371357e+01	1.15853437e+02	8.28637186e+01
325             	bottom	6.97371242e+01	1.15853891e+02	8.28637943e+01
326             	bottom	6.97371015e+01	1.15854300e+02	8.28638945e+01
327             	bottom	6.97370823e+01	1.15854647e+02	8.28640168e+01
328             	bottom	6.97370752e+01	1.15854905e+02	8.28641706e+01
329             	bottom	6.97370801e+01	1.15855102e+02	8.28643251e+01
330             	bottom	6.97370865e+01	1.15855220e+02	8.28644716e+01
331             	bottom	6.97370912e+01	1.15855289e+02	8.28645581e+01
332             	bottom	6.97370924e+01	1.15855220e+02	8.28645322e+01
333             	bottom	6.97370898e+01	1.15854945e+02	8.28642720e+01
334             	bottom	6.97370830e+01	1.15854243e+02	8.28640237e+01
335             	bottom	6.97370790e+01	1.15853642e+02	8.28636447e+01
336             	bottom	6.97370620e+01	1.15852828e+02	8.28635178e+01
337             	bottom	6.97370792e+01	1.15852666e+02	8.28635154e+01
338             	bottom	6.97371028e+01	1.15852737e+02	8.28636010e+01
339             	bottom	6.97371365e+01	1.15853105e+02	8.28636736e+01
340             	bottom	6.97371413e+01	1.15853528e+02	8.28637366e+01
341             	bottom	6.97371262e+01	1.15853979e+02	8.28638175e+01
342             	bottom	6.97371044e+01	1.15854376e+02	8.28639237e+01
343             	bottom	6.97370882e+01	1.15854708e+02	8.28640540e+01
344             	bottom	6.97370844e+01	1.15854953e+02	8.28642075e+01
345             	bottom	6.97370896e+01	1.15855136e+02	8.28643593e+01
346             	bottom	6.97370962e+01	1.15855241e+02	8.28644999e+01
347             	bottom	6.97371012e+01	1.15855292e+02	8.28645620e+01
348             	bottom	6.97371013e+01	1.15855175e+02	8.28644917e+01
349             	bottom	6.97370976e+01	1.15854824e+02	8.28641930e+01
350             	bottom	6.97370897e+01	1.15854058e+02	8.28639156e+01
351             	bottom	6.97370844e+01	1.15853416e+02	8.28635918e+01
352             	bottom	6.97370699e+01	1.15852748e+02	8.28635067e+01
353             	bottom	6.97370907e+01	1.15852667e+02	8.28635340e+01
354             	bottom	6.97371176e+01	1.15852821e+02	8.28636186e+01
355             	bottom	6.97371441e+01	1.15853214e+02	8.28636886e+01
356             	bottom	6.97371426e+01	1.15853646e+02	8.28637550e+01
357             	bottom	6.97371236e+01	1.15854087e+02	8.28638414e+01
358             	bottom	6.97371010e+01	1.15854466e+02	8.28639529e+01
359             	bottom	6.97370863e+01	1.15854775e+02	8.28640911e+01
360             	bottom	6.97370838e+01	1.15855005e+02	8.28642432e+01
361             	bottom	6.97370881e+01	1.15855164e+02	8.28643960e+01
362             	bottom	6.97370943e+01	1.15855259e+02	8.28645249e+01
363             	bottom	6.97370975e+01	1.15855279e+02	8.28645595e+01
364             	bottom	6.97370956e+01	1.15855114e+02	8.28644346e+01
365             	bottom	6.97370905e+01	1.15854663e+02	8.28641331e+01
366             	bottom	6.97370827e+01	1.15853909e+02	8.28637857e+01
367             	bottom	6.97370735e+01	1.15853136e+02	8.28635440e+01
368             	bottom	6.97370680e+01	1.15852683e+02	8.28634952e+01
369             	bottom	6.97370890e+01	1.15852664e+02	8.28635552e+01
370             	bottom	6.97371212e+01	1.15852921e+02	8.28636355e+01
371             	bottom	6.97371392e+01	1.15853329e+02	8.28637018e+01
372             	bottom	6.97371326e+01	1.15853773e+02	8.28637731e+01
373             	bottom	6.97371102e+01	1.15854200e+02	8.28638633e+01
374             	bottom	6.97370876e+01	1.15854559e+02	8.28639816e+01
375             	bottom	6.97370760e+01	1.15854842e+02	8.28641263e+01
376             	bottom	6.97370764e+01	1.15855052e+02	8.28642808e+01
377             	bottom	6.97370820e+01	1.15855191e+02	8.28644327e+01
378             	bottom	6.97370876e+01	1.15855274e+02	8.28645440e+01
379             	bottom	6.97370892e+01	1.15855256e+02	8.28645537e+01
380             	bottom	6.97370869e+01	1.15855045e+02	8.28643592e+01
381             	bottom	6.97370807e+01	1.15854466e+02	8.28641014e+01
382             	bottom	6.97370762e+01	1.15853818e+02	8.28636978e+01
383             	bottom	6.97370610e+01	1.15852935e+02	8.28635263e+01
384             	bottom	6.97370694e+01	1.15852667e+02	8.28634960e+01
385             	bottom	6.97370889e+01	1.15852674e+02	8.28635752e+01
386             	bottom	6.97371252e+01	1.15853003e+02	8.28636516e+01
387             	bottom	6.97371364e+01	1.15853418e+02	8.28637154e+01
388             	bottom	6.97371260e+01	1.15853872e+02	8.28637895e+01
389             	bottom	6.97371033e+01	1.15854284e+02	8.28638890e+01
390             	bottom	6.97370837e+01	1.15854635e+02	8.28640096e+01
391             	bottom	6.97370758e+01	1.15854895e+02	8.28641623e+01
392             	bottom	6.97370804e+01	1.15855094e+02	8.28643173e+01
393             	bottom	6.97370867e+01	1.15855216e+02	8.28644656e+01
394             	bottom	6.97370912e+01	1.15855288e+02	8.28645549e+01
395             	bottom	6.97370920e+01	1.15855226e+02	8.28645370e+01
396             	bottom	6.97370897e+01	1.15854965e+02	8.28642880e+01
397             	bottom	6.97370827e+01	1.15854283e+02	8.28640400e+01
398             	bottom	6.97370786e+01	1.15853678e+02	8.28636541e+01
399             	bottom	6.97370615e+01	1.15852846e+02	8.28635186e+01
400             	bottom	6.97370771e+01	1.15852666e+02	8.28635113e+01
401             	bottom	6.97371001e+01	1.15852723e+02	8.28635962e+01
402             	bottom	6.97371343e+01	1.15853085e+02	8.28636698e+01
403             	bottom	6.97371403e+01	1.15853507e+02	8.28637327e+01
404             	bottom	6.97371259e+01	1.15853959e+02	8.28638124e+01
405             	bottom	6.97371039e+01	1.15854359e+02	8.28639165e+01
406             	bottom	6.97370871e+01	1.15854694e+02	8.28640464e+01
407             	bottom	6.97370830e+01	1.15854943e+02	8.28641984e+01
408             	bottom	6.97370879e+01	1.15855127e+02	8.28643504e+01
409             	bottom	6.97370948e+01	1.15855236e+02	8.28644927e+01
410             	bottom	6.97371000e+01	1.15855290e+02	8.28645588e+01
411             	bottom	6.97371001e+01	1.15855183e+02	8.28644992e+01
412             	bottom	6.97370968e+01	1.15854850e+02	8.28642047e+01
413             	bottom	6.97370885e+01	1.15854092e+02	8.28639389e+01
414             	bottom	6.97370841e+01	1.15853468e+02	8.28636014e+01
415             	bottom	6.97370681e+01	1.15852765e+02	8.28635089e+01
416             	bottom	6.97370887e+01	1.15852670e+02	8.28635289e+01
417             	bottom	6.97371144e+01	1.15852804e+02	8.28636145e+01
418             	bottom	6.97371426e+01	1.15853192e+02	8.28636843e+01
419             	bottom	6.97371419e+01	1.15853621e+02	8.28637509e+01
420             	bottom	6.97371237e+01	1.15854065e+02	8.28638355e+01
421             	bottom	6.97371007e+01	1.15854447e+02	8.28639470e+01
422             	bottom	6.97370858e+01	1.15854762e+02	8.28640818e+01
423             	bottom	6.97370825e+01	1.15854993e+02	8.28642356e+01
424             	bottom	6.97370872e+01	1.15855158e+02	8.28643867e+01
425             	bottom	6.97370929e+01	1.15855254e+02	8.28645210e+01
426             	bottom	6.97370967e+01	1.15855285e+02	8.28645590e+01
427             	bottom	6.97370946e+01	1.15855126e+02	8.28644513e+01
428             	bottom	6.97370904e+01	1.15854706e+02	8.28641439e+01
429             	bottom	6.97370817e+01	1.15853936e+02	8.28638173e+01
430             	bottom	6.97370740e+01	1.15853204e+02	8.28635543e+01
431             	bottom	6.97370657e+01	1.15852695e+02	8.28634989e+01
432             	bottom	6.97370874e+01	1.15852666e+02	8.28635515e+01