#      distance             U_x             U_y             U_z wallShearStr... wallShearStr... wallShearStr...               p           omega               k             nut
    0.001215373      0.62966122   9.8918493e-05               0               0               0               0   0.00015924635       356.91792    0.0041861457   1.5160241e-05
   0.0020572852      0.68699707   0.00011963935               0               0               0               0   0.00016334791       180.47883    0.0041284543   2.5066861e-05
   0.0029273097      0.72303675   0.00014424086               0               0               0               0   0.00016858532       119.73074    0.0039714011   3.4681001e-05
   0.0038263852      0.75019319   0.00017330372               0               0               0               0   0.00017452431       89.971419    0.0038431054   4.3783401e-05
   0.0047554818      0.77243434   0.00020665499               0               0               0               0   0.00018086704       72.469392    0.0037249239   5.2171785e-05
   0.0057156019      0.79159568   0.00024416825               0               0               0               0   0.00018739782        61.05457    0.0036077239   5.9648277e-05
   0.0067077814      0.80869461   0.00028581115               0               0               0               0   0.00019394027       53.114589    0.0034871939   6.6051071e-05
   0.0077330908      0.82435939   0.00033162761               0               0               0               0   0.00020033225       47.357735    0.0033608725   7.1239895e-05
   0.0087926364       0.8390187   0.00038182907               0               0               0               0   0.00020641749       43.072034    0.0032268948   7.5007115e-05
   0.0098875613       0.8530167   0.00043686755               0               0               0               0    0.0002120338       39.820956    0.0030828314   7.6909946e-05
    0.011019047      0.86666079   0.00049745175               0               0               0               0   0.00021698576       37.303439    0.0029251085   7.6702883e-05
    0.012188314       0.8802005   0.00056466172               0               0               0               0   0.00022106471       35.292715    0.0027491473   7.4569849e-05
    0.013396624      0.89381823   0.00063996431               0               0               0               0    0.0002241195       33.604289    0.0025496265   7.0738841e-05
    0.014645281      0.90764044   0.00072490025               0               0               0               0   0.00022609422       32.077673    0.0023212118   6.5469828e-05
    0.015935632      0.92171185    0.0008204564               0               0               0               0   0.00022701273       30.573695    0.0020602205   5.9222925e-05
    0.017269069      0.93591421   0.00092615772               0               0               0               0   0.00022693915       28.986151    0.0017678255   5.2726315e-05
    0.018647031      0.94987066    0.0010389605               0               0               0               0   0.00022595069       27.282087    0.0014549613   4.6781622e-05
    0.020071004      0.96302129    0.0011538428               0               0               0               0   0.00022418555       25.486749    0.0011401092   4.1378874e-05
    0.021542526      0.97503524     0.001266914               0               0               0               0   0.00022187574       23.532108   0.00083490687   3.4512829e-05
    0.023063183      0.98587066    0.0013756544               0               0               0               0   0.00021922512       21.086421   0.00054503598    2.531198e-05
    0.024634616      0.99493438    0.0014702295               0               0               0               0   0.00021631092        17.52424   0.00029264734   1.5826427e-05
    0.026258521       1.0008286     0.001530739               0               0               0               0   0.00021322658       12.689989   0.00011661961   8.1269713e-06
     0.02793665       1.0032294    0.0015526118               0               0               0               0   0.00021021165       8.3020068   3.1253685e-05   3.1487444e-06
    0.029670814       1.0037146    0.0015542917               0               0               0               0   0.00020740029         6.20863   5.6793197e-06   8.3598762e-07
    0.031462883       1.0037491    0.0015513049               0               0               0               0   0.00020468818       5.7843203   1.2886636e-06   2.2139238e-07
    0.033314791       1.0037468    0.0015476983               0               0               0               0   0.00020193545       5.7421116   8.3847683e-07   1.4601184e-07
    0.035228536       1.0037451    0.0015422323               0               0               0               0   0.00019903478       5.7389247   8.0335626e-07    1.399793e-07
    0.037206184       1.0037439    0.0015392026               0               0               0               0   0.00019598874        5.738702   8.0084781e-07   1.3954735e-07
    0.039249867       1.0037422    0.0015413156               0               0               0               0   0.00019293859       5.7386835   8.0067718e-07   1.3951804e-07
     0.04136179       1.0037395    0.0015429001               0               0               0               0   0.00018994762       5.7386777   8.0066528e-07   1.3951611e-07
    0.043544233       1.0037366    0.0015422701               0               0               0               0   0.00018696295       5.7386718   8.0066355e-07   1.3951595e-07
     0.04579955       1.0037336    0.0015402564               0               0               0               0   0.00018393198       5.7386651   8.0066232e-07    1.395159e-07
    0.048130175        1.003731    0.0015377622               0               0               0               0    0.0001808195       5.7386575     8.00661e-07   1.3951585e-07
    0.050538621       1.0037331    0.0015367453               0               0               0               0   0.00017763088       5.7386498    8.006598e-07   1.3951583e-07
    0.053027488       1.0037439    0.0015420386               0               0               0               0   0.00017446779       5.7386412   8.0065855e-07   1.3951582e-07
    0.055599461       1.0037566    0.0015540886               0               0               0               0   0.00017151926       5.7386295   8.0065661e-07   1.3951577e-07
    0.058257315       1.0037649     0.001564372               0               0               0               0   0.00016886984       5.7386159   8.0065422e-07   1.3951568e-07
    0.061003917       1.0037702    0.0015706365               0               0               0               0   0.00016645322       5.7386015   8.0065183e-07   1.3951562e-07
    0.063842231       1.0037746    0.0015751377               0               0               0               0   0.00016421655       5.7385858   8.0064929e-07   1.3951555e-07
     0.06677532        1.003778    0.0015775108               0               0               0               0   0.00016213754       5.7385686   8.0064653e-07   1.3951549e-07
    0.069806347       1.0037812    0.0015776168               0               0               0               0   0.00016021201       5.7385497   8.0064356e-07   1.3951543e-07
    0.072938584        1.003784    0.0015750079               0               0               0               0   0.00015844289       5.7385289   8.0064028e-07   1.3951537e-07
    0.076175409       1.0037844    0.0015700175               0               0               0               0   0.00015678519       5.7385062   8.0063673e-07    1.395153e-07
    0.079520315       1.0037815    0.0015627866               0               0               0               0   0.00015517044       5.7384815   8.0063287e-07   1.3951523e-07
    0.082976911       1.0037768    0.0015549646               0               0               0               0   0.00015356792       5.7384545   8.0062866e-07   1.3951515e-07
    0.086548926       1.0037712    0.0015475284               0               0               0               0   0.00015198385       5.7384253   8.0062411e-07   1.3951507e-07
    0.090240215       1.0037651    0.0015404565               0               0               0               0   0.00015042123       5.7383939    8.006192e-07   1.3951498e-07
     0.09405476       1.0037595    0.0015335853               0               0               0               0   0.00014887317        5.738367   8.0061488e-07   1.3951488e-07
