/*--------------------------------*- C++ -*----------------------------------*\
  =========                 |
  \\      /  F ield         | OpenFOAM: The Open Source CFD Toolbox
   \\    /   O peration     | Website:  https://openfoam.org
    \\  /    A nd           | Version:  12
     \\/     M anipulation  |
\*---------------------------------------------------------------------------*/
FoamFile
{
    format      ascii;
    class       volScalarField;
    location    "2000";
    object      nut;
}
// * * * * * * * * * * * * * * * * * * * * * * * * * * * * * * * * * * * * * //

dimensions      [0 2 -1 0 0 0 0];

internalField   nonuniform List<scalar> 
7480
(
1.2623995e-06
1.5198201e-06
1.8415909e-06
2.2173411e-06
2.645244e-06
3.1217738e-06
3.6391379e-06
4.1846676e-06
4.7414172e-06
5.2891171e-06
5.8062912e-06
6.2739298e-06
6.6775333e-06
7.0084574e-06
7.263952e-06
7.4475051e-06
7.5616801e-06
7.6390135e-06
7.6361116e-06
7.6137498e-06
7.5651045e-06
7.497436e-06
7.4175766e-06
7.3314916e-06
7.2443516e-06
7.1606577e-06
7.0843008e-06
7.018462e-06
6.9654935e-06
6.9265431e-06
6.9010338e-06
6.8864822e-06
6.8788779e-06
6.8737385e-06
6.8674093e-06
6.8578749e-06
6.8447852e-06
6.8288905e-06
6.8112611e-06
6.7926991e-06
6.7735519e-06
6.7538519e-06
6.7335787e-06
6.7128347e-06
6.6918466e-06
6.6708585e-06
6.6500334e-06
6.6294329e-06
6.6090625e-06
6.5889207e-06
6.5690156e-06
6.5493524e-06
6.5299344e-06
6.5107577e-06
6.4918156e-06
6.4731035e-06
6.4546177e-06
6.436352e-06
6.4182995e-06
6.4004597e-06
6.3828268e-06
6.3653908e-06
6.3481438e-06
6.3310806e-06
6.3141964e-06
6.2974878e-06
6.2809511e-06
6.2645821e-06
6.2483768e-06
6.2323313e-06
6.2164414e-06
6.2007032e-06
6.1851136e-06
6.1696686e-06
6.1543647e-06
6.1391986e-06
6.1241674e-06
6.1092681e-06
6.0944979e-06
6.0798538e-06
6.0653332e-06
6.0509332e-06
6.0366513e-06
6.0224846e-06
6.0084307e-06
5.9944867e-06
5.9806502e-06
5.9669181e-06
5.953288e-06
5.9397558e-06
5.9263198e-06
5.9129722e-06
5.8997166e-06
5.8865246e-06
5.8734338e-06
5.8603149e-06
5.8473887e-06
5.8338685e-06
5.8224611e-06
5.8013077e-06
2.4086553e-05
1.2013195e-05
7.4203328e-06
4.9499535e-06
3.4252611e-06
2.4445222e-06
1.8203118e-06
1.4405177e-06
1.2285504e-06
1.1352227e-06
1.1328683e-06
1.1938604e-06
1.2981155e-06
1.4354116e-06
1.5975921e-06
1.7777854e-06
1.9722726e-06
2.1785828e-06
2.4024057e-06
2.6530164e-06
2.9466034e-06
3.3171361e-06
3.7874028e-06
4.3249991e-06
4.927656e-06
5.5996926e-06
6.3391331e-06
7.1457265e-06
8.0050074e-06
8.8830144e-06
9.7359145e-06
1.0519689e-05
1.1198465e-05
1.1759468e-05
1.2215855e-05
1.2594148e-05
1.2921248e-05
1.3215149e-05
1.3481999e-05
1.3720187e-05
1.3927295e-05
1.4104727e-05
1.4258292e-05
1.4395361e-05
1.4521523e-05
1.4639404e-05
1.4749376e-05
1.4851159e-05
1.4945193e-05
1.5032539e-05
1.5114172e-05
1.5190657e-05
1.5262207e-05
1.532902e-05
1.5391412e-05
1.5449707e-05
1.5504129e-05
1.5554835e-05
1.5602041e-05
1.5646043e-05
1.5686859e-05
1.5724568e-05
1.5759307e-05
1.5791214e-05
1.5820431e-05
1.584709e-05
1.5871298e-05
1.5893164e-05
1.5912793e-05
1.5930274e-05
1.5945704e-05
1.5959172e-05
1.5970758e-05
1.5980549e-05
1.5988631e-05
1.5995087e-05
1.5999991e-05
1.6003417e-05
1.6005432e-05
1.6006104e-05
1.6005496e-05
1.6003668e-05
1.6000678e-05
1.599658e-05
1.5991426e-05
1.5985268e-05
1.5978153e-05
1.5970128e-05
1.5961237e-05
1.5951519e-05
1.5941015e-05
1.5929778e-05
1.5917821e-05
1.5905238e-05
1.5891934e-05
1.5878236e-05
1.5863602e-05
1.5848818e-05
1.5835382e-05
1.5805579e-05
0.00012277469
7.0398614e-05
4.6390827e-05
3.2964504e-05
2.4273333e-05
1.8154081e-05
1.3666693e-05
1.0332868e-05
7.8606991e-06
6.0387475e-06
4.7023068e-06
3.7176375e-06
2.9853896e-06
2.43711e-06
2.0249234e-06
1.7137435e-06
1.4795407e-06
1.3023295e-06
1.1698261e-06
1.0727343e-06
1.004349e-06
9.6282435e-07
9.4132833e-07
9.8114118e-07
1.0934091e-06
1.2827009e-06
1.5621392e-06
1.9217034e-06
2.3788133e-06
2.9799945e-06
3.8119841e-06
4.8496316e-06
6.0408654e-06
7.3314266e-06
8.6729297e-06
9.994311e-06
1.122676e-05
1.2325457e-05
1.3277981e-05
1.4100779e-05
1.4826632e-05
1.5488211e-05
1.6106549e-05
1.6688163e-05
1.7230727e-05
1.7731032e-05
1.8190373e-05
1.8614913e-05
1.9011678e-05
1.9385444e-05
1.9738255e-05
2.0070966e-05
2.0384742e-05
2.0681322e-05
2.0962407e-05
2.1229215e-05
2.1482579e-05
2.1723258e-05
2.1951985e-05
2.2169285e-05
2.2375878e-05
2.2572362e-05
2.2759262e-05
2.2937045e-05
2.3106136e-05
2.3266922e-05
2.3419758e-05
2.3564974e-05
2.3702879e-05
2.3833761e-05
2.3957895e-05
2.4075546e-05
2.4186962e-05
2.4292387e-05
2.4392056e-05
2.4486195e-05
2.4575022e-05
2.4658747e-05
2.4737568e-05
2.4811681e-05
2.4881269e-05
2.4946511e-05
2.5007577e-05
2.5064632e-05
2.5117833e-05
2.5167333e-05
2.5213278e-05
2.5255813e-05
2.5295072e-05
2.5331207e-05
2.5364332e-05
2.5394587e-05
2.5422047e-05
2.544694e-05
2.5469138e-05
2.5489358e-05
2.5506314e-05
2.552364e-05
2.5534113e-05
2.5548884e-05
0.0002231672
0.00016436996
0.0001232962
9.5795851e-05
7.6398672e-05
6.1938708e-05
5.0709292e-05
4.1764741e-05
3.4549163e-05
2.8702756e-05
2.3965192e-05
2.0124883e-05
1.7005268e-05
1.4463808e-05
1.2387791e-05
1.0686456e-05
9.2888057e-06
8.1352004e-06
7.1784602e-06
6.3792308e-06
5.7049436e-06
5.1265312e-06
4.6187296e-06
4.1633973e-06
3.7465912e-06
3.3612068e-06
3.000207e-06
2.6596234e-06
2.3452172e-06
2.0707049e-06
1.8515769e-06
1.7165013e-06
1.7686985e-06
2.0410218e-06
2.4950121e-06
3.1668126e-06
4.1371187e-06
5.417129e-06
6.8873831e-06
8.466093e-06
1.0069854e-05
1.160852e-05
1.3020793e-05
1.4285103e-05
1.5416044e-05
1.6447816e-05
1.7413434e-05
1.8331444e-05
1.9205007e-05
2.0030353e-05
2.0805772e-05
2.1534962e-05
2.2224511e-05
2.2879934e-05
2.3504118e-05
2.4098482e-05
2.4664588e-05
2.5204502e-05
2.5720209e-05
2.6213143e-05
2.6684487e-05
2.713539e-05
2.7566974e-05
2.7980236e-05
2.8376048e-05
2.8755203e-05
2.9118434e-05
2.946641e-05
2.979975e-05
3.0119029e-05
3.0424786e-05
3.0717535e-05
3.0997757e-05
3.1265911e-05
3.1522437e-05
3.1767757e-05
3.2002275e-05
3.2226379e-05
3.2440444e-05
3.2644827e-05
3.2839875e-05
3.3025917e-05
3.3203274e-05
3.3372254e-05
3.3533153e-05
3.368626e-05
3.3831853e-05
3.3970203e-05
3.410157e-05
3.4226219e-05
3.434439e-05
3.4456343e-05
3.4562254e-05
3.4662487e-05
3.4756947e-05
3.4846689e-05
3.4929645e-05
3.5013077e-05
3.5075883e-05
3.5184109e-05
0.00027223048
0.0002365298
0.0001998905
0.00016882067
0.00014365567
0.0001232257
0.00010638478
9.2286323e-05
8.0347458e-05
7.0166847e-05
6.1456932e-05
5.3994965e-05
4.759613e-05
4.2103344e-05
3.7383427e-05
3.3323132e-05
2.9826419e-05
2.681001e-05
2.4201962e-05
2.1940852e-05
1.9973789e-05
1.8253216e-05
1.6737079e-05
1.5387531e-05
1.4171154e-05
1.3057287e-05
1.2018006e-05
1.1028069e-05
1.0060079e-05
9.1009292e-06
8.1182262e-06
7.1347263e-06
6.1475816e-06
5.2245772e-06
4.3851097e-06
3.6733523e-06
3.1211404e-06
2.7520251e-06
2.7291596e-06
3.0082419e-06
3.5848897e-06
4.5112088e-06
5.8328813e-06
7.4049657e-06
9.1281789e-06
1.0896811e-05
1.2612076e-05
1.4213108e-05
1.5683999e-05
1.7043443e-05
1.8322581e-05
1.9544821e-05
2.0718016e-05
2.1839909e-05
2.2907965e-05
2.3924492e-05
2.4895035e-05
2.5824496e-05
2.6715581e-05
2.7569861e-05
2.8389126e-05
2.9175499e-05
2.993091e-05
3.0656907e-05
3.1354845e-05
3.2026024e-05
3.267165e-05
3.3292799e-05
3.3890454e-05
3.4465531e-05
3.5018886e-05
3.5551317e-05
3.6063575e-05
3.6556366e-05
3.7030362e-05
3.7486202e-05
3.7924497e-05
3.8345834e-05
3.8750774e-05
3.9139858e-05
3.9513603e-05
3.9872509e-05
4.0217057e-05
4.0547712e-05
4.0864924e-05
4.1169131e-05
4.1460755e-05
4.1740209e-05
4.2007892e-05
4.2264203e-05
4.2509513e-05
4.2744217e-05
4.2968613e-05
4.3183207e-05
4.3387958e-05
4.3584283e-05
4.3769131e-05
4.3954605e-05
4.4099464e-05
4.4353369e-05
0.00029123441
0.00027480633
0.00025193762
0.0002275214
0.00020434454
0.00018338334
0.00016473986
0.00014821343
0.00013354487
0.00012049869
0.00010888011
9.8528443e-05
8.9306166e-05
8.1091777e-05
7.3776298e-05
6.7261238e-05
6.1459598e-05
5.6292713e-05
5.1689229e-05
4.7584622e-05
4.3920743e-05
4.0644445e-05
3.770717e-05
3.5063836e-05
3.2672568e-05
3.0493619e-05
2.849021e-05
2.6627978e-05
2.4871994e-05
2.3195749e-05
2.1563724e-05
1.9945515e-05
1.8311472e-05
1.6657067e-05
1.495672e-05
1.3251662e-05
1.1525016e-05
9.8185689e-06
8.2203641e-06
6.7895644e-06
5.5822764e-06
4.6559215e-06
4.0098278e-06
3.827302e-06
4.0335256e-06
4.6373269e-06
5.7002016e-06
7.1629874e-06
8.8771271e-06
1.0737062e-05
1.2623648e-05
1.4450123e-05
1.6175565e-05
1.7800978e-05
1.9348559e-05
2.0838544e-05
2.2278112e-05
2.366505e-05
2.4997036e-05
2.6276105e-05
2.7506689e-05
2.8692339e-05
2.9835036e-05
3.0936362e-05
3.1998208e-05
3.302251e-05
3.4010915e-05
3.4964836e-05
3.5885614e-05
3.6774523e-05
3.7632733e-05
3.8461325e-05
3.9261316e-05
4.0033661e-05
4.077926e-05
4.1498969e-05
4.2193603e-05
4.2863941e-05
4.3510729e-05
4.413468e-05
4.4736481e-05
4.5316793e-05
4.5876256e-05
4.6415486e-05
4.6935085e-05
4.7435633e-05
4.7917698e-05
4.8381832e-05
4.8828572e-05
4.925845e-05
4.9671971e-05
5.0069665e-05
5.0451954e-05
5.0819488e-05
5.1172279e-05
5.1512159e-05
5.1834839e-05
5.2158542e-05
5.2415754e-05
5.2868098e-05
0.00029845108
0.00029192042
0.00028039132
0.00026525652
0.00024839056
0.00023120161
0.00021449461
0.00019865086
0.00018381593
0.00017002082
0.00015724642
0.00014545323
0.00013459315
0.00012461357
0.00011545971
0.00010707571
9.9406344e-05
9.2397735e-05
8.5997774e-05
8.0156366e-05
7.4825714e-05
6.9960427e-05
6.551751e-05
6.1456056e-05
5.773696e-05
5.4322976e-05
5.1175984e-05
4.8258401e-05
4.5535152e-05
4.2973748e-05
4.0540252e-05
3.819982e-05
3.5914609e-05
3.3656137e-05
3.1394655e-05
2.9111717e-05
2.6792769e-05
2.4422239e-05
2.2002647e-05
1.9553356e-05
1.709805e-05
1.47037e-05
1.2404502e-05
1.0312868e-05
8.4752345e-06
6.9788545e-06
5.8489795e-06
5.1839801e-06
5.0643032e-06
5.4156834e-06
6.2872757e-06
7.6527337e-06
9.3464852e-06
1.125732e-05
1.3256072e-05
1.5241657e-05
1.7159781e-05
1.9000672e-05
2.0777779e-05
2.2503915e-05
2.4181295e-05
2.5806315e-05
2.7377308e-05
2.8896362e-05
3.0366532e-05
3.1789813e-05
3.3167506e-05
3.4501073e-05
3.5792163e-05
3.704229e-05
3.8252786e-05
3.9424921e-05
4.0559916e-05
4.1658916e-05
4.2722997e-05
4.3753188e-05
4.4750469e-05
4.5715778e-05
4.6650009e-05
4.7554023e-05
4.8428646e-05
4.9274678e-05
5.009289e-05
5.0884033e-05
5.1648833e-05
5.2388001e-05
5.3102228e-05
5.3792191e-05
5.4458551e-05
5.5101962e-05
5.5723049e-05
5.6322464e-05
5.6900747e-05
5.7458683e-05
5.7996328e-05
5.8515967e-05
5.9011837e-05
5.9509456e-05
5.9909405e-05
6.0612508e-05
0.00030165402
0.00029923869
0.00029417142
0.00028623459
0.00027593796
0.00026407385
0.00025137207
0.00023837414
0.00022543965
0.00021279424
0.00020057599
0.00018886832
0.00017772023
0.00016715779
0.00015719107
0.00014781835
0.0001390293
0.00013080733
0.00012313136
0.00011597704
0.00010931775
0.00010312552
9.7371664e-05
9.2027064e-05
8.7062301e-05
8.2448046e-05
7.8154179e-05
7.4149655e-05
7.0403467e-05
6.6885225e-05
6.3564464e-05
6.0410178e-05
5.7389494e-05
5.4471028e-05
5.1623483e-05
4.8822589e-05
4.6021135e-05
4.3192162e-05
4.0320206e-05
3.7392854e-05
3.4402497e-05
3.1348271e-05
2.8270691e-05
2.5167991e-05
2.2080915e-05
1.9077753e-05
1.6202019e-05
1.353921e-05
1.1190829e-05
9.2259658e-06
7.707473e-06
6.7106719e-06
6.3641156e-06
6.5719266e-06
7.3890441e-06
8.7371603e-06
1.0467019e-05
1.2451897e-05
1.4557547e-05
1.6678323e-05
1.8758861e-05
2.0787392e-05
2.2770124e-05
2.4710287e-05
2.6604151e-05
2.8447351e-05
3.0239076e-05
3.198075e-05
3.3673659e-05
3.5318591e-05
3.6916472e-05
3.8468484e-05
3.9975794e-05
4.1439493e-05
4.2860657e-05
4.4240354e-05
4.5579613e-05
4.6879428e-05
4.8140764e-05
4.9364554e-05
5.0551703e-05
5.170309e-05
5.2819571e-05
5.3901982e-05
5.4951139e-05
5.5967841e-05
5.6952871e-05
5.7906999e-05
5.883098e-05
5.9725563e-05
6.0591471e-05
6.1429454e-05
6.224015e-05
6.3024461e-05
6.3782464e-05
6.4516929e-05
6.5220406e-05
6.5926732e-05
6.6499499e-05
6.7504783e-05
0.00030362337
0.00030272461
0.0003006706
0.00029697631
0.00029148575
0.00028435908
0.00027592991
0.00026656887
0.00025660686
0.00024631005
0.0002358823
0.00022547685
0.00021520851
0.00020516313
0.00019540439
0.00018597863
0.00017691831
0.00016824474
0.00015997028
0.00015209999
0.00014463296
0.00013756358
0.0001308826
0.00012457777
0.00011863428
0.00011303536
0.00010776232
0.00010279446
9.8109489e-05
9.3683959e-05
8.9493548e-05
8.5513061e-05
8.1715824e-05
7.8074635e-05
7.4561317e-05
7.1151122e-05
6.7810669e-05
6.45079e-05
6.1216269e-05
5.7913383e-05
5.4579272e-05
5.119737e-05
4.7745995e-05
4.4225652e-05
4.0623684e-05
3.6997139e-05
3.3314647e-05
2.9639984e-05
2.6021303e-05
2.2507131e-05
1.9160654e-05
1.606451e-05
1.3337464e-05
1.1059567e-05
9.2863955e-06
8.166965e-06
7.7435744e-06
7.9755583e-06
8.8950146e-06
1.033527e-05
1.2186409e-05
1.4300134e-05
1.6535291e-05
1.879469e-05
2.1034507e-05
2.3244688e-05
2.5423103e-05
2.7564007e-05
2.96606e-05
3.1709303e-05
3.3709381e-05
3.566076e-05
3.7563327e-05
3.9417288e-05
4.1223211e-05
4.298178e-05
4.4693725e-05
4.6359833e-05
4.7980927e-05
4.955784e-05
5.109141e-05
5.258248e-05
5.4031888e-05
5.5440466e-05
5.6809042e-05
5.8138438e-05
5.9429469e-05
6.0682943e-05
6.1899662e-05
6.3080425e-05
6.4226013e-05
6.533724e-05
6.6414805e-05
6.7459699e-05
6.8471992e-05
6.9454947e-05
7.0399243e-05
7.1347913e-05
7.2122967e-05
7.3480649e-05
0.00030535145
0.00030495608
0.00030412141
0.00030251567
0.0002998635
0.0002960329
0.00029104234
0.00028501641
0.00027813095
0.00027057209
0.00026251364
0.00025410818
0.00024548563
0.00023675505
0.00022800717
0.00021931693
0.00021074557
0.0002023425
0.00019414694
0.00018618926
0.00017849213
0.00017107167
0.00016393844
0.00015709823
0.00015055261
0.00014429951
0.00013833364
0.00013264669
0.00012722754
0.00012206263
0.00011713643
0.0001124317
0.00010792941
0.00010360918
9.9449033e-05
9.5427619e-05
9.1520374e-05
8.7700419e-05
8.3941298e-05
8.0218284e-05
7.6508068e-05
7.2790417e-05
6.9041089e-05
6.5244882e-05
6.1383248e-05
5.7466811e-05
5.3487247e-05
4.9413023e-05
4.5302079e-05
4.1126924e-05
3.6938096e-05
3.2782541e-05
2.8712407e-05
2.4793945e-05
2.1080236e-05
1.7691225e-05
1.4734491e-05
1.2314791e-05
1.0483337e-05
9.4837315e-06
9.1868524e-06
9.6620992e-06
1.0798658e-05
1.2469954e-05
1.453132e-05
1.6820788e-05
1.9209576e-05
2.1624803e-05
2.4037053e-05
2.643407e-05
2.8805127e-05
3.1140189e-05
3.3432891e-05
3.5680158e-05
3.7880209e-05
4.0031782e-05
4.2134218e-05
4.4187349e-05
4.6191268e-05
4.8146246e-05
5.0052704e-05
5.1911164e-05
5.372222e-05
5.5486518e-05
5.7204744e-05
5.8877611e-05
6.0505856e-05
6.2090232e-05
6.3631503e-05
6.513045e-05
6.6587845e-05
6.8004505e-05
6.9381146e-05
7.0718796e-05
7.2017481e-05
7.328094e-05
7.4497826e-05
7.5721104e-05
7.6727026e-05
7.8485848e-05
0.00030716175
0.00030691657
0.00030652025
0.00030580957
0.0003045885
0.00030268393
0.00029998574
0.00029645844
0.00029212998
0.00028707105
0.00028137521
0.00027514422
0.00026847912
0.00026147538
0.00025422068
0.0002467941
0.00023926593
0.00023169792
0.00022414366
0.00021664914
0.00020925318
0.00020198813
0.00019488047
0.00018795136
0.00018121707
0.00017468946
0.00016837636
0.00016228184
0.00015640649
0.00015074762
0.0001452997
0.00014005476
0.00013500247
0.00013013058
0.00012542482
0.00012086995
0.00011644874
0.00011214151
0.00010792692
0.00010378316
9.9688261e-05
9.5621739e-05
9.1561354e-05
8.7487348e-05
8.3379436e-05
7.9227606e-05
7.5023909e-05
7.0745012e-05
6.6399502e-05
6.1979994e-05
5.7485011e-05
5.2948647e-05
4.8335384e-05
4.3703665e-05
3.9080404e-05
3.4515471e-05
3.0080103e-05
2.5856303e-05
2.1899901e-05
1.8385671e-05
1.5404193e-05
1.3025962e-05
1.1476742e-05
1.074051e-05
1.0842854e-05
1.170991e-05
1.3219635e-05
1.5227124e-05
1.7554148e-05
2.0050081e-05
2.2620518e-05
2.521899e-05
2.7821912e-05
3.0411989e-05
3.2975357e-05
3.5502859e-05
3.7989046e-05
4.0430292e-05
4.2824051e-05
4.5168697e-05
4.7463272e-05
4.9707246e-05
5.1900402e-05
5.4042768e-05
5.6134541e-05
5.8176056e-05
6.0167744e-05
6.2110121e-05
6.4003762e-05
6.5849294e-05
6.7647375e-05
6.939873e-05
7.1104008e-05
7.2764201e-05
7.437923e-05
7.5953271e-05
7.7472803e-05
7.9001346e-05
8.0265549e-05
8.2472489e-05
0.00030915053
0.00030894462
0.00030868908
0.00030831888
0.00030773141
0.00030680534
0.00030542544
0.00030350329
0.00030098735
0.00029786285
0.00029414543
0.00028987258
0.00028509574
0.00027987404
0.00027426991
0.000268346
0.00026216325
0.0002557795
0.00024924873
0.00024262055
0.00023593988
0.00022924694
0.00022257727
0.0002159619
0.00020942744
0.0002029963
0.00019668687
0.0001905137
0.00018448768
0.00017861616
0.00017290326
0.00016735019
0.00016195547
0.0001567152
0.00015162326
0.00014667166
0.00014185049
0.00013714753
0.00013254824
0.0001280364
0.00012359446
0.00011920471
0.0001148483
0.00011050641
0.00010615969
0.00010179205
9.7391164e-05
9.2939009e-05
8.842661e-05
8.3844423e-05
7.9184408e-05
7.4455344e-05
6.9642487e-05
6.4749395e-05
5.9804277e-05
5.4802989e-05
4.9762407e-05
4.4723334e-05
3.9718881e-05
3.4829844e-05
3.0151702e-05
2.5733188e-05
2.1734672e-05
1.8286183e-05
1.5474402e-05
1.35155e-05
1.2441265e-05
1.227385e-05
1.2946347e-05
1.4356564e-05
1.6348226e-05
1.8728959e-05
2.1334741e-05
2.4057605e-05
2.6838244e-05
2.9642785e-05
3.2447275e-05
3.5234013e-05
3.7991197e-05
4.0711149e-05
4.3388522e-05
4.601955e-05
4.860167e-05
5.1133152e-05
5.3612856e-05
5.6040084e-05
5.8414466e-05
6.0735883e-05
6.3004406e-05
6.5220259e-05
6.7383775e-05
6.9495413e-05
7.1555617e-05
7.3565215e-05
7.5523926e-05
7.7436286e-05
7.9286439e-05
8.1148986e-05
8.269739e-05
8.5397297e-05
0.00031134429
0.00031114651
0.00031093084
0.00031067628
0.00031033871
0.00030985315
0.00030914187
0.000308126
0.00030673672
0.00030492262
0.00030265267
0.00029991553
0.00029671678
0.00029307531
0.00028901983
0.00028458585
0.00027981318
0.00027474393
0.00026942102
0.00026388696
0.00025818298
0.00025234831
0.00024641978
0.0002404315
0.00023441456
0.00022839695
0.00022240344
0.0002164556
0.00021057173
0.0002047669
0.00019905309
0.00019343934
0.00018793195
0.00018253471
0.00017724902
0.00017207413
0.00016700721
0.00016204316
0.00015717449
0.0001523915
0.0001476825
0.00014303453
0.00013843324
0.00013386332
0.00012930842
0.00012475256
0.00012018176
0.00011558033
0.0001109349
0.00010623324
0.00010146365
9.6622452e-05
9.1699522e-05
8.6688244e-05
8.1595429e-05
7.6417594e-05
7.1162332e-05
6.5827524e-05
6.0436028e-05
5.502568e-05
4.9603951e-05
4.4208406e-05
3.891293e-05
3.3818881e-05
2.9002266e-05
2.4617398e-05
2.0808105e-05
1.7670689e-05
1.5445726e-05
1.4150762e-05
1.3831936e-05
1.4413744e-05
1.5817973e-05
1.7860008e-05
2.0335861e-05
2.3074927e-05
2.5962858e-05
2.8932296e-05
3.1941551e-05
3.4961324e-05
3.7970857e-05
4.0956147e-05
4.3907612e-05
4.6818441e-05
4.96838e-05
5.2500273e-05
5.5265445e-05
5.797763e-05
6.0635689e-05
6.3238894e-05
6.5786826e-05
6.8279338e-05
7.0716394e-05
7.3098435e-05
7.5424796e-05
7.7700231e-05
7.9906352e-05
8.212927e-05
8.3985858e-05
8.7220961e-05
0.00031375077
0.0003135535
0.00031334715
0.00031312734
0.00031287792
0.00031256987
0.00031216153
0.00031160196
0.00031083652
0.00030981288
0.00030848606
0.00030682156
0.0003047967
0.00030240039
0.00029963206
0.0002965001
0.00029302023
0.00028921385
0.00028510659
0.000280727
0.00027610543
0.00027127308
0.00026626127
0.00026110077
0.00025582125
0.00025045093
0.00024501617
0.00023954123
0.00023404812
0.00022855635
0.00022308295
0.00021764246
0.00021224698
0.0002069063
0.00020162802
0.00019641757
0.00019127834
0.00018621156
0.00018121618
0.00017628886
0.00017142402
0.00016661423
0.00016185033
0.00015712166
0.00015241607
0.00014772051
0.00014302221
0.00013830765
0.00013356359
0.00012877728
0.00012393602
0.00011903086
0.00011405172
0.00010898867
0.00010383758
9.8593857e-05
9.3256481e-05
8.7821578e-05
8.2281249e-05
7.6679699e-05
7.098326e-05
6.5228772e-05
5.943922e-05
5.3654733e-05
4.7892932e-05
4.2234124e-05
3.6784297e-05
3.1630199e-05
2.6949173e-05
2.2874808e-05
1.9528062e-05
1.718213e-05
1.5802293e-05
1.5452773e-05
1.6086116e-05
1.758859e-05
1.9756696e-05
2.2379754e-05
2.5286507e-05
2.8361824e-05
3.1534337e-05
3.4757291e-05
3.7997918e-05
4.1233468e-05
4.4448334e-05
4.7631526e-05
5.0775165e-05
5.3873585e-05
5.6922685e-05
5.9919498e-05
6.2861886e-05
6.5748361e-05
6.8577842e-05
7.1349934e-05
7.406324e-05
7.6722459e-05
7.930637e-05
8.1912919e-05
8.4099108e-05
8.7908263e-05
0.00031637367
0.00031617541
0.00031597022
0.00031575914
0.00031553724
0.0003152933
0.00031500835
0.0003146554
0.00031420063
0.00031360599
0.00031283243
0.00031184315
0.00031060604
0.00030909543
0.00030729287
0.00030518732
0.00030277472
0.00030005742
0.00029704329
0.00029374487
0.00029017848
0.00028636337
0.00028232089
0.00027807385
0.00027364585
0.00026906069
0.0002643419
0.00025951233
0.00025459375
0.0002496066
0.0002445697
0.00023950019
0.00023441343
0.00022932294
0.00022424049
0.00021917601
0.00021413766
0.00020913166
0.00020416224
0.00019923152
0.00019433946
0.000189484
0.00018466117
0.00017986526
0.00017508878
0.00017032278
0.00016555747
0.00016078221
0.00015598578
0.00015115673
0.00014628324
0.00014135488
0.00013636133
0.00013129201
0.00012613857
0.00012089367
0.00011555168
0.0001101069
0.00010454913
9.8893418e-05
9.3127244e-05
8.7257241e-05
8.128828e-05
7.5243046e-05
6.9132642e-05
6.2978604e-05
5.6845418e-05
5.0744295e-05
4.4762754e-05
3.9009076e-05
3.3577568e-05
2.8693382e-05
2.4450017e-05
2.1054441e-05
1.8677932e-05
1.7366164e-05
1.7139804e-05
1.7966174e-05
1.9677238e-05
2.205321e-05
2.4881447e-05
2.7996295e-05
3.1286712e-05
3.4680852e-05
3.812989e-05
4.1599769e-05
4.5066906e-05
4.8514798e-05
5.1931637e-05
5.5308887e-05
5.8640322e-05
6.1921385e-05
6.5148673e-05
6.8320001e-05
7.1432504e-05
7.4490279e-05
7.7468752e-05
8.0477852e-05
8.3011485e-05
8.7428979e-05
0.00031921627
0.00031901685
0.00031881095
0.00031860115
0.00031838642
0.00031816292
0.00031792308
0.00031765454
0.00031733964
0.00031695576
0.00031647639
0.0003158729
0.00031511633
0.00031417927
0.00031303729
0.00031166999
0.00031006163
0.0003082014
0.00030608339
0.00030370635
0.00030107326
0.00029819091
0.0002950693
0.00029172112
0.0002881612
0.00028440595
0.00028047289
0.00027638013
0.00027214598
0.00026778855
0.00026332541
0.00025877339
0.00025414838
0.00024946515
0.00024473733
0.0002399773
0.00023519606
0.00023040316
0.00022560656
0.00022081245
0.00021602517
0.0002112472
0.00020647918
0.00020171995
0.00019696654
0.00019221429
0.00018745718
0.00018268795
0.00017789837
0.0001730794
0.00016822122
0.00016331418
0.00015834858
0.00015331439
0.00014820219
0.0001430033
0.00013770994
0.00013231491
0.00012680789
0.0001211897
0.00011545332
0.00010959703
0.00010361824
9.7515619e-05
9.1313128e-05
8.4992148e-05
7.8599507e-05
7.2137543e-05
6.5637545e-05
5.916071e-05
5.2744601e-05
4.6484813e-05
4.0473193e-05
3.4857722e-05
2.9835619e-05
2.5546221e-05
2.2251114e-05
1.9999702e-05
1.8899297e-05
1.8973782e-05
2.0121517e-05
2.2140045e-05
2.479683e-05
2.7883467e-05
3.124528e-05
3.4778464e-05
3.8413398e-05
4.2101929e-05
4.5810563e-05
4.9515885e-05
5.3201228e-05
5.6854558e-05
6.0467039e-05
6.4032459e-05
6.754485e-05
7.1006518e-05
7.4388515e-05
7.7812571e-05
8.0706241e-05
8.5759766e-05
0.00032228208
0.00032208155
0.00032187459
0.00032166419
0.0003214505
0.00032123235
0.00032100699
0.00032076936
0.0003205114
0.0003202215
0.00031988445
0.00031948187
0.000318993
0.00031839574
0.00031766784
0.00031678798
0.00031573671
0.00031449716
0.00031305558
0.00031140162
0.00030952841
0.00030743255
0.00030511393
0.00030257546
0.00029982279
0.00029686388
0.00029370869
0.00029036872
0.00028685665
0.00028318594
0.00027937052
0.00027542446
0.00027136176
0.00026719613
0.00026294082
0.00025860848
0.00025421102
0.00024975943
0.00024526362
0.00024073223
0.00023617251
0.0002315902
0.00022698947
0.00022237287
0.00021774129
0.00021309395
0.00020842854
0.00020374135
0.00019902737
0.00019428053
0.00018949365
0.000184659
0.00017976843
0.00017481325
0.00016978463
0.00016467389
0.00015947269
0.00015417317
0.00014876558
0.00014324474
0.00013760376
0.00013183706
0.00012593926
0.0001199049
0.00011374214
0.00010742863
0.00010100925
9.44565e-05
8.779177e-05
8.1044083e-05
7.4233398e-05
6.7402575e-05
6.0600512e-05
5.390709e-05
4.7397309e-05
4.1187589e-05
3.5483375e-05
3.0435628e-05
2.6278463e-05
2.3167128e-05
2.1221748e-05
2.0530178e-05
2.1060051e-05
2.2645774e-05
2.5056063e-05
2.8053717e-05
3.1443318e-05
3.5085468e-05
3.8885537e-05
4.2778473e-05
4.6719016e-05
5.0675534e-05
5.4625559e-05
5.8553216e-05
6.244547e-05
6.6300073e-05
7.0081527e-05
7.3922418e-05
7.7180469e-05
8.2887603e-05
0.00032557487
0.00032537325
0.00032516519
0.00032495378
0.00032473949
0.00032452198
0.00032430029
0.00032407249
0.00032383524
0.00032358324
0.00032330883
0.00032300178
0.00032264941
0.00032223683
0.00032174755
0.00032116414
0.00032046895
0.00031964485
0.00031867585
0.00031754769
0.00031624816
0.00031476748
0.00031309837
0.00031123617
0.00030917875
0.0003069264
0.00030448165
0.00030184902
0.00029903475
0.00029604653
0.00029289319
0.00028958447
0.00028613072
0.00028254274
0.00027883156
0.00027500825
0.00027108378
0.00026706878
0.00026297338
0.00025880701
0.00025457823
0.00025029456
0.00024596237
0.00024158677
0.00023717147
0.00023271876
0.00022822948
0.00022370307
0.00021913763
0.00021453002
0.00020987589
0.00020516995
0.00020040612
0.0001955776
0.000190677
0.00018569663
0.00018062869
0.00017546546
0.00017019809
0.00016481933
0.00015932175
0.00015369823
0.00014794188
0.00014204501
0.00013600752
0.00012981522
0.00012348208
0.00011699728
0.00011036149
0.00010358805
9.6685888e-05
8.967364e-05
8.2573339e-05
7.5426745e-05
6.8273434e-05
6.1167267e-05
5.4227783e-05
4.7525525e-05
4.1229053e-05
3.5513454e-05
3.0603577e-05
2.6706262e-05
2.3967863e-05
2.2533674e-05
2.243217e-05
2.3545305e-05
2.5658612e-05
2.8520402e-05
3.1901614e-05
3.5627291e-05
3.9575131e-05
4.3660829e-05
4.7825721e-05
5.2029118e-05
5.6240669e-05
6.0446663e-05
6.459998e-05
6.8841237e-05
7.2454151e-05
7.8815909e-05
0.00032909858
0.00032889588
0.0003286867
0.0003284742
0.00032825891
0.00032804073
0.00032781926
0.00032759376
0.00032736291
0.00032712446
0.00032687493
0.00032660924
0.00032632055
0.00032600012
0.00032563742
0.00032522035
0.00032473559
0.0003241691
0.00032350652
0.00032273375
0.00032183737
0.00032080507
0.00031962596
0.00031829082
0.00031679231
0.00031512503
0.00031328552
0.00031127227
0.00030908554
0.00030672728
0.0003042009
0.00030151115
0.00029866386
0.00029566584
0.00029252464
0.00028924841
0.00028584573
0.00028232541
0.0002786963
0.00027496712
0.00027114621
0.00026724145
0.00026325999
0.00025920819
0.00025509143
0.00025091398
0.00024667893
0.00024238816
0.00023804233
0.00023364088
0.00022918204
0.00022466296
0.00022007983
0.00021542793
0.00021070175
0.00020589513
0.00020100146
0.00019601386
0.00019092464
0.00018572637
0.00018041155
0.00017497268
0.00016940229
0.00016369203
0.00015783749
0.00015182772
0.00014566325
0.00013933746
0.00013284636
0.00012618909
0.00011936717
0.00011238927
0.00010526162
9.8004971e-05
9.0637718e-05
8.3184527e-05
7.5706085e-05
6.8246594e-05
6.0890352e-05
5.374805e-05
4.6941795e-05
4.064909e-05
3.5079257e-05
3.0465426e-05
2.7001054e-05
2.4873975e-05
2.4160153e-05
2.4792927e-05
2.6584963e-05
2.9281992e-05
3.2629787e-05
3.642069e-05
4.0503943e-05
4.4774811e-05
4.915857e-05
5.3611907e-05
5.8063434e-05
6.2654032e-05
6.6587294e-05
7.3575652e-05
0.00033285728
0.00033265348
0.0003324432
0.00033222958
0.0003320132
0.00033179399
0.00033157175
0.00033134612
0.00033111652
0.00033088202
0.00033064112
0.00033039151
0.00033012983
0.00032985149
0.00032955054
0.00032921958
0.00032884988
0.00032843149
0.0003279535
0.00032740435
0.00032677217
0.0003260451
0.00032521168
0.00032426116
0.00032318373
0.00032197077
0.00032061503
0.00031911068
0.00031745342
0.00031564043
0.00031367035
0.0003115432
0.00030926029
0.00030682413
0.0003042383
0.00030150731
0.0002986365
0.00029563187
0.00029249989
0.00028924737
0.00028588126
0.00028240846
0.00027883571
0.00027516933
0.00027141516
0.00026757832
0.00026366312
0.00025967296
0.00025561025
0.00025147636
0.00024727161
0.00024299524
0.00023864552
0.00023421975
0.00022971433
0.00022512485
0.00022044622
0.00021567283
0.00021079832
0.00020581601
0.00020071893
0.00019549988
0.0001901515
0.00018466562
0.00017903587
0.00017325282
0.00016731144
0.00016120507
0.00015492711
0.00014847229
0.0001418381
0.00013502266
0.00012802355
0.000120855
0.00011351643
0.00010602304
9.8398558e-05
9.0670051e-05
8.2877715e-05
7.5083103e-05
6.7355467e-05
5.9794073e-05
5.2532789e-05
4.5731084e-05
3.9583896e-05
3.4328182e-05
3.0209778e-05
2.7447163e-05
2.6160407e-05
2.6330854e-05
2.7802115e-05
3.0325211e-05
3.3628313e-05
3.7475763e-05
4.1687625e-05
4.6146485e-05
5.0725065e-05
5.5543531e-05
5.9714181e-05
6.7246494e-05
0.00033685519
0.00033665028
0.00033643886
0.00033622412
0.00033600661
0.0003357863
0.00033556302
0.00033533652
0.00033510649
0.00033487249
0.00033463385
0.00033438955
0.00033413804
0.00033387711
0.0003336037
0.00033331377
0.00033300217
0.00033266269
0.00033228802
0.00033186989
0.00033139924
0.00033086639
0.00033026135
0.00032957401
0.00032879445
0.00032791315
0.00032692124
0.00032581066
0.00032457432
0.00032320619
0.0003217014
0.00032005625
0.00031826821
0.00031633592
0.00031425917
0.00031203879
0.00030967664
0.00030717546
0.00030453878
0.00030177077
0.00029887613
0.00029585989
0.00029272731
0.00028948371
0.00028613428
0.00028268394
0.00027913719
0.00027549797
0.00027176957
0.00026795449
0.0002640544
0.0002600701
0.00025600148
0.00025184753
0.00024760636
0.00024327524
0.00023885062
0.00023432833
0.0002297034
0.00022497032
0.00022012305
0.00021515513
0.0002100598
0.0002048295
0.0001994573
0.00019393474
0.00018825476
0.00018241006
0.00017639301
0.00017019626
0.00016381381
0.00015724042
0.00015047107
0.00014350638
0.00013633989
0.00012898787
0.00012144346
0.00011372804
0.00010585608
9.7859171e-05
8.9775137e-05
8.1656247e-05
7.3577305e-05
6.5632542e-05
5.7941822e-05
5.0663304e-05
4.3994755e-05
3.8179637e-05
3.3484766e-05
3.0154929e-05
2.8351093e-05
2.809819e-05
2.9270931e-05
3.1630407e-05
3.4891122e-05
3.8803007e-05
4.3120268e-05
4.7891328e-05
5.2116225e-05
5.9999058e-05
0.00034109664
0.0003408906
0.00034067803
0.00034046213
0.00034024347
0.00034002203
0.00033979763
0.00033957006
0.0003393391
0.00033910446