/*--------------------------------*- C++ -*----------------------------------*\
  =========                 |
  \\      /  F ield         | OpenFOAM: The Open Source CFD Toolbox
   \\    /   O peration     | Website:  https://openfoam.org
    \\  /    A nd           | Version:  12
     \\/     M anipulation  |
\*---------------------------------------------------------------------------*/
FoamFile
{
    format      ascii;
    class       volVectorField;
    location    "2000";
    object      U;
}
// * * * * * * * * * * * * * * * * * * * * * * * * * * * * * * * * * * * * * //

dimensions      [0 1 -1 0 0 0 0];

internalField   nonuniform List<vector> 
7480
(
(0.99634013 0.0003147515 0)
(0.99395316 0.00034293518 -8.7802605e-21)
(0.99091334 0.00051232608 0)
(0.98718724 0.00068582059 0)
(0.9826938 0.00086893937 0)
(0.97736279 0.0010002642 -1.5862479e-17)
(0.97109473 0.001082412 -2.9191515e-19)
(0.96386428 0.0013122853 0)
(0.95561799 0.001555284 0)
(0.94633757 0.0017896785 0)
(0.93605828 0.0020085786 0)
(0.92485451 0.0022029025 0)
(0.91283229 0.0023638157 0)
(0.90012699 0.0024787393 0)
(0.88688753 0.0025659495 0)
(0.87326963 0.0025655572 0)
(0.85944374 0.0025403622 0)
(0.84552439 0.0024672697 0)
(0.83169088 0.0023499564 0)
(0.81805947 0.0022004167 0)
(0.80475308 0.0020205435 0)
(0.79190692 0.0018144393 0)
(0.77967787 0.0015934597 0)
(0.76819415 0.0013682668 0)
(0.75755709 0.0011446372 0)
(0.74784641 0.00092854954 0)
(0.73911146 0.00072474615 0)
(0.73137333 0.00053995091 0)
(0.72461777 0.00038142799 0)
(0.71877596 0.0002555276 0)
(0.71372722 0.00016767649 0)
(0.70931853 0.00011747238 0)
(0.70538188 9.8611014e-05 0)
(0.70176008 0.00010130226 0)
(0.69833401 0.00011439005 0)
(0.6950305 0.0001285052 0)
(0.69181385 0.00013794776 0)
(0.68867108 0.00014076892 0)
(0.68559555 0.00013864645 0)
(0.68257601 0.00013464923 0)
(0.67959645 0.00013117438 0)
(0.6766419 0.0001290647 0)
(0.67370541 0.00012779054 0)
(0.67079025 0.00012645841 0)
(0.66790493 0.0001245127 0)
(0.66505668 0.00012183642 0)
(0.66224847 0.0001186191 0)
(0.6594804 0.00011511548 0)
(0.65675218 0.00011150993 0)
(0.654064 0.00010785408 0)
(0.65141632 0.00010415577 0)
(0.64880961 0.0001004303 0)
(0.64624407 9.6734033e-05 0)
(0.64371911 9.3132293e-05 0)
(0.64123373 8.9632882e-05 0)
(0.63878743 8.6223838e-05 0)
(0.6363799 8.291882e-05 0)
(0.63401024 7.9735648e-05 0)
(0.63167743 7.6660867e-05 0)
(0.62938098 7.3687555e-05 0)
(0.62712001 7.0841249e-05 0)
(0.62489326 6.8113165e-05 0)
(0.62269985 6.5492387e-05 0)
(0.62053892 6.2985568e-05 0)
(0.61840944 6.0578495e-05 0)
(0.61631069 5.8263057e-05 0)
(0.61424186 5.604549e-05 0)
(0.61220201 5.3917015e-05 0)
(0.61019038 5.1872758e-05 0)
(0.60820618 4.9915189e-05 0)
(0.60624853 4.8037457e-05 0)
(0.60431665 4.6237402e-05 0)
(0.60240974 4.4511751e-05 0)
(0.60052707 4.2856126e-05 0)
(0.59866791 4.126839e-05 0)
(0.59683154 3.9744236e-05 0)
(0.59501731 3.8281257e-05 0)
(0.59322457 3.6876968e-05 0)
(0.59145269 3.552878e-05 0)
(0.58970105 3.4234226e-05 0)
(0.58796906 3.2990959e-05 0)
(0.58625615 3.1796791e-05 0)
(0.58456177 3.0649669e-05 0)
(0.58288536 2.9547674e-05 0)
(0.5812264 2.848898e-05 0)
(0.57958436 2.747195e-05 0)
(0.57795871 2.649495e-05 0)
(0.57634892 2.5556862e-05 0)
(0.57475449 2.4656137e-05 0)
(0.57317471 2.3793117e-05 0)
(0.57160928 2.2964576e-05 0)
(0.57005672 2.2177395e-05 0)
(0.56851794 2.1418883e-05 0)
(0.56698745 2.0727754e-05 0)
(0.56547319 2.0030937e-05 0)
(0.56395008 1.956773e-05 0)
(0.56246055 1.8313757e-05 -1.2431803e-20)
(0.5608768 3.2043834e-05 8.4290892e-20)
(0.55957517 1.8255624e-05 -2.5540128e-19)
(0.55711449 3.375437e-05 -4.2722099e-18)
(0.99784823 0.00049203179 0)
(0.99774695 0.00072936219 0)
(0.99764628 0.00093134444 0)
(0.99749079 0.0010917093 -5.2325208e-19)
(0.99728172 0.0012416449 0)
(0.9970245 0.0013950718 0)
(0.99670269 0.00157701 0)
(0.99627733 0.0017691408 0)
(0.99569916 0.0019218087 0)
(0.99491348 0.0020457984 0)
(0.9938551 0.0021459283 0)
(0.99245085 0.0022203366 0)
(0.99062598 0.0022681195 0)
(0.98830822 0.0022928196 0)
(0.98543485 0.0022900342 0)
(0.98195146 0.0022781096 0)
(0.977822 0.0022515027 0)
(0.9730086 0.0022140138 0)
(0.96750972 0.0021686824 0)
(0.96131317 0.0021204959 0)
(0.95442117 0.0020706251 0)
(0.9468279 0.002012245 0)
(0.93857219 0.0019328918 0)
(0.92975495 0.001834408 0)
(0.92047374 0.0017243617 0)
(0.91084281 0.001603625 0)
(0.90100396 0.0014740697 0)
(0.89111061 0.0013364752 0)
(0.88132782 0.0011918316 0)
(0.87183071 0.0010417336 0)
(0.86281794 0.00089463256 0)
(0.85444593 0.00076104548 0)
(0.84678521 0.00064634457 0)
(0.83981837 0.00055523145 0)
(0.83347029 0.00048923635 0)
(0.82762983 0.00044653502 0)
(0.82217903 0.00042227102 0)
(0.81702345 0.00040921417 0)
(0.81210111 0.00040004257 0)
(0.80737707 0.00039000194 0)
(0.80283345 0.00037731729 0)
(0.79845771 0.00036215823 0)
(0.79423632 0.00034533246 0)
(0.79015326 0.00032804402 0)
(0.78619095 0.00031149193 0)
(0.78233266 0.00029629473 0)
(0.77856564 0.00028238802 0)
(0.77488308 0.00026941408 0)
(0.77128213 0.00025715737 0)
(0.76776037 0.00024549157 0)
(0.76431403 0.00023436377 0)
(0.76093885 0.00022373225 0)
(0.75763154 0.000213593 0)
(0.75438961 0.00020395475 0)
(0.75121078 0.00019475879 0)
(0.74809307 0.00018596251 0)
(0.74503462 0.00017757914 0)
(0.74203331 0.00016961361 0)
(0.73908708 0.00016202216 0)
(0.73619422 0.00015477813 0)
(0.7333531 0.00014790242 0)
(0.73056191 0.00014135575 0)
(0.72781922 0.00013511392 0)
(0.72512361 0.00012918701 0)
(0.72247343 0.00012354118 0)
(0.71986734 0.00011815796 0)
(0.71730398 0.00011304232 0)
(0.71478189 0.00010816905 0)
(0.71229981 0.00010352458 0)
(0.70985649 9.9107727e-05 0)
(0.70745062 9.4899833e-05 0)
(0.70508099 9.0892737e-05 0)
(0.70274642 8.7075818e-05 0)
(0.70044579 8.3437966e-05 0)
(0.69817799 7.9972085e-05 0)
(0.69594195 7.6666752e-05 0)
(0.69373666 7.3514461e-05 0)
(0.69156114 7.0507485e-05 0)
(0.68941445 6.7638284e-05 0)
(0.68729568 6.4899832e-05 0)
(0.68520394 6.2285488e-05 0)
(0.68313839 5.978906e-05 0)
(0.6810982 5.7404738e-05 0)
(0.67908257 5.5127108e-05 0)
(0.67709074 5.2951066e-05 0)
(0.67512192 5.0871956e-05 0)
(0.67317539 4.8885312e-05 0)
(0.67125037 4.6987558e-05 0)
(0.66934615 4.5174576e-05 0)
(0.66746184 4.34451e-05 0)
(0.66559692 4.1794011e-05 0)
(0.66374965 4.0228867e-05 0)
(0.66192078 3.8733803e-05 0)
(0.66010448 3.7357762e-05 0)
(0.65830863 3.6014711e-05 0)
(0.65650727 3.4974891e-05 0)
(0.65474377 3.3854251e-05 1.261561e-20)
(0.65288367 3.5181462e-05 0)
(0.65132883 3.0127584e-05 0)
(0.6484679 3.900138e-05 0)
(0.99791815 0.00049614219 0)
(0.99788751 0.00069640185 0)
(0.99787958 0.00085033863 0)
(0.99785658 0.00098980361 0)
(0.99782623 0.0011436447 0)
(0.99780398 0.001317867 0)
(0.99779528 0.0015037363 0)
(0.99779983 0.0016898651 0)
(0.99782118 0.0018801009 0)
(0.99786192 0.0020795339 0)
(0.99791925 0.0022824147 0)
(0.99798776 0.0024798262 0)
(0.99805948 0.0026648385 0)
(0.9981236 0.0028313874 0)
(0.99816814 0.0029770397 0)
(0.99817778 0.0030979835 0)
(0.99813499 0.0031929254 0)
(0.99802222 0.0032604275 0)
(0.99781561 0.0033008773 0)
(0.99748733 0.0033112268 0)
(0.99700395 0.0032971109 0)
(0.9963269 0.003255892 0)
(0.99535893 0.0031896499 0)
(0.99396845 0.0031001227 0)
(0.99204434 0.0029882767 0)
(0.98947246 0.002856913 0)
(0.98613078 0.0027095351 0)
(0.98190097 0.002550939 0)
(0.97667654 0.0023877822 0)
(0.97038105 0.0022278023 0)
(0.96297278 0.0020623246 0)
(0.95460088 0.0018896635 0)
(0.94549127 0.0017223549 0)
(0.93596841 0.0015618936 0)
(0.9263832 0.0014077131 0)
(0.91706179 0.0012579256 0)
(0.90826849 0.0011157191 0)
(0.90016746 0.00099006973 0)
(0.8927753 0.00088677048 0)
(0.88600888 0.00080716182 0)
(0.87974448 0.00074943756 0)
(0.87385944 0.00070890455 0)
(0.86826428 0.00067852198 0)
(0.86290694 0.00065164428 0)
(0.85776092 0.00062429211 0)
(0.8528106 0.0005956748 0)
(0.84804163 0.00056642775 0)
(0.84343854 0.00053748855 0)
(0.83898499 0.00050984739 0)
(0.83466508 0.00048401575 0)
(0.83046534 0.0004599687 0)
(0.82637609 0.00043739886 0)
(0.82239097 0.00041610503 0)
(0.81850465 0.00039601903 0)
(0.81471142 0.00037701693 0)
(0.81100589 0.00035900013 0)
(0.80738355 0.00034194185 0)
(0.80384046 0.00032580212 0)
(0.80037308 0.00031048461 0)
(0.79697828 0.00029593585 0)
(0.79365305 0.00028217205 0)
(0.79039443 0.00026911189 0)
(0.78719998 0.00025670108 0)
(0.78406741 0.00024494177 0)
(0.78099427 0.00023377286 0)
(0.77797847 0.00022315579 0)
(0.77501799 0.0002130872 0)
(0.77211078 0.00020352027 0)
(0.769255 0.00019442577 0)
(0.7664489 0.00018579345 0)
(0.7636907 0.00017758833 0)
(0.76097875 0.00016979103 0)
(0.75831146 0.0001623789 0)
(0.75568732 0.00015532936 0)
(0.75310485 0.00014862622 0)
(0.75056261 0.00014224717 0)
(0.74805927 0.00013617582 0)
(0.74559353 0.00013039586 0)
(0.74316412 0.00012489165 0)
(0.74076984 0.00011964858 0)
(0.73840955 0.00011465286 0)
(0.73608211 0.00010989163 0)
(0.73378645 0.00010535285 0)
(0.73152153 0.00010102526 0)
(0.72928633 9.6898327e-05 0)
(0.72707986 9.296232e-05 0)
(0.72490117 8.9208137e-05 0)
(0.72274928 8.5627881e-05 0)
(0.72062327 8.2213861e-05 0)
(0.71852205 7.8961012e-05 0)
(0.71644492 7.5863027e-05 0)
(0.71438995 7.2923293e-05 0)
(0.71235768 7.0133026e-05 0)
(0.71034215 6.7530866e-05 0)
(0.70835093 6.5068351e-05 0)
(0.70635803 6.2993108e-05 0)
(0.7044065 6.1074946e-05 8.8186723e-21)
(0.70235947 5.9798645e-05 0)
(0.70063415 5.8516563e-05 0)
(0.69750016 6.2217198e-05 -2.5369859e-20)
(0.99794908 0.00050807756 0)
(0.99792268 0.0006980687 0)
(0.99792163 0.0008598209 0)
(0.99791474 0.0010130615 0)
(0.99790524 0.001174464 0)
(0.99790488 0.0013460111 0)
(0.99791951 0.0015229028 0)
(0.99795131 0.0017047722 0)
(0.99800403 0.0018916414 0)
(0.9980798 0.0020756883 0)
(0.99817789 0.0022492328 0)
(0.99829662 0.0024061229 0)
(0.99843278 0.0025422088 0)
(0.99858164 0.0026547685 0)
(0.99873853 0.0027433348 0)
(0.99889812 0.0028057643 0)
(0.99905555 0.0028460584 0)
(0.9992081 0.0028657353 0)
(0.99935101 0.0028655727 0)
(0.99947931 0.0028527355 0)
(0.99959035 0.0028292259 0)
(0.99968152 0.002797171 0)
(0.9997477 0.0027577877 0)
(0.99978082 0.0027129927 0)
(0.99977108 0.0026653082 0)
(0.99970628 0.0026166898 0)
(0.99956924 0.0025691008 0)
(0.99933716 0.0025240876 0)
(0.99897801 0.0024820577 0)
(0.99844305 0.0024418286 0)
(0.99765257 0.0024024169 0)
(0.99640475 0.0023609637 0)
(0.99450991 0.0023115376 0)
(0.9917673 0.0022499206 0)
(0.98799602 0.0021743447 0)
(0.98306993 0.0020889785 0)
(0.97692982 0.0019900755 0)
(0.96970619 0.001871359 0)
(0.96169325 0.0017405276 0)
(0.95325625 0.0016054377 0)
(0.94476834 0.0014697135 0)
(0.93654713 0.0013370326 0)
(0.92881438 0.0012159293 0)
(0.92163904 0.0011125418 0)
(0.91497781 0.0010277626 0)
(0.90873409 0.00096038913 0)
(0.90281056 0.00090667208 0)
(0.89714074 0.00086105465 0)
(0.89168943 0.00081898766 0)
(0.88643933 0.00077830876 0)
(0.88137776 0.00073866425 0)
(0.87649098 0.00070035831 0)
(0.871764 0.00066396421 0)
(0.86718197 0.00062988092 0)
(0.86273196 0.00059800695 0)
(0.85840423 0.00056806002 0)
(0.8541915 0.00053988247 0)
(0.85008717 0.0005133584 0)
(0.84608479 0.00048832406 0)
(0.84217872 0.00046466828 0)
(0.83836393 0.00044236343 0)
(0.83463579 0.00042126499 0)
(0.8309904 0.00040127781 0)
(0.82742408 0.00038238444 0)
(0.82393324 0.00036448564 0)
(0.82051477 0.000347512 0)
(0.81716578 0.00033144288 0)
(0.8138834 0.00031620402 0)
(0.81066509 0.00030174422 0)
(0.80750841 0.00028803829 0)
(0.80441102 0.00027503094 0)
(0.80137071 0.00026268712 0)
(0.79838541 0.00025096855 0)
(0.79545314 0.00023983828 0)
(0.79257198 0.00022926802 0)
(0.78974011 0.00021922207 0)
(0.7869558 0.00020967253 0)
(0.78421739 0.0002005923 0)
(0.78152328 0.00019195558 0)
(0.77887194 0.00018373823 0)
(0.77626191 0.00017591755 0)
(0.77369178 0.00016847238 0)
(0.77116019 0.00016138289 0)
(0.76866582 0.00015463059 0)
(0.76620742 0.0001481982 0)
(0.76378375 0.00014206968 0)
(0.76139362 0.00013623024 0)
(0.75903584 0.00013066652 0)
(0.75670928 0.00012536651 0)
(0.75441262 0.00012032006 0)
(0.75214496 0.0001155202 0)
(0.74990423 0.0001109628 0)
(0.7476907 0.0001066518 0)
(0.74549836 0.00010260161 0)
(0.74333437 9.8833481e-05 0)
(0.74117304 9.549914e-05 0)
(0.73905662 9.2732961e-05 7.0839687e-21)
(0.73684731 8.9955322e-05 0)
(0.73497499 9.2480936e-05 0)
(0.73160402 8.9017721e-05 2.057698e-20)
(0.9979807 0.00052434013 0)
(0.99794806 0.00070295357 0)
(0.997943 0.00086314729 0)
(0.99793831 0.0010149827 0)
(0.99793439 0.0011721382 0)
(0.99794027 0.0013382247 0)
(0.99796114 0.0015110295 0)
(0.99799915 0.0016893491 0)
(0.99805723 0.0018705569 0)
(0.99813742 0.0020486854 0)
(0.9982396 0.0022194316 0)
(0.99836245 0.0023783547 0)
(0.99850317 0.002521425 0)
(0.99865763 0.0026455919 0)
(0.99882181 0.0027495395 0)
(0.99899079 0.0028315887 0)
(0.99916033 0.0028939802 0)
(0.99932783 0.0029364681 0)
(0.99948991 0.0029605972 0)
(0.99964344 0.002966943 0)
(0.99978713 0.0029597134 0)
(0.99992073 0.0029383274 0)
(1.0000424 0.0029034898 0)
(1.0001495 0.0028567452 0)
(1.0002405 0.0028006598 0)
(1.0003135 0.0027379192 0)
(1.0003664 0.0026708231 0)
(1.0003972 0.0026019567 0)
(1.0004039 0.002534398 0)
(1.0003851 0.0024716289 0)
(1.0003391 0.0024164255 0)
(1.0002594 0.0023704257 0)
(1.0001348 0.0023345665 0)
(0.9999457 0.0023081932 0)
(0.99966344 0.0022892264 0)
(0.9992385 0.0022727755 0)
(0.99859937 0.0022535127 0)
(0.99755936 0.0022272594 0)
(0.99588782 0.0021893491 0)
(0.99336608 0.0021368228 0)
(0.98981126 0.0020707006 0)
(0.9851133 0.0019919261 0)
(0.97929954 0.0018940733 0)
(0.97261458 0.0017801232 0)
(0.96538417 0.0016599154 0)
(0.95796042 0.0015371913 0)
(0.95065441 0.0014180271 0)
(0.94366802 0.0013099843 0)
(0.93706498 0.0012158752 0)
(0.93081797 0.0011361072 0)
(0.92486246 0.0010691166 0)
(0.91914265 0.0010112022 0)
(0.91362586 0.00095865842 0)
(0.90829633 0.00090925432 0)
(0.9031439 0.00086215289 0)
(0.89815795 0.00081725649 0)
(0.89332632 0.0007748736 0)
(0.8886366 0.00073515259 0)
(0.88407805 0.00069788913 0)
(0.87964249 0.00066284524 0)
(0.87532303 0.00062992179 0)
(0.87111312 0.0005988983 0)
(0.86700683 0.00056962214 0)
(0.86299876 0.00054203315 0)
(0.85908396 0.00051597111 0)
(0.85525815 0.00049132169 0)
(0.85151732 0.00046803576 0)
(0.84785763 0.00044600087 0)
(0.84427566 0.00042513397 0)
(0.84076822 0.00040538661 0)
(0.83733228 0.00038667669 0)
(0.833965 0.00036894747 0)
(0.83066372 0.00035213992 0)
(0.82742595 0.00033619812 0)
(0.82424929 0.0003210776 0)
(0.82113147 0.00030672575 0)
(0.81807034 0.0002930999 0)
(0.81506384 0.00028015921 0)
(0.81211001 0.00026786504 0)
(0.80920696 0.00025618126 0)
(0.80635291 0.000245074 0)
(0.80354613 0.00023451168 0)
(0.80078497 0.00022446478 0)
(0.79806782 0.00021490578 0)
(0.79539317 0.000205809 0)
(0.79275951 0.00019715061 0)
(0.79016542 0.00018890871 0)
(0.78760946 0.00018106316 0)
(0.7850903 0.00017359659 0)
(0.78260639 0.00016649253 0)
(0.78015663 0.00015974261 0)
(0.77773875 0.00015333329 0)
(0.77535281 0.00014728286 0)
(0.77299274 0.00014157531 0)
(0.77066524 0.00013631447 0)
(0.76834502 0.00013152175 0)
(0.76607351 0.00012782832 6.132023e-21)
(0.76371219 0.00012302148 4.1000322e-20)
(0.76170335 0.00013045371 0)
(0.75811202 0.00011739958 0)
(0.99801781 0.0005428934 0)
(0.99797687 0.00070972298 0)
(0.9979644 0.00086575585 0)
(0.99795768 0.001015834 0)
(0.99795517 0.001170845 0)
(0.9979633 0.0013340776 0)
(0.9979863 0.0015036998 0)
(0.99802609 0.0016780145 0)
(0.99808524 0.0018546248 0)
(0.99816561 0.0020288417 0)
(0.99826717 0.0021963589 0)
(0.99838859 0.0023524431 0)
(0.99852723 0.0024928482 0)
(0.99867931 0.0026144233 0)
(0.99884101 0.0027156558 0)
(0.99900805 0.0027950687 0)
(0.99917648 0.0028541162 0)
(0.99934365 0.0028930345 0)
(0.99950657 0.0029127049 0)
(0.99966233 0.0029160186 0)
(0.99980983 0.0029051562 0)
(0.99994875 0.0028811076 0)
(1.0000776 0.0028451105 0)
(1.0001943 0.0027991221 0)
(1.0002973 0.0027455067 0)
(1.000386 0.0026865241 0)
(1.00046 0.0026247374 0)
(1.0005191 0.0025626986 0)
(1.0005637 0.0025032947 0)
(1.0005947 0.0024497264 0)
(1.0006141 0.0024033135 0)
(1.0006234 0.0023643926 0)
(1.000624 0.0023328871 0)
(1.0006159 0.0023071074 0)
(1.0005975 0.0022844841 0)
(1.0005644 0.0022632696 0)
(1.000511 0.0022430185 0)
(1.000426 0.0022237789 0)
(1.0002888 0.002206074 0)
(1.000071 0.0021902689 0)
(0.99973043 0.0021755139 0)
(0.99920193 0.0021585607 0)
(0.99834923 0.0021364278 0)
(0.99694665 0.0021051878 0)
(0.99477992 0.0020608094 0)
(0.99166857 0.0020042639 0)
(0.9874937 0.0019315751 0)
(0.98232802 0.0018397238 0)
(0.97639525 0.0017365532 0)
(0.96999305 0.0016280059 0)
(0.96343239 0.0015190309 0)
(0.95696144 0.0014163344 0)
(0.95070736 0.0013234077 0)
(0.9446992 0.0012413813 0)
(0.93891307 0.0011697697 0)
(0.9333172 0.0011061923 0)
(0.92789158 0.0010480653 0)
(0.92262697 0.0009937108 0)
(0.91751764 0.00094228244 0)
(0.91255673 0.0008935965 0)
(0.9077354 0.00084781456 0)
(0.90304457 0.00080479807 0)
(0.89847677 0.00076432952 0)
(0.89402573 0.00072628627 0)
(0.88968559 0.00069043787 0)
(0.88545093 0.00065662 0)
(0.88131667 0.00062474451 0)
(0.87727808 0.00059464614 0)
(0.873331 0.00056619931 0)
(0.8694715 0.00053932383 0)
(0.86569585 0.00051390259 0)
(0.86200063 0.00048984985 0)
(0.85838261 0.00046707945 0)
(0.85483879 0.00044551108 0)
(0.85136627 0.00042507924 0)
(0.84796235 0.00040571014 0)
(0.84462445 0.00038734261 0)
(0.84135013 0.00036991869 0)
(0.83813707 0.00035338383 0)
(0.83498302 0.00033768715 0)
(0.83188587 0.00032278102 0)
(0.82884356 0.0003086211 0)
(0.82585416 0.000295166 0)
(0.82291578 0.00028237717 0)
(0.82002662 0.00027021871 0)
(0.81718493 0.00025865725 0)
(0.81438902 0.00024766223 0)
(0.81163724 0.00023720529 0)
(0.80892801 0.00022726237 0)
(0.80625958 0.00021780937 0)
(0.80363063 0.00020883562 0)
(0.80103871 0.00020031668 0)
(0.79848364 0.00019228529 0)
(0.79595929 0.00018469167 0)
(0.79347194 0.00017772834 0)
(0.79099664 0.00017126732 0)
(0.78857415 0.00016650738 0)
(0.78606496 0.00015914171 0)
(0.78392452 0.00017250746 5.6382514e-20)
(0.78012015 0.00014783544 0)
(0.99805885 0.00056307037 0)
(0.99801159 0.00071892478 0)
(0.99799125 0.00086978478 0)
(0.99798051 0.001017486 0)
(0.99797702 0.0011700297 0)
(0.99798515 0.0013299687 0)
(0.99800821 0.0014957904 0)
(0.99804795 0.001665856 0)
(0.99810655 0.0018379854 0)
(0.99818566 0.002007968 0)
(0.99828521 0.0021715231 0)
(0.99840396 0.0023241898 0)
(0.99853943 0.0024619942 0)
(0.99868812 0.0025819314 0)
(0.99884638 0.0026824342 0)
(0.99901019 0.0027621608 0)
(0.99917583 0.0028221273 0)
(0.99934063 0.0028627454 0)
(0.99950172 0.0028849834 0)
(0.99965641 0.0028908802 0)
(0.9998035 0.0028830596 0)
(0.99994253 0.0028624216 0)
(1.000072 0.0028299033 0)
(1.0001903 0.0027872821 0)
(1.0002961 0.0027368366 0)
(1.0003888 0.002680863 0)
(1.0004681 0.0026217724 0)
(1.0005342 0.0025621088 0)
(1.0005873 0.0025045147 0)
(1.0006291 0.0024516424 0)
(1.000662 0.0024050425 0)
(1.0006882 0.0023653659 0)
(1.0007102 0.00233286 0)
(1.0007298 0.0023063172 0)
(1.0007476 0.0022837287 0)
(1.000763 0.0022637481 0)
(1.0007748 0.0022453138 0)
(1.000781 0.0022275609 0)
(1.0007788 0.0022103981 0)
(1.0007645 0.0021937313 0)
(1.0007335 0.0021771415 0)
(1.0006793 0.0021606309 0)
(1.0005915 0.002144117 0)
(1.000447 0.0021274151 0)
(1.0002138 0.002110704 0)
(0.99984273 0.0020930591 0)
(0.99926257 0.0020730912 0)
(0.9983025 0.0020484476 0)
(0.99675951 0.0020148302 0)
(0.99444181 0.0019702429 0)
(0.99119576 0.0019116664 0)
(0.98699998 0.0018353451 0)
(0.98199996 0.0017459828 0)
(0.97643155 0.0016497444 0)
(0.97057329 0.0015518285 0)
(0.96466347 0.0014579002 0)
(0.95884419 0.0013705775 0)
(0.95316924 0.0012913808 0)
(0.94764256 0.0012202009 0)
(0.94225454 0.0011555275 0)
(0.93699948 0.001095698 0)
(0.93187637 0.0010395032 0)
(0.92688434 0.00098637259 0)
(0.92201972 0.0009362831 0)
(0.91727691 0.00088910017 0)
(0.91265057 0.00084464702 0)
(0.90813598 0.00080279633 0)
(0.90372864 0.00076332978 0)
(0.89942423 0.00072608262 0)
(0.89521857 0.00069094118 0)
(0.89110767 0.0006577468 0)
(0.8870878 0.00062637938 0)
(0.88315544 0.00059672095 0)
(0.87930723 0.00056866172 0)
(0.87553997 0.00054211023 0)
(0.87185063 0.00051696727 0)
(0.86823633 0.00049314935 0)
(0.86469432 0.00047057801 0)
(0.86122195 0.00044917973 0)
(0.85781673 0.00042888601 0)
(0.85447621 0.0004096329 0)
(0.85119811 0.00039136089 0)
(0.84798019 0.00037401451 0)
(0.84482032 0.0003575421 0)
(0.84171646 0.00034189566 0)
(0.8386666 0.00032703052 0)
(0.83566884 0.00031290583 0)
(0.83272128 0.00029948346 0)
(0.82982213 0.00028673128 0)
(0.82696946 0.00027461624 0)
(0.82416171 0.00026312426 0)
(0.82139628 0.00025221872 0)
(0.81867273 0.00024194634 0)
(0.81598487 0.00023222131 0)
(0.81333861 0.00022332838 0)
(0.81070927 0.00021497635 0)
(0.8081371 0.00020898413 0)
(0.80548125 0.00019867448 0)
(0.80321118 0.00021881112 5.2889311e-20)
(0.79919644 0.00018071893 0)
(0.99810176 0.00058428753 0)
(0.99805096 0.00073037232 0)
(0.99802416 0.00087566258 0)
(0.99800897 0.0010201842 0)
(0.99800321 0.0011696122 0)
(0.99800991 0.001325854 0)
(0.99803174 0.0014876491 0)
(0.99807023 0.0016534249 0)
(0.99812726 0.0018210634 0)
(0.9982042 0.0019867123 0)
(0.99830102 0.0021463037 0)
(0.99841651 0.0022956821 0)
(0.99854837 0.002431082 0)
(0.99869333 0.0025495708 0)
(0.99884788 0.0026494929 0)
(0.99900823 0.0027295563 0)
(0.9991708 0.0027904157 0)
(0.99933289 0.0028324912 0)
(0.99949173 0.0028566595 0)
(0.99964475 0.0028646982 0)
(0.99979065 0.0028590019 0)
(0.99992881 0.0028405043 0)
(1.0000578 0.0028102227 0)
(1.0001761 0.0027698944 0)
(1.0002825 0.0027217294 0)
(1.0003765 0.0026679759 0)
(1.0004578 0.002610973 0)
(1.0005265 0.0025531759 0)
(1.0005832 0.0024971749 0)
(1.0006294 0.0024455971 0)
(1.0006675 0.0024000333 0)
(1.0006999 0.002361233 0)
(1.0007289 0.0023293327 0)
(1.0007567 0.0023031824 0)
(1.0007845 0.0022810435 0)
(1.0008121 0.0022614642 0)
(1.0008391 0.0022432284 0)
(1.0008645 0.002225601 0)
(1.0008873 0.0022086022 0)
(1.0009068 0.0021921994 0)
(1.000922 0.0021763021 0)
(1.0009318 0.0021608734 0)
(1.0009345 0.0021454268 0)
(1.0009268 0.0021297398 0)
(1.0009038 0.0021139022 0)
(1.000859 0.0020980249 0)
(1.0007846 0.0020821069 0)
(1.0006629 0.002065753 0)
(1.0004646 0.0020487656 0)
(1.0001467 0.0020307913 0)
(0.99964654 0.0020110367 0)
(0.99883262 0.0019879943 0)
(0.99752016 0.001958225 0)
(0.99552858 0.0019192961 0)
(0.99269979 0.0018666097 0)
(0.98900628 0.001797558 0)
(0.98455254 0.0017173447 0)
(0.97953877 0.0016305423 0)
(0.97421053 0.0015424079 0)
(0.96877231 0.0014569887 0)
(0.96335173 0.0013763494 0)
(0.95800505 0.0013019131 0)
(0.95274918 0.0012335485 0)
(0.94758953 0.001170301 0)
(0.94253157 0.0011110617 0)
(0.93758045 0.0010551155 0)
(0.9327381 0.0010022718 0)
(0.92800336 0.00095236824 0)
(0.92337406 0.00090525644 0)
(0.91884778 0.00086080803 0)
(0.91442183 0.00081883305 0)
(0.91009334 0.00077918685 0)
(0.90585926 0.00074172463 0)
(0.9017166 0.0007063075 0)
(0.89766237 0.00067281722 0)
(0.89369362 0.00064112775 0)
(0.88980751 0.00061113133 0)
(0.88600125 0.00058272664 0)
(0.88227211 0.0005558189 0)
(0.87861746 0.00053031977 0)
(0.87503476 0.00050614685 0)
(0.87152154 0.00048322341 0)
(0.86807542 0.000461478 0)
(0.86469408 0.00044084404 0)
(0.86137529 0.00042125966 0)
(0.8581169 0.00040266728 0)
(0.85491679 0.00038501421 0)
(0.85177289 0.00036825109 0)
(0.84868323 0.00035233634 0)
(0.84564569 0.0003372267 0)
(0.84265853 0.0003229035 0)
(0.83971899 0.00030931678 0)
(0.83682644 0.00029652649 0)
(0.83397461 0.00028440912 0)
(0.83116906 0.00027334382 0)
(0.82838534 0.00026286484 0)
(0.82566333 0.00025546011 0)
(0.82286051 0.00024183915 -1.6794737e-20)
(0.82046121 0.00026951849 0)
(0.81623627 0.00021627037 -7.5000129e-21)
(0.99814505 0.00060589547 0)
(0.99809306 0.00074343409 0)
(0.99806187 0.00088315433 0)
(0.99804292 0.0010239687 0)
(0.99803459 0.0011698169 0)
(0.99803921 0.0013220888 0)
(0.99805901 0.0014796839 0)
(0.99809545 0.0016410637 0)
(0.99815013 0.0018041514 0)
(0.99822425 0.0019654219 0)
(0.99831776 0.0021210466 0)
(0.99842952 0.0022671214 0)
(0.99855739 0.0024000579 0)
(0.99869832 0.0025169954 0)
(0.99884894 0.0026162133 0)
(0.99900564 0.002696443 0)
(0.99916498 0.0027580492 0)
(0.99932422 0.0028014115 0)
(0.99948068 0.0028273144 0)
(0.99963185 0.0028373615 0)
(0.99977635 0.0028337034 0)
(0.9999134 0.0028173616 0)
(1.0000417 0.0027893875 0)
(1.0001596 0.00275146 0)
(1.0002661 0.0027057023 0)
(1.0003607 0.0026543022 0)
(1.000443 0.0025995409 0)
(1.0005132 0.0025438169 0)
(1.000572 0.0024896461 0)
(1.0006207 0.0024395438 0)
(1.0006617 0.0023950898 0)
(1.0006973 0.0023570185 0)
(1.0007298 0.0023254985 0)
(1.0007614 0.0022995407 0)
(1.0007933 0.0022774969 0)
(1.0008257 0.0022579596 0)
(1.0008583 0.0022398323 0)
(1.0008903 0.0022224238 0)
(1.0009213 0.002205707 0)
(1.0009509 0.0021896929 0)
(1.0009789 0.0021742682 0)
(1.001005 0.0021592635 0)
(1.0010287 0.0021442257 0)
(1.001049 0.0021289952 0)
(1.0010646 0.0021136799 0)
(1.0010741 0.0020984072 0)
(1.0010759 0.0020831158 0)
(1.0010672 0.0020676321 0)
(1.0010432 0.0020520905 0)
(1.0009971 0.002036631 0)
(1.0009202 0.0020212244 0)
(1.0007962 0.0020054194 0)
(1.0005953 0.0019886969 0)
(1.0002741 0.00197057 0)
(0.99976988 0.001950739 0)
(0.99894976 0.0019278499 0)
(0.99764825 0.0018986597 0)
(0.99569766 0.0018603626 0)
(0.99296389 0.0018080183 0)
(0.98944795 0.0017418832 0)
(0.98525007 0.0016669172 0)
(0.98056055 0.0015873624 0)
(0.97559035 0.0015073063 0)
(0.9705059 0.0014290237 0)
(0.96540666 0.0013547383 0)
(0.96033975 0.0012853782 0)
(0.95532699 0.0012207504 0)
(0.95038294 0.0011600631 0)
(0.94551922 0.0011026824 0)
(0.94074314 0.0010483602 0)
(0.93605802 0.00099693499 0)
(0.93146504 0.00094828867 0)
(0.9269643 0.00090227586 0)
(0.92255514 0.00085874857 0)
(0.91823627 0.00081757727 0)
(0.91400597 0.00077861855 0)
(0.90986226 0.00074174611 0)
(0.90580303 0.00070683904 0)
(0.90182603 0.00067378286 0)
(0.89792894 0.00064246977 0)
(0.89410945 0.00061279855 0)
(0.89036521 0.00058467467 0)
(0.88669393 0.0005580098 0)
(0.88309332 0.00053272148 0)
(0.87956111 0.00050873293 0)
(0.8760951 0.00048597251 0)
(0.87269311 0.00046437456 0)
(0.86935298 0.00044387737 0)
(0.86607262 0.00042442879 0)
(0.86284981 0.00040597423 0)
(0.85968267 0.0003884894 0)
(0.85656834 0.00037191007 0)
(0.853506 0.00035630844 0)
(0.85048936 0.00034152224 0)
(0.84752367 0.00032802624 0)
(0.84458466 0.0003151706 0)
(0.84171203 0.00030615901 2.504565e-21)
(0.83876126 0.00028884426 0)
(0.83623227 0.00032482195 5.0123047e-20)
(0.83179602 0.00025468673 0)
(0.99818795 0.0006274907 0)
(0.99813634 0.00075751609 0)
(0.99810268 0.00089185553 0)
(0.99808117 0.0010287265 0)
(0.99807071 0.001170741 0)
(0.99807322 0.0013188654 0)
(0.99809074 0.0014721092 0)
(0.99812468 0.0016289763 0)
(0.99817652 0.0017874463 0)
(0.99824732 0.0019442836 0)
(0.99833705 0.0020958898 0)
(0.99844468 0.0022385878 0)
(0.9985682 0.002368963 0)
(0.99870477 0.0024842356 0)
(0.99885119 0.0025826412 0)
(0.99900402 0.0026629165 0)
(0.99915992 0.0027251885 0)
(0.99931616 0.0027697698 0)
(0.99947009 0.0027973594 0)
(0.99961928 0.0028093911 0)
(0.99976224 0.0028077998 0)
(0.99989808 0.0027936598 0)
(1.0000255 0.0027680345 0)
(1.0001429 0.0027325441 0)
(1.0002493 0.0026892271 0)
(1.0003442 0.00264021 0)
(1.0004272 0.0025877166 0)
(1.0004985 0.0025340851 0)
(1.0005588 0.0024817462 0)
(1.0006093 0.0024331025 0)
(1.0006523 0.0023897223 0)
(1.0006901 0.0023523609 0)
(1.0007249 0.0023212131 0)
(1.0007588 0.0022954096 0)
(1.000793 0.00227343 0)
(1.0008278 0.0022539504 0)
(1.000863 0.0022359327 0)
(1.0008981 0.002218708 0)
(1.0009327 0.0022022044 0)
(1.0009666 0.0021864052 0)
(1.0009997 0.0021711813 0)
(1.0010321 0.0021563625 0)
(1.0010634 0.0021415609 0)
(1.0010931 0.0021266306 0)
(1.0011207 0.0021116814 0)
(1.0011458 0.0020968493 0)
(1.0011677 0.0020820634 0)
(1.0011859 0.0020671797 0)
(1.0011989 0.0020523069 0)
(1.0012051 0.0020375422 0)
(1.0012027 0.0020227953 0)
(1.0011887 0.0020078341 0)
(1.0011577 0.0019927153 0)
(1.0011018 0.001977702 0)
(1.0010112 0.0019626784 0)
(1.000866 0.0019470811 0)
(1.000633 0.0019303576 0)
(1.0002644 0.0019120093 0)
(0.99968159 0.0018917534 0)
(0.99874313 0.0018677109 0)
(0.99729682 0.0018372256 0)
(0.99518565 0.0017952398 0)
(0.99234339 0.0017399141 0)
(0.98879588 0.0016750402 0)
(0.98467098 0.0016039041 0)
(0.98015371 0.0015299609 0)
(0.97541832 0.0014556851 0)
(0.97058812 0.0013835754 0)
(0.96573302 0.0013151392 0)
(0.96089048 0.0012507054 0)
(0.95608474 0.0011898631 0)
(0.95133367 0.0011321765 0)
(0.9466494 0.001077395 0)
(0.94203931 0.0010253991 0)
(0.93750775 0.00097609708 0)
(0.93305727 0.00092935911 0)
(0.92868909 0.0008850655 0)
(0.92440346 0.00084309563 0)
(0.9201999 0.00080332863 0)
(0.91607746 0.00076564606 0)
(0.91203485 0.00072993385 0)
(0.9080705 0.0006960834 0)
(0.90418269 0.00066399185 0)
(0.90036956 0.00063356216 0)
(0.89662918 0.00060470331 0)
(0.89295955 0.00057732989 0)
(0.88935865 0.00055136318 0)
(0.88582441 0.00052672883 0)
(0.88235479 0.00050336363 0)
(0.87894758 0.00048120118 0)
(0.87560089 0.00046021082 0)
(0.87231181 0.00044031355 0)
(0.86907945 0.00042159297 0)
(0.86589751 0.00040384751 0)
(0.86277104 0.00038764817 0)
(0.85967593 0.00037215307 0)
(0.85665184 0.00036132656 0)
(0.853552 0.00033992128 0)
(0.85089262 0.0003849595 0)
(0.84624342 0.00029617703 0)
(0.99823015 0.00064883307 0)
(0.99817985 0.00077217811 0)
(0.99814517 0.00090136779 0)
(0.99812225 0.0010342144 0)
(0.99811043 0.0011722867 0)
(0.99811127 0.0013161847 0)
(0.99812666 0.0014649947 0)
(0.99815807 0.0016172757 0)
(0.99820687 0.0017710806 0)
(0.99827408 0.0019234327 0)
(0.99835974 0.0020709597 0)
(0.9984629 0.0022102021 0)
(0.99858176 0.0023379171 0)
(0.99871367 0.002451412 0)
(0.99885559 0.0025488941 0)
(0.99900427 0.0026290957 0)
(0.99915648 0.0026919443 0)
(0.99930949 0.00273767 0)
(0.9994607 0.0027668845 0)
(0.99960773 0.0027808581 0)
(0.999749 0.0027813311 0)
(0.9998835 0.0027693966 0)
(1.0000099 0.0027461238 0)
(1.0001267 0.0027130769 0)
(1.000233 0.0026722117 0)
(1.000328 0.0026255914 0)
(1.0004116 0.0025753798 0)
(1.0004838 0.0025238508 0)
(1.0005453 0.0024733518 0)
(1.0005974 0.0024261824 0)
(1.000642 0.0023838969 0)
(1.0006815 0.0023472733 0)
(1.000718 0.0023165289 0)
(1.0007535 0.0022909032 0)