/*--------------------------------*- C++ -*----------------------------------*\
  =========                 |
  \\      /  F ield         | OpenFOAM: The Open Source CFD Toolbox
   \\    /   O peration     | Website:  https://openfoam.org
    \\  /    A nd           | Version:  12
     \\/     M anipulation  |
\*---------------------------------------------------------------------------*/
FoamFile
{
    format      ascii;
    class       volScalarField;
    location    "1900";
    object      nuTilda;
}
// * * * * * * * * * * * * * * * * * * * * * * * * * * * * * * * * * * * * * //

dimensions      [0 2 -1 0 0 0 0];

internalField   nonuniform List<scalar> 
13056
(
1.999776e-06
1.9997906e-06
1.9998683e-06
2.0000607e-06
2.0003634e-06
2.0007598e-06
2.0012319e-06
2.0017637e-06
2.0023414e-06
2.0029536e-06
2.0035905e-06
2.0042446e-06
2.0049098e-06
2.0055819e-06
2.0062583e-06
2.0069375e-06
2.0076203e-06
2.0083086e-06
2.0090044e-06
2.0097216e-06
2.0104315e-06
2.0112586e-06
2.0116151e-06
2.0099598e-06
2.9941879e-08
2.1958946e-08
2.0824908e-08
2.0423009e-08
2.0163104e-08
1.9943916e-08
1.9749245e-08
1.9574032e-08
1.9414831e-08
1.9268755e-08
1.9133658e-08
1.9007974e-08
1.8890488e-08
1.8780205e-08
1.8676295e-08
1.8578067e-08
1.8484935e-08
1.8396396e-08
1.8312009e-08
1.8231387e-08
1.8154194e-08
1.8080128e-08
1.8008932e-08
1.794037e-08
1.7874228e-08
1.7810323e-08
1.7748488e-08
1.768856e-08
1.7630404e-08
1.7573898e-08
1.7518922e-08
1.7465364e-08
1.7413134e-08
1.7362145e-08
1.7312309e-08
1.7263546e-08
1.7215793e-08
1.7168985e-08
1.7123055e-08
1.7077943e-08
1.7033602e-08
1.6989985e-08
1.6947039e-08
1.6904717e-08
1.6862979e-08
1.682179e-08
1.6781112e-08
1.6740905e-08
1.6701132e-08
1.6661767e-08
1.662278e-08
1.6584139e-08
1.6545811e-08
1.6507771e-08
1.6469994e-08
1.6432457e-08
1.639513e-08
1.6357986e-08
1.6321002e-08
1.628416e-08
1.6247433e-08
1.6210797e-08
1.6174224e-08
1.6137696e-08
1.6101193e-08
1.606469e-08
1.6028158e-08
1.5991576e-08
1.5954921e-08
1.5918172e-08
1.5881301e-08
1.5844276e-08
1.5807076e-08
1.5769677e-08
1.5732047e-08
1.5694153e-08
1.5655964e-08
1.5617451e-08
1.557858e-08
1.553931e-08
1.5499602e-08
1.5459421e-08
1.5418722e-08
1.5377454e-08
1.5335568e-08
1.5293014e-08
1.5249731e-08
1.5205649e-08
1.5160714e-08
1.5115841e-08
1.5072455e-08
1.5030983e-08
1.4991286e-08
1.4953227e-08
1.4916683e-08
1.4881549e-08
1.484773e-08
1.4815131e-08
1.4783668e-08
1.475327e-08
1.4723871e-08
1.4695407e-08
1.4667817e-08
1.4641038e-08
1.4615024e-08
1.45897e-08
1.4565059e-08
1.4540823e-08
1.4517392e-08
1.4492994e-08
1.4471765e-08
1.4436272e-08
1.999776e-06
1.9997906e-06
1.9998682e-06
2.0000606e-06
2.0003632e-06
2.0007596e-06
2.0012317e-06
2.0017634e-06
2.0023411e-06
2.0029532e-06
2.0035901e-06
2.0042441e-06
2.0049093e-06
2.0055813e-06
2.0062576e-06
2.0069368e-06
2.0076194e-06
2.0083077e-06
2.0090034e-06
2.0097205e-06
2.0104304e-06
2.0112573e-06
2.0116141e-06
2.0099649e-06
8.7719904e-08
6.6173043e-08
6.2775708e-08
6.1565257e-08
6.0782278e-08
6.012235e-08
5.953623e-08
5.9008606e-08
5.8529107e-08
5.8089082e-08
5.7682092e-08
5.730343e-08
5.6949445e-08
5.6617146e-08
5.6304037e-08
5.6008036e-08
5.572738e-08
5.5460561e-08
5.5206245e-08
5.4963272e-08
5.4730628e-08
5.4507402e-08
5.4292822e-08
5.408618e-08
5.3886827e-08
5.3694216e-08
5.3507839e-08
5.3327212e-08
5.3151923e-08
5.2981604e-08
5.2815894e-08
5.265446e-08
5.2497027e-08
5.2343335e-08
5.2193115e-08
5.204613e-08
5.1902185e-08
5.1761091e-08
5.1622643e-08
5.1486661e-08
5.1353001e-08
5.1221521e-08
5.1092065e-08
5.096449e-08
5.0838676e-08
5.0714515e-08
5.0591893e-08
5.0470691e-08
5.0350798e-08
5.0232133e-08
5.0114608e-08
4.9998125e-08
4.9882588e-08
4.9767915e-08
4.9654038e-08
4.9540882e-08
4.942836e-08
4.9316387e-08
4.92049e-08
4.9093836e-08
4.8983123e-08
4.8872681e-08
4.876243e-08
4.8652316e-08
4.8542276e-08
4.8432233e-08
4.8322107e-08
4.8211825e-08
4.8101328e-08
4.7990546e-08
4.7879392e-08
4.7767779e-08
4.7655636e-08
4.7542893e-08
4.7429454e-08
4.7315218e-08
4.7200092e-08
4.708399e-08
4.6966808e-08
4.6848424e-08
4.672872e-08
4.6607589e-08
4.6484897e-08
4.6360489e-08
4.6234216e-08
4.6105931e-08
4.5975449e-08
4.5842556e-08
4.5707095e-08
4.5571816e-08
4.5441021e-08
4.5315999e-08
4.5196324e-08
4.508159e-08
4.4971422e-08
4.4865504e-08
4.4763549e-08
4.4665275e-08
4.4570424e-08
4.4478783e-08
4.4390154e-08
4.4304345e-08
4.4221169e-08
4.414044e-08
4.4062018e-08
4.3985673e-08
4.3911388e-08
4.3838327e-08
4.3767691e-08
4.3694147e-08
4.3630148e-08
4.3523148e-08
1.9997759e-06
1.9997905e-06
1.999868e-06
2.0000603e-06
2.0003628e-06
2.000759e-06
2.0012309e-06
2.0017625e-06
2.00234e-06
2.002952e-06
2.0035887e-06
2.0042425e-06
2.0049075e-06
2.0055794e-06
2.0062554e-06
2.0069344e-06
2.0076168e-06
2.0083048e-06
2.0090003e-06
2.0097171e-06
2.0104267e-06
2.011253e-06
2.0116101e-06
2.0099668e-06
1.439258e-07
1.1128465e-07
1.0563504e-07
1.0360106e-07
1.0228574e-07
1.0117796e-07
1.0019396e-07
9.930786e-08
9.8502289e-08
9.7762846e-08
9.7078794e-08
9.6442265e-08
9.5847145e-08
9.5288425e-08
9.4761925e-08
9.4264154e-08
9.379216e-08
9.3343409e-08
9.2915666e-08
9.2506984e-08
9.2115659e-08
9.1740164e-08
9.13792e-08
9.1031581e-08
9.0696215e-08
9.0372182e-08
9.005863e-08
8.9754746e-08
8.9459836e-08
8.9173284e-08
8.8894482e-08
8.8622869e-08
8.8357986e-08
8.8099392e-08
8.7846638e-08
8.7599324e-08
8.7357123e-08
8.7119715e-08
8.688676e-08
8.665795e-08
8.6433046e-08
8.6211808e-08
8.5993975e-08
8.5779305e-08
8.5567596e-08
8.5358668e-08
8.5152329e-08
8.4948378e-08
8.4746628e-08
8.4546943e-08
8.4349176e-08
8.4153162e-08
8.3958739e-08
8.3765769e-08
8.3574136e-08
8.3383716e-08
8.3194362e-08
8.3005933e-08
8.281832e-08
8.2631418e-08
8.2445106e-08
8.2259249e-08
8.2073714e-08
8.1888408e-08
8.1703225e-08
8.1518037e-08
8.133271e-08
8.114712e-08
8.0961166e-08
8.0774732e-08
8.0587674e-08
8.0399839e-08
8.0211115e-08
8.0021379e-08
7.9830472e-08
7.9638223e-08
7.9444476e-08
7.9249085e-08
7.9051877e-08
7.8852646e-08
7.8651192e-08
7.8447336e-08
7.8240853e-08
7.803148e-08
7.7818971e-08
7.7603072e-08
7.7383477e-08
7.7159825e-08
7.6931848e-08
7.670418e-08
7.6484056e-08
7.6273646e-08
7.6072238e-08
7.5879143e-08
7.5693733e-08
7.5515475e-08
7.5343887e-08
7.5178493e-08
7.5018861e-08
7.4864629e-08
7.4715468e-08
7.4571052e-08
7.4431068e-08
7.4295203e-08
7.4163219e-08
7.4034732e-08
7.3909713e-08
7.3786758e-08
7.3667879e-08
7.354413e-08
7.3436423e-08
7.3256338e-08
1.9997757e-06
1.9997903e-06
1.9998677e-06
2.0000598e-06
2.000362e-06
2.000758e-06
2.0012296e-06
2.0017609e-06
2.0023382e-06
2.0029499e-06
2.0035863e-06
2.0042398e-06
2.0049045e-06
2.005576e-06
2.0062517e-06
2.0069303e-06
2.0076124e-06
2.0082999e-06
2.0089949e-06
2.0097113e-06
2.0104203e-06
2.0112456e-06
2.011603e-06
2.0099654e-06
1.9923771e-07
1.578976e-07
1.5002117e-07
1.4713936e-07
1.45277e-07
1.4370978e-07
1.4231725e-07
1.4106255e-07
1.3992126e-07
1.3887325e-07
1.3790347e-07
1.3700086e-07
1.3615681e-07
1.3536427e-07
1.3461733e-07
1.3391107e-07
1.3324132e-07
1.3260449e-07
1.3199743e-07
1.3141739e-07
1.3086195e-07
1.3032895e-07
1.2981655e-07
1.2932307e-07
1.2884697e-07
1.2838695e-07
1.2794179e-07
1.2751034e-07
1.2709162e-07
1.2668476e-07
1.2628889e-07
1.2590322e-07
1.255271e-07
1.251599e-07
1.2480099e-07
1.244498e-07
1.2410587e-07
1.2376873e-07
1.2343792e-07
1.2311298e-07
1.2279359e-07
1.224794e-07
1.2217005e-07
1.2186518e-07
1.2156452e-07
1.212678e-07
1.2097476e-07
1.206851e-07
1.2039857e-07
1.2011497e-07
1.1983409e-07
1.195557e-07
1.1927956e-07
1.1900549e-07
1.1873332e-07
1.1846286e-07
1.1819392e-07
1.1792629e-07
1.1765982e-07
1.1739436e-07
1.1712973e-07
1.1686575e-07
1.1660223e-07
1.1633902e-07
1.16076e-07
1.1581296e-07
1.1554973e-07
1.1528612e-07
1.1502199e-07
1.1475718e-07
1.1449148e-07
1.1422468e-07
1.1395661e-07
1.136871e-07
1.1341594e-07
1.1314286e-07
1.1286765e-07
1.1259011e-07
1.1230999e-07
1.1202699e-07
1.1174084e-07
1.1145126e-07
1.1115796e-07
1.1086056e-07
1.1055869e-07
1.1025201e-07
1.0994008e-07
1.0962239e-07
1.0929855e-07
1.0897515e-07
1.0866246e-07
1.0836357e-07
1.0807747e-07
1.0780318e-07
1.075398e-07
1.0728658e-07
1.0704284e-07
1.0680789e-07
1.0658113e-07
1.0636204e-07
1.0615016e-07
1.0594501e-07
1.0574616e-07
1.0555316e-07
1.0536567e-07
1.0518316e-07
1.0500556e-07
1.0483091e-07
1.0466204e-07
1.044863e-07
1.043333e-07
1.0407748e-07
1.9997754e-06
1.99979e-06
1.9998673e-06
2.0000591e-06
2.000361e-06
2.0007565e-06
2.0012278e-06
2.0017587e-06
2.0023356e-06
2.0029468e-06
2.0035828e-06
2.0042358e-06
2.0049001e-06
2.0055711e-06
2.0062463e-06
2.0069244e-06
2.0076058e-06
2.0082928e-06
2.0089871e-06
2.0097027e-06
2.0104111e-06
2.0112348e-06
2.0115926e-06
2.0099608e-06
2.5419771e-07
2.0660577e-07
1.9656305e-07
1.9280355e-07
1.903756e-07
1.8833382e-07
1.8651857e-07
1.8488156e-07
1.8339134e-07
1.8202213e-07
1.8075461e-07
1.795745e-07
1.7847066e-07
1.7743394e-07
1.7645668e-07
1.7553249e-07
1.7465596e-07
1.7382242e-07
1.7302776e-07
1.7226839e-07
1.7154117e-07
1.7084328e-07
1.7017231e-07
1.6952609e-07
1.6890259e-07
1.683001e-07
1.6771706e-07
1.6715196e-07
1.6660351e-07
1.6607057e-07
1.6555201e-07
1.650468e-07
1.6455408e-07
1.6407304e-07
1.6360285e-07
1.6314276e-07
1.6269216e-07
1.6225046e-07
1.6181703e-07
1.6139131e-07
1.6097283e-07
1.6056117e-07
1.6015583e-07
1.5975637e-07
1.5936241e-07
1.5897362e-07
1.5858963e-07
1.5821008e-07
1.5783462e-07
1.57463e-07
1.5709494e-07
1.5673013e-07
1.5636828e-07
1.5600913e-07
1.5565246e-07
1.5529804e-07
1.5494561e-07
1.5459489e-07
1.5424568e-07
1.5389779e-07
1.53551e-07
1.5320505e-07
1.5285969e-07
1.5251476e-07
1.5217005e-07
1.5182533e-07
1.5148035e-07
1.5113487e-07
1.5078871e-07
1.5044166e-07
1.5009344e-07
1.4974377e-07
1.4939245e-07
1.4903923e-07
1.4868383e-07
1.4832594e-07
1.4796525e-07
1.4760149e-07
1.4723435e-07
1.4686344e-07
1.4648839e-07
1.4610887e-07
1.4572445e-07
1.4533465e-07
1.4493901e-07
1.4453705e-07
1.4412821e-07
1.4371181e-07
1.4328736e-07
1.4286347e-07
1.4245364e-07
1.4206188e-07
1.4168689e-07
1.4132737e-07
1.4098216e-07
1.4065026e-07
1.4033078e-07
1.4002283e-07
1.3972561e-07
1.3943844e-07
1.3916071e-07
1.3889182e-07
1.3863118e-07
1.3837821e-07
1.3813247e-07
1.3789324e-07
1.3766046e-07
1.3743156e-07
1.3721022e-07
1.3697994e-07
1.367794e-07
1.3644406e-07
1.9997751e-06
1.9997896e-06
1.9998666e-06
2.0000581e-06
2.0003595e-06
2.0007545e-06
2.0012253e-06
2.0017557e-06
2.002332e-06
2.0029427e-06
2.0035781e-06
2.0042305e-06
2.0048941e-06
2.0055645e-06
2.006239e-06
2.0069164e-06
2.0075971e-06
2.0082832e-06
2.0089767e-06
2.0096913e-06
2.0103987e-06
2.0112204e-06
2.0115786e-06
2.0099528e-06
3.0921108e-07
2.5797204e-07
2.4589781e-07
2.4123412e-07
2.3822109e-07
2.356881e-07
2.3343371e-07
2.3139802e-07
2.2954277e-07
2.2783676e-07
2.2625648e-07
2.2478448e-07
2.2340708e-07
2.22113e-07
2.2089281e-07
2.1973863e-07
2.1864374e-07
2.1760237e-07
2.1660943e-07
2.1566045e-07
2.1475155e-07
2.1387921e-07
2.1304045e-07
2.1223255e-07
2.11453e-07
2.1069968e-07
2.0997062e-07
2.0926395e-07
2.0857806e-07
2.0791154e-07
2.0726298e-07
2.066311e-07
2.060148e-07
2.0541309e-07
2.0482493e-07
2.0424939e-07
2.036857e-07
2.0313314e-07
2.0259091e-07
2.020583e-07
2.0153475e-07
2.0101971e-07
2.0051257e-07
2.0001278e-07
1.9951986e-07
1.9903339e-07
1.9855293e-07
1.9807802e-07
1.9760822e-07
1.971432e-07
1.9668264e-07
1.9622615e-07
1.9577335e-07
1.9532392e-07
1.9487759e-07
1.9443408e-07
1.9399303e-07
1.9355414e-07
1.9311713e-07
1.9268177e-07
1.9224777e-07
1.9181482e-07
1.9138262e-07
1.9095094e-07
1.9051954e-07
1.9008811e-07
1.8965636e-07
1.8922399e-07
1.8879076e-07
1.883564e-07
1.8792058e-07
1.8748295e-07
1.8704324e-07
1.8660116e-07
1.8615635e-07
1.857084e-07
1.8525696e-07
1.8480168e-07
1.8434216e-07
1.8387791e-07
1.8340849e-07
1.8293346e-07
1.824523e-07
1.819644e-07
1.8146918e-07
1.8096607e-07
1.8045433e-07
1.7993313e-07
1.7940184e-07
1.7887127e-07
1.7835827e-07
1.7786791e-07
1.7739852e-07
1.769485e-07
1.7651639e-07
1.7610094e-07
1.7570104e-07
1.7531557e-07
1.7494352e-07
1.7458406e-07
1.7423642e-07
1.7389983e-07
1.7357358e-07
1.7325692e-07
1.7294931e-07
1.7264986e-07
1.7235849e-07
1.7207197e-07
1.7179492e-07
1.7150676e-07
1.7125575e-07
1.7083596e-07
1.9997746e-06
1.999789e-06
1.9998659e-06
2.0000568e-06
2.0003576e-06
2.000752e-06
2.0012221e-06
2.0017518e-06
2.0023274e-06
2.0029374e-06
2.003572e-06
2.0042237e-06
2.0048865e-06
2.0055561e-06
2.0062297e-06
2.0069061e-06
2.0075858e-06
2.0082709e-06
2.0089633e-06
2.0096766e-06
2.0103828e-06
2.0112019e-06
2.0115606e-06
2.0099415e-06
3.6455017e-07
3.1249238e-07
2.9866228e-07
2.9308798e-07
2.8947508e-07
2.8643629e-07
2.8372665e-07
2.8127499e-07
2.7903694e-07
2.7697641e-07
2.7506602e-07
2.7328528e-07
2.7161803e-07
2.700509e-07
2.6857266e-07
2.6717391e-07
2.6584665e-07
2.6458396e-07
2.6337973e-07
2.622286e-07
2.611259e-07
2.6006741e-07
2.5904952e-07
2.5806897e-07
2.5712273e-07
2.5620823e-07
2.553231e-07
2.5446509e-07
2.5363226e-07
2.5282288e-07
2.5203526e-07
2.5126785e-07
2.5051934e-07
2.497885e-07
2.4907408e-07
2.4837497e-07
2.4769022e-07
2.4701896e-07
2.4636023e-07
2.4571317e-07
2.4507709e-07
2.4445133e-07
2.4383516e-07
2.4322789e-07
2.4262896e-07
2.4203786e-07
2.4145404e-07
2.4087695e-07
2.4030606e-07
2.3974097e-07
2.3918129e-07
2.3862654e-07
2.3807627e-07
2.3753009e-07
2.3698766e-07
2.3644864e-07
2.3591263e-07
2.3537921e-07
2.3484809e-07
2.3431895e-07
2.3379146e-07
2.3326525e-07
2.3273994e-07
2.3221525e-07
2.3169089e-07
2.3116651e-07
2.3064172e-07
2.3011617e-07
2.2958957e-07
2.290616e-07
2.2853185e-07
2.2799989e-07
2.2746539e-07
2.2692801e-07
2.263873e-07
2.2584279e-07
2.2529401e-07
2.2474057e-07
2.2418196e-07
2.2361762e-07
2.2304697e-07
2.224695e-07
2.2188457e-07
2.2129145e-07
2.2068943e-07
2.200778e-07
2.1945569e-07
2.1882206e-07
2.1817618e-07
2.1753115e-07
2.1690749e-07
2.1631134e-07
2.1574069e-07
2.1519358e-07
2.1466825e-07
2.1416317e-07
2.1367698e-07
2.1320834e-07
2.1275602e-07
2.12319e-07
2.1189635e-07
2.1148714e-07
2.1109048e-07
2.107055e-07
2.1033152e-07
2.0996746e-07
2.0961322e-07
2.0926491e-07
2.0892807e-07
2.0857787e-07
2.0827272e-07
2.0776229e-07
1.9997741e-06
1.9997884e-06
1.9998649e-06
2.0000552e-06
2.0003553e-06
2.0007489e-06
2.0012181e-06
2.001747e-06
2.0023217e-06
2.0029308e-06
2.0035645e-06
2.0042153e-06
2.004877e-06
2.0055455e-06
2.0062181e-06
2.0068934e-06
2.0075718e-06
2.0082556e-06
2.0089465e-06
2.0096583e-06
2.010363e-06
2.0111788e-06
2.0115383e-06
2.0099269e-06
4.2035873e-07
3.7053436e-07
3.5547376e-07
3.4903161e-07
3.4481933e-07
3.4126872e-07
3.3809246e-07
3.3520979e-07
3.3257176e-07
3.3013858e-07
3.2787964e-07
3.2577181e-07
3.2379665e-07
3.2193879e-07
3.201853e-07
3.185253e-07
3.1694948e-07
3.1544979e-07
3.1401909e-07
3.1265112e-07
3.1134036e-07
3.1008191e-07
3.0887149e-07
3.0770527e-07
3.065797e-07
3.0549172e-07
3.0443856e-07
3.0341756e-07
3.0242641e-07
3.0146307e-07
3.0052555e-07
2.9961202e-07
2.9872091e-07
2.9785077e-07
2.9700015e-07
2.9616769e-07
2.9535229e-07
2.945529e-07
2.9376841e-07
2.9299778e-07
2.9224019e-07
2.9149485e-07
2.9076091e-07
2.9003756e-07
2.8932411e-07
2.8861995e-07
2.8792446e-07
2.8723696e-07
2.8655683e-07
2.8588359e-07
2.8521677e-07
2.8455581e-07
2.8390018e-07
2.8324941e-07
2.8260309e-07
2.8196083e-07
2.8132213e-07
2.8068651e-07
2.8005361e-07
2.7942307e-07
2.7879449e-07
2.7816741e-07
2.775414e-07
2.7691612e-07
2.7629123e-07
2.756663e-07
2.7504087e-07
2.7441454e-07
2.7378693e-07
2.7315769e-07
2.7252632e-07
2.7189231e-07
2.7125527e-07
2.7061479e-07
2.6997033e-07
2.6932133e-07
2.6866724e-07
2.6800758e-07
2.6734177e-07
2.6666911e-07
2.6598892e-07
2.6530059e-07
2.6460338e-07
2.638964e-07
2.6317879e-07
2.6244973e-07
2.6170816e-07
2.6095287e-07
2.6018295e-07
2.5941405e-07
2.5867061e-07
2.5795997e-07
2.5727972e-07
2.5662753e-07
2.5600128e-07
2.5539919e-07
2.548196e-07
2.5426094e-07
2.5372174e-07
2.5320076e-07
2.5269691e-07
2.5220909e-07
2.5173623e-07
2.5127729e-07
2.5083147e-07
2.5039747e-07
2.4997518e-07
2.4955998e-07
2.4915845e-07
2.4874113e-07
2.4837739e-07
2.4776883e-07
1.9997734e-06
1.9997876e-06
1.9998637e-06
2.0000533e-06
2.0003524e-06
2.000745e-06
2.0012133e-06
2.0017411e-06
2.0023147e-06
2.0029227e-06
2.0035553e-06
2.0042049e-06
2.0048654e-06
2.0055327e-06
2.0062038e-06
2.0068777e-06
2.0075547e-06
2.0082369e-06
2.0089261e-06
2.0096359e-06
2.0103388e-06
2.0111506e-06
2.0115113e-06
2.0099089e-06
4.7666054e-07
4.322504e-07
4.1689094e-07
4.0972295e-07
4.0494633e-07
4.0089824e-07
3.9725686e-07
3.9393609e-07
3.908857e-07
3.8806438e-07
3.854397e-07
3.8298672e-07
3.8068519e-07
3.7851807e-07
3.7647092e-07
3.7453151e-07
3.7268932e-07
3.7093521e-07
3.6926102e-07
3.6765959e-07
3.6612462e-07
3.6465043e-07
3.6323212e-07
3.6186527e-07
3.6054577e-07
3.5927008e-07
3.5803499e-07
3.5683743e-07
3.556747e-07
3.5454444e-07
3.5344435e-07
3.5237228e-07
3.513264e-07
3.5030505e-07
3.493065e-07
3.483292e-07
3.4737185e-07
3.4643323e-07
3.4551203e-07
3.4460706e-07
3.4371735e-07
3.4284197e-07
3.4197994e-07
3.411303e-07
3.4029225e-07
3.3946508e-07
3.3864804e-07
3.3784038e-07
3.3704134e-07
3.3625037e-07
3.354669e-07
3.346903e-07
3.3391994e-07
3.3315527e-07
3.323958e-07
3.3164108e-07
3.3089052e-07
3.3014358e-07
3.2939981e-07
3.2865879e-07
3.2792006e-07
3.2718309e-07
3.2644735e-07
3.2571246e-07
3.24978e-07
3.2424349e-07
3.2350838e-07
3.2277219e-07
3.2203451e-07
3.2129488e-07
3.2055274e-07
3.1980748e-07
3.1905866e-07
3.1830577e-07
3.175482e-07
3.1678529e-07
3.1601638e-07
3.1524092e-07
3.144582e-07
3.1366743e-07
3.1286781e-07
3.1205861e-07
3.1123895e-07
3.1040779e-07
3.0956414e-07
3.0870701e-07
3.0783517e-07
3.0694719e-07
3.06042e-07
3.05138e-07
3.0426393e-07
3.0342841e-07
3.0262861e-07
3.0186181e-07
3.0112551e-07
3.0041759e-07
2.9973614e-07
2.9907929e-07
2.984453e-07
2.9783276e-07
2.9724034e-07
2.9666676e-07
2.9611079e-07
2.9557118e-07
2.9504698e-07
2.945367e-07
2.9404019e-07
2.9355204e-07
2.9307993e-07
2.9258948e-07
2.9216185e-07
2.914462e-07
1.9997726e-06
1.9997867e-06
1.9998622e-06
2.0000509e-06
2.000349e-06
2.0007404e-06
2.0012074e-06
2.0017339e-06
2.0023063e-06
2.0029129e-06
2.0035442e-06
2.0041923e-06
2.0048514e-06
2.0055171e-06
2.0061867e-06
2.0068588e-06
2.007534e-06
2.0082143e-06
2.0089014e-06
2.0096089e-06
2.0103096e-06
2.0111167e-06
2.0114793e-06
2.0098878e-06
5.3337716e-07
4.9748531e-07
4.83345e-07
4.7577387e-07
4.7053662e-07
4.6604653e-07
4.6196879e-07
4.5822118e-07
4.5475844e-07
4.515419e-07
4.4853993e-07
4.4572741e-07
4.4308334e-07
4.4058967e-07
4.3823092e-07
4.3599383e-07
4.3386691e-07
4.3184006e-07
4.2990423e-07
4.2805141e-07
4.2627454e-07
4.2456726e-07
4.2292401e-07
4.213398e-07
4.1980998e-07
4.1833052e-07
4.1689776e-07
4.155082e-07
4.1415878e-07
4.1284676e-07
4.1156954e-07
4.1032465e-07
4.0910998e-07
4.0792361e-07
4.067636e-07
4.0562814e-07
4.0451572e-07
4.0342494e-07
4.0235432e-07
4.0130246e-07
4.0026825e-07
3.9925061e-07
3.9824842e-07
3.9726057e-07
3.9628613e-07
3.9532427e-07
3.9437415e-07
3.9343487e-07
3.9250559e-07
3.9158563e-07
3.9067435e-07
3.8977104e-07
3.8887494e-07
3.8798541e-07
3.8710192e-07
3.862239e-07
3.8535071e-07
3.844817e-07
3.8361634e-07
3.8275416e-07
3.8189461e-07
3.8103709e-07
3.8018099e-07
3.7932585e-07
3.7847119e-07
3.7761645e-07
3.76761e-07
3.7590428e-07
3.7504579e-07
3.7418502e-07
3.7332131e-07
3.7245397e-07
3.7158245e-07
3.7070619e-07
3.6982448e-07
3.6893652e-07
3.6804158e-07
3.6713898e-07
3.6622794e-07
3.6530751e-07
3.6437676e-07
3.6343485e-07
3.6248076e-07
3.6151327e-07
3.6053123e-07
3.5953348e-07
3.585186e-07
3.5748492e-07
3.5643121e-07
3.5537885e-07
3.5436134e-07
3.5338869e-07
3.5245762e-07
3.5156496e-07
3.507078e-07
3.4988367e-07
3.4909035e-07
3.4832567e-07
3.475876e-07
3.468745e-07
3.4618482e-07
3.4551707e-07
3.4486982e-07
3.4424162e-07
3.4363136e-07
3.4303731e-07
3.4245929e-07
3.4189105e-07
3.4134145e-07
3.4077076e-07
3.4027301e-07
3.394397e-07
1.9997716e-06
1.9997855e-06
1.9998605e-06
2.0000481e-06
2.0003449e-06
2.0007349e-06
2.0012004e-06
2.0017255e-06
2.0022963e-06
2.0029013e-06
2.0035309e-06
2.0041773e-06
2.0048347e-06
2.0054985e-06
2.0061662e-06
2.0068363e-06
2.0075094e-06
2.0081873e-06
2.008872e-06
2.0095767e-06
2.0102748e-06
2.0110761e-06
2.0114421e-06
2.0098637e-06
5.9032256e-07
5.6577772e-07
5.5503944e-07
5.4768168e-07
5.4221175e-07
5.3741131e-07
5.3297818e-07
5.2885178e-07
5.2500301e-07
5.2140318e-07
5.1802627e-07
5.1485003e-07
5.1185472e-07
5.0902263e-07
5.0633817e-07
5.0378778e-07
5.0135946e-07
4.990425e-07
4.9682722e-07
4.9470498e-07
4.9266808e-07
4.9070956e-07
4.8882331e-07
4.8700382e-07
4.8524593e-07
4.8354514e-07
4.8189737e-07
4.8029873e-07
4.7874573e-07
4.7723534e-07
4.757646e-07
4.7433074e-07
4.7293137e-07
4.7156431e-07
4.7022736e-07
4.6891849e-07
4.6763596e-07
4.6637817e-07
4.6514347e-07
4.6393025e-07
4.6273723e-07
4.6156319e-07
4.6040685e-07
4.5926695e-07
4.5814241e-07
4.5703229e-07
4.5593563e-07
4.548514e-07
4.5377863e-07
4.5271655e-07
4.5166442e-07
4.5062142e-07
4.495867e-07
4.4855952e-07
4.4753924e-07
4.4652523e-07
4.4551676e-07
4.4451306e-07
4.4351355e-07
4.4251766e-07
4.4152478e-07
4.4053421e-07
4.3954524e-07
4.3855735e-07
4.3756998e-07
4.3658249e-07
4.3559416e-07
4.3460432e-07
4.3361242e-07
4.3261786e-07
4.3161989e-07
4.306177e-07
4.2961065e-07
4.285981e-07
4.2757923e-07
4.2655313e-07
4.2551894e-07
4.2447589e-07
4.2342306e-07
4.2235936e-07
4.2128373e-07
4.2019517e-07
4.1909253e-07
4.1797439e-07
4.1683942e-07
4.1568627e-07
4.1451332e-07
4.1331863e-07
4.1210077e-07
4.1088447e-07
4.0970842e-07
4.0858424e-07
4.0750809e-07
4.0647633e-07
4.054856e-07
4.0453305e-07
4.0361611e-07
4.0273225e-07
4.0187917e-07
4.0105493e-07
4.0025776e-07
3.9948595e-07
3.9873783e-07
3.9801172e-07
3.9730636e-07
3.9661975e-07
3.9595166e-07
3.9529494e-07
3.9465972e-07
3.9400045e-07
3.9342526e-07
3.9246187e-07
1.9997705e-06
1.9997842e-06
1.9998585e-06
2.0000449e-06
2.00034e-06
2.0007284e-06
2.0011922e-06
2.0017154e-06
2.0022844e-06
2.0028875e-06
2.0035152e-06
2.0041596e-06
2.0048148e-06
2.0054765e-06
2.0061418e-06
2.0068096e-06
2.0074801e-06
2.0081554e-06
2.0088372e-06
2.0095386e-06
2.0102336e-06
2.0110281e-06
2.0113996e-06
2.0098372e-06
6.4718464e-07
6.3644139e-07
6.3184367e-07
6.2572314e-07
6.2044951e-07
6.1559889e-07
6.1098313e-07
6.0659354e-07
6.0243546e-07
5.9850242e-07
5.9478208e-07
5.912605e-07
5.8792279e-07
5.8475407e-07
5.8174048e-07
5.7886946e-07
5.7612948e-07
5.7350997e-07
5.7100117e-07
5.6859417e-07
5.6628101e-07
5.6405435e-07
5.6190773e-07
5.5983526e-07
5.578314e-07
5.5589126e-07
5.5401043e-07
5.5218463e-07
5.5041007e-07
5.4868337e-07
5.4700131e-07
5.4536079e-07
5.4375915e-07
5.4219399e-07
5.4066286e-07
5.3916347e-07
5.3769387e-07
5.362523e-07
5.3483688e-07
5.3344581e-07
5.3207763e-07
5.3073099e-07
5.2940444e-07
5.2809655e-07
5.2680611e-07
5.2553204e-07
5.2427326e-07
5.2302861e-07
5.2179699e-07
5.205775e-07
5.1936933e-07
5.1817154e-07
5.1698315e-07
5.1580333e-07
5.1463134e-07
5.1346648e-07
5.123079e-07
5.1115474e-07
5.1000631e-07
5.0886198e-07
5.0772105e-07
5.0658272e-07
5.0544618e-07
5.0431081e-07
5.03176e-07
5.0204101e-07
5.0090501e-07
4.9976724e-07
4.9862705e-07
4.9748377e-07
4.9633653e-07
4.9518442e-07
4.9402668e-07
4.9286259e-07
4.9169121e-07
4.9051148e-07
4.8932243e-07
4.8812317e-07
4.8691264e-07
4.8568959e-07
4.844528e-07
4.8320113e-07
4.8193324e-07
4.8064752e-07
4.7934243e-07
4.7801642e-07
4.7666762e-07
4.7529383e-07
4.7389336e-07
4.7249468e-07
4.7114228e-07
4.6984952e-07
4.6861199e-07
4.674255e-07
4.662862e-07
4.6519079e-07
4.6413633e-07
4.6311992e-07
4.621389e-07
4.6119105e-07
4.6027433e-07
4.5938678e-07
4.5852646e-07
4.5769148e-07
4.5688035e-07
4.5609079e-07
4.5532254e-07
4.5456745e-07
4.5383702e-07
4.5307936e-07
4.5241813e-07
4.5130998e-07
1.9997691e-06
1.9997827e-06
1.9998562e-06
2.000041e-06
2.0003344e-06
2.0007207e-06
2.0011824e-06
2.0017036e-06
2.0022704e-06
2.0028713e-06
2.0034967e-06
2.0041387e-06
2.0047915e-06
2.0054506e-06
2.0061132e-06
2.0067782e-06
2.0074457e-06
2.0081178e-06
2.0087962e-06
2.0094938e-06
2.0101852e-06
2.0109718e-06
2.0113515e-06
2.0098089e-06
7.0353362e-07
7.086256e-07
7.1324785e-07
7.0983781e-07
7.0546498e-07
7.0101323e-07
6.9653041e-07
6.9210409e-07
6.8780031e-07
6.8365271e-07
6.7967515e-07
6.7587057e-07
6.7223489e-07
6.6876032e-07
6.6543785e-07
6.6225828e-07
6.5921237e-07
6.5629101e-07
6.5348539e-07
6.5078719e-07
6.4818878e-07
6.45683e-07
6.432634e-07
6.4092407e-07
6.3865933e-07
6.3646412e-07
6.3433384e-07
6.3226402e-07
6.3025062e-07
6.2829004e-07
6.2637885e-07
6.2451371e-07
6.2269173e-07
6.2091031e-07
6.191668e-07
6.1745869e-07
6.1578382e-07
6.1414027e-07
6.1252598e-07
6.1093897e-07
6.0937759e-07
6.0784035e-07
6.0632567e-07
6.0483194e-07
6.033578e-07
6.0190205e-07
6.0046348e-07
5.9904081e-07
5.9763279e-07
5.9623842e-07
5.9485677e-07
5.9348678e-07
5.921274e-07
5.9077762e-07
5.8943665e-07
5.8810368e-07
5.8677777e-07
5.8545794e-07
5.8414339e-07
5.8283341e-07
5.8152722e-07
5.802239e-07
5.7892255e-07
5.7762244e-07
5.7632288e-07
5.7502303e-07
5.7372196e-07
5.7241879e-07
5.7111277e-07
5.6980315e-07
5.6848894e-07
5.6716909e-07
5.6584274e-07
5.6450906e-07
5.6316697e-07
5.6181529e-07
5.6045288e-07
5.5907872e-07
5.5769161e-07
5.5629014e-07
5.5487287e-07
5.5343853e-07
5.5198557e-07
5.5051215e-07
5.4901651e-07
5.4749688e-07
5.4595111e-07
5.4437668e-07
5.4277167e-07
5.4116868e-07
5.3961873e-07
5.3813712e-07
5.3671882e-07
5.3535901e-07
5.3405328e-07
5.3279786e-07
5.3158936e-07
5.3042449e-07
5.2930017e-07
5.2821387e-07
5.2716325e-07
5.2614607e-07
5.2516011e-07
5.2420319e-07
5.2327362e-07
5.2236879e-07
5.214884e-07
5.2062318e-07
5.1978616e-07
5.1891846e-07
5.1816101e-07
5.1689065e-07
1.9997676e-06
1.9997808e-06
1.9998534e-06
2.0000366e-06
2.0003278e-06
2.0007118e-06
2.0011711e-06
2.0016898e-06
2.002254e-06
2.0028523e-06
2.003475e-06
2.0041143e-06
2.0047641e-06
2.0054202e-06
2.0060797e-06
2.0067414e-06
2.0074054e-06
2.0080739e-06
2.0087483e-06
2.0094414e-06
2.0101286e-06
2.0109059e-06
2.0112976e-06
2.0097801e-06
7.5883524e-07
7.8135206e-07
7.9843426e-07
7.9958238e-07
7.971168e-07
7.9373917e-07
7.8988899e-07
7.8580537e-07
7.8164655e-07
7.7750864e-07
7.7344808e-07
7.6949656e-07
7.6566936e-07
7.6197207e-07
7.5840536e-07
7.549671e-07
7.5165321e-07
7.484583e-07
7.4537625e-07
7.4240075e-07
7.3952565e-07
7.3674487e-07
7.3405274e-07
7.3144391e-07
7.2891309e-07
7.2645546e-07
7.2406657e-07
7.2174204e-07
7.1947781e-07
7.1727028e-07
7.1511595e-07
7.1301141e-07
7.1095364e-07
7.0893995e-07
7.0696757e-07
7.0503384e-07
7.0313648e-07
7.0127341e-07
6.9944249e-07
6.9764155e-07
6.958688e-07
6.9412266e-07
6.9240139e-07
6.9070328e-07
6.8902679e-07
6.8737062e-07
6.8573347e-07
6.8411391e-07
6.8251058e-07
6.8092234e-07
6.7934818e-07
6.7778695e-07
6.7623745e-07
6.7469857e-07
6.7316942e-07
6.716491e-07
6.7013657e-07
6.6863072e-07
6.6713066e-07
6.6563558e-07
6.641446e-07
6.6265672e-07
6.6117088e-07
6.5968629e-07
6.5820214e-07
6.5671751e-07
6.5523134e-07
6.5374262e-07
6.5225051e-07
6.5075414e-07
6.4925242e-07
6.4774414e-07
6.4622832e-07
6.44704e-07
6.4316999e-07
6.4162491e-07
6.4006748e-07
6.3849653e-07
6.369107e-07
6.3530837e-07
6.3368792e-07
6.3204787e-07
6.3038647e-07
6.2870162e-07
6.2699131e-07
6.252535e-07
6.2348577e-07
6.2168522e-07
6.1984965e-07
6.1801636e-07
6.1624371e-07
6.1454921e-07
6.1292709e-07
6.1137186e-07
6.0987848e-07
6.0844263e-07
6.0706045e-07
6.0572816e-07
6.0444227e-07
6.0319985e-07
6.0199826e-07
6.008349e-07
5.9970728e-07
5.9861287e-07
5.9754976e-07
5.9651497e-07
5.9550814e-07
5.9451879e-07
5.9356162e-07
5.9257003e-07
5.9170423e-07
5.9025083e-07
1.9997657e-06
1.9997787e-06
1.9998502e-06
2.0000314e-06
2.0003201e-06
2.0007015e-06
2.0011579e-06
2.0016737e-06
2.002235e-06
2.0028302e-06
2.0034498e-06
2.0040858e-06
2.0047323e-06
2.0053848e-06
2.0060407e-06
2.0066985e-06
2.0073586e-06
2.0080227e-06
2.0086925e-06
2.0093805e-06
2.0100628e-06
2.0108294e-06
2.011238e-06
2.0097523e-06
8.124623e-07
8.5353995e-07
8.8639598e-07
8.9421707e-07
8.9493334e-07
8.9352013e-07
8.9098994e-07
8.8779595e-07
8.8422133e-07
8.80448e-07
8.7659312e-07
8.7273089e-07
8.6890629e-07
8.6514625e-07
8.6146731e-07
8.5787944e-07
8.5438767e-07
8.5099352e-07
8.4769615e-07
8.4449335e-07
8.4138216e-07
8.3835903e-07
8.3542025e-07
8.3256202e-07
8.2978026e-07
8.2707107e-07
8.2443074e-07
8.2185549e-07
8.1934164e-07
8.1688595e-07
8.1448519e-07
8.1213609e-07
8.0983575e-07
8.0758157e-07
8.0537087e-07
8.0320094e-07
8.0106951e-07
7.9897449e-07
7.969137e-07
7.9488491e-07
7.9288625e-07
7.9091607e-07
7.8897261e-07
7.8705402e-07
7.8515869e-07
7.8328522e-07
7.8143225e-07
7.7959827e-07
7.7778177e-07
7.7598154e-07
7.741965e-07
7.724254e-07
7.7066693e-07
7.6891989e-07
7.6718329e-07
7.6545614e-07
7.6373731e-07
7.6202558e-07
7.6031995e-07
7.5861952e-07
7.5692333e-07
7.5523027e-07
7.5353916e-07
7.5184908e-07
7.5015916e-07
7.4846835e-07
7.4677548e-07
7.4507941e-07
7.4337917e-07
7.4167381e-07
7.3996208e-07
7.3824263e-07
7.3651433e-07
7.3477611e-07
7.3302661e-07
7.3126429e-07
7.2948766e-07
7.2769541e-07
7.25886e-07
7.2405758e-07
7.2220831e-07
7.2033649e-07
7.1844016e-07
7.1651691e-07
7.1456445e-07
7.1258045e-07
7.1056215e-07
7.0850627e-07
7.0641028e-07
7.0431676e-07
7.0229241e-07
7.0035722e-07
6.9850464e-07
6.9672839e-07
6.9502275e-07
6.9338278e-07
6.9180407e-07
6.9028232e-07
6.8881355e-07
6.8739442e-07
6.8602192e-07
6.8469308e-07
6.8340505e-07
6.8215497e-07
6.8094065e-07
6.7975869e-07
6.7860868e-07
6.7747879e-07
6.7638556e-07
6.7525386e-07
6.742655e-07
6.7260458e-07
1.9997636e-06
1.9997763e-06
1.9998466e-06
2.0000254e-06
2.0003113e-06
2.0006895e-06
2.0011427e-06
2.0016551e-06
2.0022129e-06
2.0028046e-06
2.0034205e-06
2.0040527e-06
2.0046953e-06
2.0053438e-06
2.0059955e-06
2.0066488e-06
2.0073042e-06
2.0079634e-06
2.0086279e-06
2.00931e-06
2.0099867e-06
2.0107408e-06
2.011173e-06
2.0097279e-06
8.6370134e-07
9.2403744e-07
9.7599621e-07
9.9285204e-07
9.9825418e-07
9.9987595e-07
9.9951321e-07
9.9790551e-07
9.9549416e-07
9.9256958e-07
9.8932747e-07
9.8589868e-07
9.8236887e-07
9.7879486e-07
9.7521611e-07
9.7166041e-07
9.6814666e-07
9.6468717e-07
9.6128957e-07
9.5795843e-07
9.5469625e-07
9.5150391e-07
9.4838124e-07
9.4532738e-07
9.4234061e-07
9.394189e-07
9.3656016e-07
9.3376191e-07
9.310215e-07
9.2833654e-07
9.2570457e-07
9.2312289e-07
9.2058902e-07
9.1810081e-07
9.1565587e-07
9.1325177e-07
9.1088638e-07
9.0855782e-07
9.0626403e-07
9.0400286e-07
9.0177246e-07
8.9957128e-07
8.9739757e-07
8.9524949e-07
8.9312539e-07
8.9102388e-07