/*--------------------------------*- C++ -*----------------------------------*\
  =========                 |
  \\      /  F ield         | OpenFOAM: The Open Source CFD Toolbox
   \\    /   O peration     | Website:  https://openfoam.org
    \\  /    A nd           | Version:  12
     \\/     M anipulation  |
\*---------------------------------------------------------------------------*/
FoamFile
{
    format      ascii;
    class       volScalarField;
    location    "1900";
    object      nuTilda;
}
// * * * * * * * * * * * * * * * * * * * * * * * * * * * * * * * * * * * * * //

dimensions      [0 2 -1 0 0 0 0];

internalField   nonuniform List<scalar> 
7480
(
1.7132524e-06
1.4354899e-06
1.305801e-06
1.2753005e-06
1.297506e-06
1.3599984e-06
1.4657368e-06
1.6237016e-06
1.8499702e-06
2.1693836e-06
2.6146427e-06
3.222137e-06
4.0132623e-06
4.9520246e-06
5.9131452e-06
6.7319493e-06
7.3042902e-06
7.6211297e-06
7.754279e-06
7.7227972e-06
7.6347757e-06
7.5069262e-06
7.3611781e-06
7.2208619e-06
7.114168e-06
7.0469783e-06
7.0110908e-06
6.9956825e-06
6.9931565e-06
6.9992736e-06
7.0103038e-06
7.022703e-06
7.0345769e-06
7.0133708e-06
6.9772691e-06
6.9414398e-06
6.9102722e-06
6.8845874e-06
6.8633399e-06
6.8447339e-06
6.8272305e-06
6.8100335e-06
6.7929583e-06
6.7764995e-06
6.7635377e-06
6.7619254e-06
6.8010255e-06
6.9510213e-06
7.3239545e-06
7.9585773e-06
8.5877011e-06
9.0180159e-06
9.3327715e-06
9.5474588e-06
9.6839896e-06
9.7684687e-06
9.8229606e-06
9.8620324e-06
9.8921835e-06
9.9171603e-06
9.9386363e-06
9.9574635e-06
9.9743108e-06
9.9898062e-06
1.0004341e-05
1.0018248e-05
1.0031905e-05
1.0045534e-05
1.0059238e-05
1.0073118e-05
1.0087301e-05
1.0101923e-05
1.0117113e-05
1.0132991e-05
1.0149674e-05
1.0167273e-05
1.0185898e-05
1.0205654e-05
1.0226638e-05
1.0248938e-05
1.0272624e-05
1.029774e-05
1.03242e-05
1.0350973e-05
1.0365705e-05
1.0106359e-05
4.3237898e-06
4.0198191e-06
4.0424623e-06
4.0586078e-06
4.0684257e-06
4.0760368e-06
4.0812312e-06
4.0844802e-06
4.0862855e-06
4.0870251e-06
4.0869199e-06
4.0862001e-06
4.0849156e-06
4.0807903e-06
1.9456341e-06
1.8951242e-06
1.8400044e-06
1.7852465e-06
1.7324579e-06
1.6829175e-06
1.6361123e-06
1.5994832e-06
1.5631868e-06
1.5747499e-06
1.6117809e-06
1.6813877e-06
1.7942595e-06
1.9675663e-06
2.2208384e-06
2.5680747e-06
3.0305637e-06
3.591451e-06
4.2375546e-06
4.9640404e-06
5.7623887e-06
6.5335459e-06
7.2466794e-06
7.9038963e-06
8.5014912e-06
9.0391558e-06
9.5204343e-06
9.9516375e-06
1.0344428e-05
1.0710619e-05
1.1053461e-05
1.1372872e-05
1.1665166e-05
1.1924625e-05
1.2154226e-05
1.2363219e-05
1.2561476e-05
1.2763174e-05
1.2973361e-05
1.3190926e-05
1.3412727e-05
1.3636244e-05
1.3859456e-05
1.4080006e-05
1.4298967e-05
1.4499515e-05
1.4691976e-05
1.4905108e-05
1.5184171e-05
1.555694e-05
1.5964511e-05
1.6334848e-05
1.665367e-05
1.6920206e-05
1.7144354e-05
1.7336931e-05
1.750691e-05
1.7662246e-05
1.7808661e-05
1.7950164e-05
1.808702e-05
1.8218878e-05
1.8345994e-05
1.8469195e-05
1.8588715e-05
1.8705109e-05
1.8819392e-05
1.8931991e-05
1.9042934e-05
1.9152307e-05
1.9260326e-05
1.9367256e-05
1.9473361e-05
1.9578884e-05
1.968406e-05
1.9789111e-05
1.9894253e-05
1.999969e-05
2.0105612e-05
2.0212187e-05
2.031956e-05
2.042782e-05
2.0536804e-05
2.0644624e-05
2.0729063e-05
2.0547737e-05
1.7381594e-05
1.5978246e-05
1.4923273e-05
1.4266667e-05
1.3831602e-05
1.3537116e-05
1.3329553e-05
1.3179402e-05
1.306827e-05
1.2984395e-05
1.2919715e-05
1.2869122e-05
1.2828517e-05
1.2795047e-05
1.9702272e-06
1.9525225e-06
1.9328819e-06
1.9122967e-06
1.8910497e-06
1.8687294e-06
1.845136e-06
1.820232e-06
1.7939658e-06
1.7681171e-06
1.7435619e-06
1.7213303e-06
1.7027952e-06
1.689329e-06
1.6766512e-06
1.6782903e-06
1.6905025e-06
1.7346462e-06
1.8191883e-06
1.9540031e-06
2.1540914e-06
2.4384588e-06
2.8197998e-06
3.3266042e-06
3.9400307e-06
4.6541857e-06
5.4791064e-06
6.3631184e-06
7.264996e-06
8.154122e-06
9.0057582e-06
9.8001302e-06
1.0511245e-05
1.1154407e-05
1.1758967e-05
1.2343731e-05
1.2911328e-05
1.3460792e-05
1.398695e-05
1.4493003e-05
1.4982899e-05
1.5460352e-05
1.5925939e-05
1.6378002e-05
1.6816962e-05
1.7240085e-05
1.7645889e-05
1.8037726e-05
1.8434845e-05
1.8848748e-05
1.9273247e-05
1.969626e-05
2.0100932e-05
2.0483293e-05
2.0845739e-05
2.1189404e-05
2.1514932e-05
2.1826868e-05
2.2130822e-05
2.243026e-05
2.2722164e-05
2.3005389e-05
2.3280163e-05
2.3547513e-05
2.380698e-05
2.405959e-05
2.4306927e-05
2.4549163e-05
2.4786046e-05
2.5017583e-05
2.5243986e-05
2.5465518e-05
2.5682437e-05
2.589498e-05
2.6103369e-05
2.6307823e-05
2.6508553e-05
2.6705767e-05
2.6899667e-05
2.7090443e-05
2.7278278e-05
2.7463323e-05
2.7645546e-05
2.7823837e-05
2.7984501e-05
2.8003765e-05
2.6872333e-05
2.6277316e-05
2.582447e-05
2.5548351e-05
2.5380985e-05
2.5286171e-05
2.523501e-05
2.5210294e-05
2.5201354e-05
2.5202174e-05
2.5207048e-05
2.5218033e-05
2.5218278e-05
2.5252298e-05
1.9775482e-06
1.9686516e-06
1.9589464e-06
1.9487936e-06
1.9382735e-06
1.9273886e-06
1.9161385e-06
1.9044164e-06
1.892192e-06
1.8793123e-06
1.8657148e-06
1.8513268e-06
1.8361445e-06
1.8204036e-06
1.8047157e-06
1.7894365e-06
1.7747342e-06
1.7612326e-06
1.7503034e-06
1.7425591e-06
1.7383407e-06
1.7416988e-06
1.7537975e-06
1.7850305e-06
1.8527302e-06
1.9678737e-06
2.1477907e-06
2.4135752e-06
2.7873412e-06
3.3052027e-06
3.9749549e-06
4.7809271e-06
5.719569e-06
6.73423e-06
7.7738235e-06
8.8013392e-06
9.7926911e-06
1.0736013e-05
1.1630775e-05
1.2482936e-05
1.3301025e-05
1.4093908e-05
1.4857281e-05
1.5590903e-05
1.6311707e-05
1.7021703e-05
1.770952e-05
1.8372701e-05
1.9017144e-05
1.9647592e-05
2.0266159e-05
2.0872115e-05
2.1464586e-05
2.2041762e-05
2.2601433e-05
2.3142096e-05
2.3663328e-05
2.4174508e-05
2.4679673e-05
2.5179729e-05
2.5664967e-05
2.6136961e-05
2.6596827e-05
2.7045876e-05
2.7482129e-05
2.7908627e-05
2.8327106e-05
2.8736743e-05
2.9137143e-05
2.9528439e-05
2.9910889e-05
3.0284743e-05
3.0650226e-05
3.1007535e-05
3.1356847e-05
3.169833e-05
3.2032135e-05
3.2358411e-05
3.2677297e-05
3.2988921e-05
3.3293416e-05
3.3590896e-05
3.3881379e-05
3.4164565e-05
3.4434941e-05
3.4651432e-05
3.4507589e-05
3.4475426e-05
3.4464391e-05
3.4504778e-05
3.4585046e-05
3.4695798e-05
3.4825077e-05
3.4963999e-05
3.510633e-05
3.5249232e-05
3.5387167e-05
3.5529872e-05
3.5635907e-05
3.5848894e-05
1.9811989e-06
1.9759067e-06
1.9701945e-06
1.9642319e-06
1.9580538e-06
1.9516625e-06
1.9450546e-06
1.9382225e-06
1.931159e-06
1.9238472e-06
1.9162647e-06
1.9083823e-06
1.9001682e-06
1.8915838e-06
1.882642e-06
1.8733184e-06
1.8636269e-06
1.8534722e-06
1.8428173e-06
1.8318859e-06
1.8210358e-06
1.8104668e-06
1.8003695e-06
1.7912336e-06
1.7845577e-06
1.7783023e-06
1.7791934e-06
1.7846382e-06
1.8013867e-06
1.833789e-06
1.9060457e-06
2.0351811e-06
2.2450525e-06
2.5651292e-06
3.0256539e-06
3.6798831e-06
4.5023767e-06
5.4813684e-06
6.5884809e-06
7.7617107e-06
8.9517384e-06
1.0122465e-05
1.1252974e-05
1.2336798e-05
1.3379486e-05
1.4392134e-05
1.5380719e-05
1.63441e-05
1.7280716e-05
1.8191119e-05
1.907803e-05
1.993899e-05
2.0785495e-05
2.1611485e-05
2.2417128e-05
2.3202532e-05
2.3967269e-05
2.4714604e-05
2.5447668e-05
2.616901e-05
2.6875745e-05
2.7567171e-05
2.8243362e-05
2.8905461e-05
2.9547934e-05
3.0181187e-05
3.0803963e-05
3.1413252e-05
3.2009585e-05
3.2593487e-05
3.3165311e-05
3.3725331e-05
3.4273786e-05
3.4810888e-05
3.5336827e-05
3.5851776e-05
3.6355888e-05
3.6849307e-05
3.7332166e-05
3.7804583e-05
3.826668e-05
3.8718568e-05
3.9160295e-05
3.9591935e-05
4.0011653e-05
4.0409218e-05
4.0702856e-05
4.1006869e-05
4.1294945e-05
4.1582335e-05
4.1874478e-05
4.2173658e-05
4.2477109e-05
4.2780981e-05
4.3081541e-05
4.3377725e-05
4.3663198e-05
4.395488e-05
4.4183288e-05
4.4610243e-05
1.983531e-06
1.9800708e-06
1.9763589e-06
1.9724889e-06
1.9684794e-06
1.9643306e-06
1.9600385e-06
1.9555986e-06
1.9510062e-06
1.9462566e-06
1.9413452e-06
1.9362674e-06
1.931019e-06
1.9255942e-06
1.9199862e-06
1.9141855e-06
1.9081819e-06
1.9019614e-06
1.8954997e-06
1.8887735e-06
1.8817775e-06
1.8744839e-06
1.8669344e-06
1.8588735e-06
1.8505304e-06
1.8420693e-06
1.8337667e-06
1.8257921e-06
1.8183116e-06
1.8124564e-06
1.8062519e-06
1.8064254e-06
1.8099999e-06
1.8222605e-06
1.8498281e-06
1.9060275e-06
2.0196377e-06
2.2168914e-06
2.5343748e-06
3.0100999e-06
3.7166135e-06
4.6280962e-06
5.7294095e-06
6.9807383e-06
8.3101313e-06
9.6593092e-06
1.098822e-05
1.2278144e-05
1.3527391e-05
1.474203e-05
1.5927927e-05
1.7086151e-05
1.8216976e-05
1.9321726e-05
2.040167e-05
2.1458071e-05
2.2490878e-05
2.3500602e-05
2.4489259e-05
2.5459605e-05
2.6412084e-05
2.734643e-05
2.8262482e-05
2.9161059e-05
3.0039641e-05
3.0902134e-05
3.1749635e-05
3.2581449e-05
3.3397487e-05
3.4198043e-05
3.4983467e-05
3.5754072e-05
3.651014e-05
3.7251925e-05
3.7979657e-05
3.8693545e-05
3.9393775e-05
4.0080518e-05
4.0753931e-05
4.1414155e-05
4.2061327e-05
4.2695578e-05
4.3316986e-05
4.3925756e-05
4.4521457e-05
4.5103119e-05
4.5654607e-05
4.6196797e-05
4.6716092e-05
4.7216557e-05
4.770526e-05
4.8188068e-05
4.8666625e-05
4.9140083e-05
4.9606236e-05
5.0065146e-05
5.050927e-05
5.0962546e-05
5.1325158e-05
5.1991191e-05
1.9852535e-06
1.982839e-06
1.9802629e-06
1.9775806e-06
1.9748029e-06
1.9719295e-06
1.9689576e-06
1.9658836e-06
1.9627041e-06
1.9594152e-06
1.9560137e-06
1.9524962e-06
1.94886e-06
1.9451029e-06
1.9412227e-06
1.9372168e-06
1.933082e-06
1.9288145e-06
1.9244084e-06
1.9198569e-06
1.9151519e-06
1.9102822e-06
1.9052392e-06
1.900005e-06
1.8945574e-06
1.8888925e-06
1.8829905e-06
1.8768513e-06
1.8704509e-06
1.8637865e-06
1.8568443e-06
1.8499919e-06
1.8433932e-06
1.8371763e-06
1.8323728e-06
1.8274989e-06
1.8279642e-06
1.8320063e-06
1.8452316e-06
1.8754628e-06
1.9360811e-06
2.0643359e-06
2.2954892e-06
2.6763204e-06
3.2677177e-06
4.1317869e-06
5.2370281e-06
6.5582167e-06
8.0133299e-06
9.5247067e-06
1.1032798e-05
1.2505582e-05
1.3936963e-05
1.5333945e-05
1.6703308e-05
1.8046769e-05
1.9363179e-05
2.0652223e-05
2.1915464e-05
2.3155151e-05
2.4372481e-05
2.5567966e-05
2.6741956e-05
2.7895197e-05
2.9026893e-05
3.0137947e-05
3.1229742e-05
3.2302772e-05
3.3357155e-05
3.4393126e-05
3.5411014e-05
3.6411155e-05
3.7393875e-05
3.8359475e-05
3.9308233e-05
4.0240402e-05
4.1156213e-05
4.2055875e-05
4.2939583e-05
4.3807512e-05
4.465983e-05
4.549669e-05
4.6318206e-05
4.7124608e-05
4.7915959e-05
4.8693224e-05
4.9457144e-05
5.020875e-05
5.0938407e-05
5.1644179e-05
5.2330449e-05
5.3003023e-05
5.3665358e-05
5.4318455e-05
5.4961217e-05
5.5594634e-05
5.620986e-05
5.6837955e-05
5.7346864e-05
5.8275225e-05
1.9866458e-06
1.9848812e-06
1.9830067e-06
1.9810573e-06
1.9790396e-06
1.9769531e-06
1.9747957e-06
1.9725651e-06
1.9702587e-06
1.9678739e-06
1.965408e-06
1.9628587e-06
1.9602237e-06
1.9575008e-06
1.9546883e-06
1.951784e-06
1.9487857e-06
1.9456907e-06
1.9424955e-06
1.9391965e-06
1.9357898e-06
1.9322711e-06
1.9286356e-06
1.9248794e-06
1.9209969e-06
1.9169821e-06
1.9128273e-06
1.9085239e-06
1.904063e-06
1.8994286e-06
1.8946142e-06
1.8895977e-06
1.8843773e-06
1.8789385e-06
1.873264e-06
1.8673598e-06
1.8615572e-06
1.8559897e-06
1.8509688e-06
1.8472467e-06
1.8444931e-06
1.8460782e-06
1.8529673e-06
1.8728146e-06
1.9153391e-06
2.0090417e-06
2.1971713e-06
2.5353703e-06
3.0876445e-06
3.9606927e-06
5.1239755e-06
6.5461033e-06
8.141808e-06
9.8134297e-06
1.1487855e-05
1.3128913e-05
1.4731594e-05
1.6303354e-05
1.7849266e-05
1.9369479e-05
2.086335e-05
2.2331867e-05
2.377635e-05
2.5197455e-05
2.6594862e-05
2.7968759e-05
2.932005e-05
3.0649428e-05
3.1957276e-05
3.3243942e-05
3.4509761e-05
3.575506e-05
3.6980182e-05
3.8185461e-05
3.9371201e-05
4.0537693e-05
4.1685202e-05
4.2813975e-05
4.3924239e-05
4.5016207e-05
4.6090073e-05
4.7146018e-05
4.8184184e-05
4.9204795e-05
5.0208075e-05
5.1194872e-05
5.2168901e-05
5.3129338e-05
5.4069544e-05
5.4985215e-05
5.5877689e-05
5.6751275e-05
5.7609784e-05
5.8455307e-05
5.9287628e-05
6.0108624e-05
6.0908196e-05
6.1724733e-05
6.2392332e-05
6.3605206e-05
1.9878518e-06
1.9865164e-06
1.9851031e-06
1.9836348e-06
1.9821156e-06
1.9805452e-06
1.9789219e-06
1.9772441e-06
1.9755098e-06
1.9737172e-06
1.9718643e-06
1.9699494e-06
1.9679706e-06
1.9659264e-06
1.9638152e-06
1.9616354e-06
1.959385e-06
1.957062e-06
1.9546637e-06
1.9521872e-06
1.9496299e-06
1.9469885e-06
1.9442598e-06
1.9414408e-06
1.9385281e-06
1.9355186e-06
1.9324088e-06
1.9291951e-06
1.9258737e-06
1.9224403e-06
1.9188904e-06
1.9152174e-06
1.9114135e-06
1.9074708e-06
1.9033743e-06
1.8991181e-06
1.8946795e-06
1.8900777e-06
1.8852e-06
1.8801476e-06
1.8750313e-06
1.8700808e-06
1.8653937e-06
1.8617298e-06
1.8584613e-06
1.8593141e-06
1.8642511e-06
1.8799903e-06
1.9174852e-06
1.999404e-06
2.1812749e-06
2.5278089e-06
3.1181665e-06
4.0796937e-06
5.3785846e-06
6.9716508e-06
8.7468499e-06
1.0592181e-05
1.2430735e-05
1.4232991e-05
1.600114e-05
1.7743959e-05
1.9463786e-05
2.1158931e-05
2.2828656e-05
2.4473565e-05
2.6094118e-05
2.7690476e-05
2.9263013e-05
3.0812173e-05
3.2338217e-05
3.3841381e-05
3.5321975e-05
3.6780296e-05
3.8216624e-05
3.9631241e-05
4.1024416e-05
4.2396403e-05
4.3747442e-05
4.5077763e-05
4.6387576e-05
4.767707e-05
4.8946412e-05
5.0195801e-05
5.1425503e-05
5.2635877e-05
5.3830181e-05
5.5008881e-05
5.6168037e-05
5.7303081e-05
5.8413124e-05
5.9500621e-05
6.05689e-05
6.1620546e-05
6.2656013e-05
6.3678038e-05
6.4675357e-05
6.5693901e-05
6.6532569e-05
6.8051181e-05
1.9889541e-06
1.9879158e-06
1.9868203e-06
1.9856831e-06
1.9845068e-06
1.9832911e-06
1.9820349e-06
1.9807368e-06
1.9793954e-06
1.9780094e-06
1.9765771e-06
1.9750973e-06
1.9735686e-06
1.9719898e-06
1.9703595e-06
1.9686764e-06
1.9669392e-06
1.965146e-06
1.963295e-06
1.961384e-06
1.9594109e-06
1.9573731e-06
1.9552684e-06
1.9530942e-06
1.9508481e-06
1.9485274e-06
1.9461296e-06
1.9436521e-06
1.9410921e-06
1.9384468e-06
1.9357134e-06
1.9328886e-06
1.929969e-06
1.926951e-06
1.9238305e-06
1.9206035e-06
1.9172636e-06
1.9138052e-06
1.9102167e-06
1.9064847e-06
1.9026036e-06
1.8985633e-06
1.8943601e-06
1.8899586e-06
1.8853946e-06
1.8809536e-06
1.8767256e-06
1.8733545e-06
1.8704181e-06
1.8712432e-06
1.8762438e-06
1.8923907e-06
1.9326384e-06
2.0250104e-06
2.2372748e-06
2.6500666e-06
3.3778529e-06
4.5345134e-06
6.0725485e-06
7.9081498e-06
9.8970783e-06
1.192162e-05
1.392064e-05
1.5884144e-05
1.7821387e-05
1.9736884e-05
2.1628765e-05
2.3495665e-05
2.5338188e-05
2.7156671e-05
2.8950858e-05
3.0720756e-05
3.2466553e-05
3.4188344e-05
3.5886256e-05
3.7560484e-05
3.9211211e-05
4.0838627e-05
4.2442934e-05
4.402433e-05
4.5582996e-05
4.7119099e-05
4.8632801e-05
5.0124258e-05
5.1593721e-05
5.3041098e-05
5.4468702e-05
5.5878102e-05
5.7267483e-05
5.8633042e-05
5.9972662e-05
6.1287109e-05
6.2578796e-05
6.385032e-05
6.5102556e-05
6.633903e-05
6.7547382e-05
6.878127e-05
6.9803237e-05
7.1648036e-05
1.9899992e-06
1.9891741e-06
1.9883058e-06
1.987405e-06
1.9864736e-06
1.9855111e-06
1.9845168e-06
1.9834895e-06
1.9824282e-06
1.9813318e-06
1.9801992e-06
1.9790293e-06
1.9778211e-06
1.9765734e-06
1.9752853e-06
1.9739558e-06
1.9725836e-06
1.9711675e-06
1.9697058e-06
1.9681971e-06
1.9666395e-06
1.9650313e-06
1.9633705e-06
1.9616554e-06
1.9598838e-06
1.9580538e-06
1.9561634e-06
1.9542104e-06
1.9521928e-06
1.9501083e-06
1.9479545e-06
1.9457291e-06
1.9434294e-06
1.9410527e-06
1.9385965e-06
1.9360578e-06
1.933434e-06
1.9307219e-06
1.9279184e-06
1.9250198e-06
1.9220215e-06
1.9189173e-06
1.915701e-06
1.9123601e-06
1.9088869e-06
1.9052676e-06
1.9015028e-06
1.8975469e-06
1.8934387e-06
1.8894456e-06
1.8856888e-06
1.8827152e-06
1.8806892e-06
1.8821283e-06
1.8889961e-06
1.9104945e-06
1.9635799e-06
2.0957228e-06
2.3943228e-06
2.9611064e-06
3.9939892e-06
5.4801381e-06
7.3578152e-06
9.4735574e-06
1.1672781e-05
1.3861972e-05
1.6016897e-05
1.8145851e-05
2.0254908e-05
2.2342095e-05
2.4405391e-05
2.6444924e-05
2.84606e-05
3.0451873e-05
3.2418554e-05
3.4360602e-05
3.6277922e-05
3.8170513e-05
4.003843e-05
4.1881735e-05
4.3700497e-05
4.5494787e-05
4.7264706e-05
4.901033e-05
5.073183e-05
5.242874e-05
5.4102631e-05
5.5755599e-05
5.7387242e-05
5.8994869e-05
6.0575945e-05
6.2129964e-05
6.3658277e-05
6.5163126e-05
6.664554e-05
6.8109699e-05
6.9542183e-05
7.1004508e-05
7.2221846e-05
7.4412695e-05
1.9910049e-06
1.9903375e-06
1.9896368e-06
1.9889101e-06
1.9881589e-06
1.9873829e-06
1.9865812e-06
1.9857531e-06
1.9848978e-06
1.9840144e-06
1.983102e-06
1.9821598e-06
1.9811868e-06
1.9801823e-06
1.9791455e-06
1.9780754e-06
1.9769711e-06
1.9758316e-06
1.9746556e-06
1.9734419e-06
1.9721892e-06
1.9708959e-06
1.9695606e-06
1.9681819e-06
1.9667581e-06
1.9652877e-06
1.963769e-06
1.9622005e-06
1.9605803e-06
1.9589068e-06
1.957178e-06
1.955392e-06
1.9535468e-06
1.9516402e-06
1.9496701e-06
1.9476343e-06
1.9455304e-06
1.9433562e-06
1.9411093e-06
1.9387873e-06
1.9363876e-06
1.9339074e-06
1.9313437e-06
1.9286929e-06
1.9259516e-06
1.9231138e-06
1.920174e-06
1.9171199e-06
1.9139435e-06
1.9106314e-06
1.907187e-06
1.9035572e-06
1.8998504e-06
1.8962236e-06
1.893167e-06
1.889956e-06
1.8901815e-06
1.8933532e-06
1.9054879e-06
1.9408837e-06
2.0283663e-06
2.2578228e-06
2.7414361e-06
3.6641921e-06
5.1352555e-06
7.0809285e-06
9.3401941e-06
1.1721362e-05
1.4102697e-05
1.645006e-05
1.8772167e-05
2.1075839e-05
2.33587e-05
2.5618566e-05
2.7855295e-05
3.006833e-05
3.2256901e-05
3.4420656e-05
3.6559309e-05
3.8672584e-05
4.0760291e-05
4.2822282e-05
4.4858487e-05
4.6868826e-05
4.88533e-05
5.0811068e-05
5.274323e-05
5.4652025e-05
5.6537792e-05
5.8398885e-05
6.0232882e-05
6.2038475e-05
6.3816013e-05
6.5567144e-05
6.7292795e-05
6.8997618e-05
7.0667116e-05
7.2370743e-05
7.3795399e-05
7.6351701e-05
1.9919718e-06
1.9914241e-06
1.99085e-06
1.990255e-06
1.9896401e-06
1.9890048e-06
1.9883487e-06
1.9876711e-06
1.9869712e-06
1.9862485e-06
1.9855023e-06
1.9847317e-06
1.9839361e-06
1.9831149e-06
1.9822674e-06
1.9813927e-06
1.9804903e-06
1.9795591e-06
1.9785983e-06
1.9776068e-06
1.9765835e-06
1.9755273e-06
1.9744369e-06
1.9733113e-06
1.972149e-06
1.970949e-06
1.9697098e-06
1.9684301e-06
1.9671086e-06
1.9657438e-06
1.9643343e-06
1.9628783e-06
1.9613745e-06
1.9598209e-06
1.9582159e-06
1.9565577e-06
1.9548444e-06
1.9530742e-06
1.9512452e-06
1.9493552e-06
1.9474023e-06
1.9453842e-06
1.9432987e-06
1.9411433e-06
1.9389156e-06
1.9366129e-06
1.9342324e-06
1.9317707e-06
1.9292243e-06
1.9265877e-06
1.923856e-06
1.9210172e-06
1.9180646e-06
1.9149869e-06
1.9117724e-06
1.9083396e-06
1.9049868e-06
1.9018196e-06
1.8992462e-06
1.897735e-06
1.899376e-06
1.9073859e-06
1.9334743e-06
2.0027366e-06
2.1954762e-06
2.6395244e-06
3.5308403e-06
5.0480485e-06
7.1132307e-06
9.5446806e-06
1.2117455e-05
1.4691587e-05
1.7231887e-05
1.9749242e-05
2.2249485e-05
2.4729453e-05
2.7187254e-05
2.9622471e-05
3.2034066e-05
3.4421098e-05
3.6782927e-05
3.9118968e-05
4.1428822e-05
4.371211e-05
4.5968513e-05
4.8196726e-05
5.0397552e-05
5.2573171e-05
5.4724117e-05
5.6849494e-05
5.8947234e-05
6.1015635e-05
6.3054224e-05
6.5063946e-05
6.7045405e-05
6.9003515e-05
7.0922643e-05
7.2880205e-05
7.452397e-05
7.7464726e-05
1.9928969e-06
1.9924419e-06
1.9919657e-06
1.9914724e-06
1.9909626e-06
1.990436e-06
1.9898922e-06
1.9893306e-06
1.9887507e-06
1.988152e-06
1.9875337e-06
1.9868955e-06
1.9862366e-06
1.9855566e-06
1.9848549e-06
1.9841308e-06
1.9833837e-06
1.982613e-06
1.9818178e-06
1.9809972e-06
1.9801505e-06
1.9792766e-06
1.9783747e-06
1.9774437e-06
1.9764825e-06
1.9754903e-06
1.9744658e-06
1.9734081e-06
1.972316e-06
1.9711883e-06
1.9700238e-06
1.9688212e-06
1.9675792e-06
1.9662964e-06
1.9649715e-06
1.9636028e-06
1.9621891e-06
1.9607286e-06
1.9592199e-06
1.9576612e-06
1.9560509e-06
1.9543872e-06
1.9526682e-06
1.9508919e-06
1.9490563e-06
1.9471592e-06
1.9451983e-06
1.9431715e-06
1.9410761e-06
1.9389099e-06
1.9366702e-06
1.9343544e-06
1.931959e-06
1.9294795e-06
1.9269074e-06
1.9242346e-06
1.9214443e-06
1.9185438e-06
1.9154713e-06
1.9123424e-06
1.9093194e-06
1.9067905e-06
1.904819e-06
1.9059016e-06
1.9121901e-06
1.9341825e-06
1.9965123e-06
2.179842e-06
2.6297559e-06
3.5743784e-06
5.2217966e-06
7.4794869e-06
1.0123928e-05
1.290106e-05
1.5669538e-05
1.8405007e-05
2.1121161e-05
2.3820968e-05
2.6500733e-05
2.9158951e-05
3.179457e-05
3.440621e-05
3.6992948e-05
3.9553888e-05
4.2088151e-05
4.4593787e-05
4.707133e-05
4.9522795e-05
5.1948486e-05
5.4347849e-05
5.6719157e-05
5.9060585e-05
6.1371057e-05
6.3650807e-05
6.589995e-05
6.8123448e-05
7.0304429e-05
7.2528224e-05
7.4402642e-05
7.7747553e-05
1.9937806e-06
1.9933985e-06
1.9929993e-06
1.9925859e-06
1.9921587e-06
1.9917175e-06
1.9912619e-06
1.9907914e-06
1.9903057e-06
1.9898042e-06
1.9892865e-06
1.988752e-06
1.9882004e-06
1.9876311e-06
1.9870437e-06
1.9864377e-06
1.9858124e-06
1.9851674e-06
1.984502e-06
1.9838154e-06
1.9831071e-06
1.9823761e-06
1.9816217e-06
1.9808431e-06
1.9800394e-06
1.9792098e-06
1.9783534e-06
1.9774694e-06
1.9765567e-06
1.9756144e-06
1.9746415e-06
1.973637e-06
1.9725998e-06
1.9715286e-06
1.9704224e-06
1.96928e-06
1.9681001e-06
1.9668814e-06
1.9656227e-06
1.9643226e-06
1.9629796e-06
1.9615924e-06
1.9601593e-06
1.9586787e-06
1.957149e-06
1.9555684e-06
1.953935e-06
1.9522468e-06
1.950502e-06
1.9486983e-06
1.946834e-06
1.944907e-06
1.9429153e-06
1.9408567e-06
1.9387282e-06
1.9365276e-06
1.9342497e-06
1.9318899e-06
1.9294376e-06
1.9268827e-06
1.9242255e-06
1.9214095e-06
1.918489e-06
1.9156495e-06
1.913249e-06
1.91125e-06
1.9121838e-06
1.9181022e-06
1.9397291e-06
2.0040376e-06
2.2051652e-06
2.7116444e-06
3.8154868e-06
5.697253e-06
8.2298569e-06
1.1123789e-05
1.4112101e-05
1.7076474e-05
2.0011711e-05
2.2930743e-05
2.5832683e-05
2.8714648e-05
3.1575556e-05
3.4413667e-05
3.722721e-05
4.0013352e-05
4.2772241e-05
4.5505624e-05
4.8213231e-05
5.0894394e-05
5.3547513e-05
5.6170731e-05
5.8762555e-05
6.1322551e-05
6.3850242e-05
6.6350425e-05
6.8804865e-05
7.130671e-05
7.3422956e-05
7.7191128e-05
1.9946257e-06
1.994302e-06
1.9939642e-06
1.9936145e-06
1.9932532e-06
1.9928801e-06
1.9924948e-06
1.992097e-06
1.9916863e-06
1.9912623e-06
1.9908246e-06
1.9903729e-06
1.9899066e-06
1.9894255e-06
1.9889292e-06
1.9884171e-06
1.9878888e-06
1.9873438e-06
1.9867817e-06
1.9862018e-06
1.9856035e-06
1.9849861e-06
1.9843491e-06
1.9836917e-06
1.9830132e-06
1.9823129e-06
1.9815901e-06
1.9808441e-06
1.980074e-06
1.979279e-06
1.9784583e-06
1.9776111e-06
1.9767363e-06
1.9758332e-06
1.9749006e-06
1.9739376e-06
1.9729432e-06
1.9719163e-06
1.9708559e-06
1.9697607e-06
1.9686296e-06
1.9674615e-06
1.9662549e-06
1.9650086e-06
1.9637211e-06
1.9623911e-06
1.9610169e-06
1.9595969e-06
1.9581296e-06
1.9566131e-06
1.9550459e-06
1.9534263e-06
1.9517525e-06
1.9500227e-06
1.9482348e-06
1.9463867e-06
1.9444761e-06
1.9425006e-06
1.9404578e-06
1.938344e-06
1.9361556e-06
1.9338826e-06
1.9315156e-06
1.9290521e-06
1.9264404e-06
1.9237134e-06
1.9210646e-06
1.9188149e-06
1.9170581e-06
1.9181534e-06
1.9249169e-06
1.9503632e-06
2.027085e-06
2.2823712e-06
2.913473e-06
4.3357211e-06
6.5728005e-06
9.4416724e-06
1.259626e-05
1.5788468e-05
1.8948174e-05
2.2087655e-05
2.5213377e-05
2.8321465e-05
3.1409461e-05
3.4473682e-05
3.7513649e-05
4.0530749e-05
4.3523834e-05
4.6491648e-05
4.9432348e-05
5.2343954e-05
5.5224642e-05
5.8073364e-05
6.088898e-05
6.3675931e-05
6.6414462e-05
6.920539e-05
7.1574091e-05
7.5782754e-05
1.9954383e-06
1.9951618e-06
1.9948737e-06
1.9945755e-06
1.9942674e-06
1.9939492e-06
1.9936207e-06
1.9932816e-06
1.9929314e-06
1.99257e-06
1.9921969e-06
1.9918119e-06
1.9914146e-06
1.9910046e-06
1.9905816e-06
1.9901453e-06
1.9896952e-06
1.989231e-06
1.9887521e-06
1.9882581e-06
1.9877485e-06
1.9872227e-06
1.9866803e-06
1.9861205e-06
1.9855429e-06
1.9849468e-06
1.9843316e-06
1.9836966e-06
1.9830413e-06
1.9823649e-06
1.9816667e-06
1.980946e-06
1.9802021e-06
1.979434e-06
1.9786411e-06
1.9778224e-06
1.9769771e-06
1.9761044e-06
1.9752032e-06
1.9742727e-06
1.9733118e-06
1.9723196e-06
1.9712949e-06
1.9702367e-06
1.9691437e-06
1.9680147e-06
1.9668485e-06
1.9656437e-06
1.9643989e-06
1.9631127e-06
1.9617837e-06
1.9604105e-06
1.9589917e-06
1.9575256e-06
1.9560105e-06
1.9544447e-06
1.9528262e-06
1.951153e-06
1.9494233e-06
1.9476351e-06
1.9457861e-06
1.9438742e-06
1.9418963e-06
1.939849e-06
1.937723e-06
1.9355088e-06
1.9332041e-06
1.9307565e-06
1.9282067e-06
1.9257511e-06
1.9236577e-06
1.9224419e-06
1.9240811e-06
1.9333486e-06
1.9669656e-06
2.0756718e-06
2.4402789e-06
3.3383196e-06
5.1864381e-06
7.8960173e-06
1.1144008e-05
1.4556577e-05
1.7953029e-05
2.1319267e-05
2.4670656e-05
2.8004166e-05
3.1318574e-05
3.461544e-05
3.7892475e-05
4.1147413e-05
4.4377745e-05
4.7581134e-05
5.0755378e-05
5.3898815e-05
5.7009573e-05
6.0091553e-05
6.3123311e-05
6.6213134e-05
6.8843968e-05
7.3509658e-05
1.996227e-06
1.9959893e-06
1.9957417e-06
1.9954855e-06
1.9952209e-06
1.9949476e-06
1.9946654e-06
1.9943741e-06
1.9940734e-06
1.993763e-06
1.9934426e-06
1.993112e-06
1.9927709e-06
1.9924189e-06
1.9920558e-06
1.9916812e-06
1.9912948e-06
1.9908964e-06
1.9904854e-06
1.9900614e-06
1.9896241e-06
1.989173e-06
1.9887076e-06
1.9882274e-06
1.9877319e-06
1.9872206e-06
1.986693e-06
1.9861486e-06
1.9855867e-06
1.9850068e-06
1.9844083e-06
1.9837906e-06
1.9831531e-06
1.9824949e-06
1.9818156e-06
1.9811143e-06
1.9803903e-06
1.9796428e-06
1.9788712e-06
1.9780745e-06
1.9772519e-06
1.9764027e-06
1.9755258e-06
1.9746202e-06
1.9736851e-06
1.9727194e-06
1.971722e-06
1.9706917e-06
1.9696275e-06
1.968528e-06
1.9673923e-06
1.9662189e-06
1.9650068e-06
1.9637545e-06
1.9624606e-06
1.9611237e-06
1.9597419e-06
1.9583139e-06
1.9568378e-06
1.955312e-06
1.9537347e-06
1.952104e-06
1.9504181e-06
1.948675e-06
1.9468726e-06
1.945008e-06
1.9430781e-06
1.9410738e-06
1.9389853e-06
1.9368122e-06
1.9344978e-06
1.9320902e-06
1.9299673e-06
1.9274619e-06
1.9276053e-06
1.9305097e-06
1.9453025e-06
1.9953118e-06
2.184702e-06
2.7460846e-06
4.1380646e-06
6.572118e-06
9.8137392e-06
1.3411104e-05
1.7047546e-05
2.0644216e-05
2.4221298e-05
2.7788363e-05
3.1341629e-05
3.48783e-05
3.839509e-05
4.1889097e-05
4.5357598e-05
4.8798216e-05
5.2208254e-05
5.5590884e-05
5.8922775e-05
6.2319461e-05
6.5220619e-05
7.0358167e-05
1.9970003e-06
1.9967944e-06
1.9965803e-06
1.9963588e-06
1.99613e-06
1.9958937e-06
1.9956497e-06
1.9953978e-06
1.9951378e-06
1.9948695e-06
1.9945925e-06
1.9943067e-06
1.9940118e-06
1.9937076e-06
1.9933938e-06
1.9930701e-06
1.9927362e-06
1.9923919e-06
1.9920367e-06
1.9916705e-06
1.9912927e-06
1.9909029e-06
1.9905009e-06
1.9900862e-06
1.9896583e-06
1.9892168e-06
1.9887613e-06
1.9882912e-06
1.9878062e-06
1.9873057e-06
1.9867892e-06
1.9862561e-06
1.985706e-06
1.9851382e-06
1.9845521e-06
1.9839472e-06
1.9833229e-06
1.9826783e-06
1.982013e-06
1.9813262e-06
1.9806172e-06
1.9798853e-06
1.9791296e-06
1.9783494e-06
1.9775438e-06
1.976712e-06
1.975853e-06
1.9749659e-06
1.9740496e-06
1.9731033e-06
1.9721258e-06
1.9711161e-06
1.9700733e-06
1.9689961e-06
1.9678833e-06
1.9667336e-06
1.9655458e-06
1.9643183e-06
1.9630498e-06
1.9617388e-06
1.9603839e-06
1.9589833e-06
1.9575356e-06
1.9560389e-06
1.9544916e-06
1.9528919e-06
1.9512378e-06
1.9495275e-06
1.9477581e-06
1.9459262e-06
1.944025e-06
1.942034e-06
1.93999e-06
1.9377234e-06
1.9354948e-06
1.9335183e-06
1.9317333e-06
1.9325345e-06
1.938714e-06
1.9650867e-06
2.05686e-06
2.4108386e-06
3.3761842e-06
5.491622e-06
8.6397178e-06
1.23719e-05
1.6243142e-05
2.008597e-05
2.3904485e-05
2.7712021e-05
3.1506003e-05
3.5283672e-05
3.9041867e-05
4.2777372e-05
4.6486585e-05
5.0171773e-05
5.380751e-05
5.7516335e-05
6.0693784e-05
6.6315399e-05
1.9977646e-06
1.9975854e-06
1.9973991e-06
1.9972064e-06
1.9970073e-06
1.9968018e-06
1.9965896e-06
1.9963705e-06
1.9961444e-06
1.995911e-06
1.9956702e-06
1.9954216e-06
1.9951652e-06
1.9949006e-06
1.9946278e-06
1.9943463e-06
1.994056e-06
1.9937567e-06
1.993448e-06
1.9931296e-06
1.9928012e-06
1.9924625e-06
1.9921132e-06
1.9917528e-06
1.991381e-06
1.9909974e-06
1.9906017e-06
1.9901934e-06
1.9897721e-06
1.9893375e-06
1.988889e-06
1.9884262e-06
1.9879486e-06
1.9874557e-06
1.986947e-06
1.986422e-06
1.9858802e-06
1.985321e-06
1.9847438e-06
1.9841481e-06
1.9835331e-06
1.9828984e-06
1.9822431e-06
1.9815667e-06
1.9808684e-06
1.9801474e-06
1.979403e-06
1.9786343e-06
1.9778405e-06
1.9770207e-06
1.9761741e-06
1.9752998e-06
1.9743969e-06
1.9734644e-06
1.9725013e-06
1.9715064e-06
1.9704787e-06
1.9694168e-06
1.9683197e-06
1.9671861e-06
1.9660147e-06
1.9648041e-06
1.963553e-06
1.9622598e-06
1.9609232e-06
1.9595414e-06
1.958113e-06
1.9566361e-06
1.9551093e-06
1.9535304e-06
1.9518981e-06
1.9502087e-06
1.9484596e-06
1.9466431e-06
1.9447394e-06
1.9427635e-06
1.9406305e-06
1.938578e-06
1.9367873e-06
1.9361804e-06
1.9384973e-06
1.9522462e-06
2.0040074e-06
2.2173651e-06
2.8876239e-06
4.6886797e-06
7.6741724e-06
1.1489691e-05
1.5585759e-05
1.9678011e-05
2.3740121e-05
2.7790654e-05
3.1828753e-05
3.5851232e-05
3.9854162e-05
4.3838908e-05
4.7777838e-05
5.1800284e-05
5.5256843e-05
6.1370868e-05
1.9985252e-06
1.9983683e-06
1.9982054e-06
1.9980369e-06
1.9978628e-06
1.9976831e-06
1.9974975e-06
1.997306e-06
1.9971082e-06
1.9969041e-06
1.9966935e-06
1.9964762e-06
1.996252e-06
1.9960207e-06
1.9957822e-06
1.9955361e-06
1.9952824e-06
1.9950207e-06
1.9947509e-06
1.9944726e-06
1.9941856e-06
1.9938896e-06
1.9935844e-06
1.9932695e-06
1.9929447e-06
1.9926096e-06
1.9922639e-06
1.9919073e-06
1.9915394e-06
1.9911599e-06
1.9907683e-06
1.9903642e-06
1.9899473e-06
1.989517e-06
1.9890731e-06
1.9886149e-06
1.9881421e-06
1.9876542e-06
1.9871507e-06
1.986631e-06
1.9860947e-06
1.9855411e-06
1.9849697e-06
1.98438e-06
1.9837712e-06
1.9831427e-06
1.9824939e-06
1.9818241e-06
1.9811325e-06
1.9804183e-06
1.9796809e-06
1.9789195e-06
1.9781333e-06
1.9773214e-06
1.976483e-06
1.9756171e-06
1.9747227e-06
1.9737989e-06
1.9728445e-06
1.9718585e-06
1.9708399e-06
1.9697874e-06
1.9686998e-06
1.967576e-06
1.9664146e-06
1.9652142e-06
1.9639735e-06
1.9626911e-06
1.9613653e-06
1.9599947e-06
1.9585777e-06
1.9571127e-06
1.9555975e-06
1.9540314e-06
1.9524101e-06
1.9507305e-06
1.9489799e-06
1.9471616e-06
1.9451967e-06
1.943208e-06
1.941414e-06
1.9398313e-06
1.9407993e-06
1.9479044e-06
1.9796986e-06
2.1025857e-06
2.5999536e-06
4.027266e-06
6.8499504e-06
1.0746474e-05
1.507527e-05
1.9430044e-05
2.374452e-05
2.8043686e-05
3.2330277e-05
3.6606132e-05
4.0842238e-05
4.5174824e-05
4.8909089e-05
5.5518415e-05
1.9992864e-06
1.9991485e-06
1.9990053e-06
1.9988572e-06
1.9987042e-06
1.9985463e-06
1.9983832e-06
1.9982149e-06
1.9980411e-06
1.9978618e-06
1.9976767e-06