/*--------------------------------*- C++ -*----------------------------------*\
  =========                 |
  \\      /  F ield         | OpenFOAM: The Open Source CFD Toolbox
   \\    /   O peration     | Website:  https://openfoam.org
    \\  /    A nd           | Version:  12
     \\/     M anipulation  |
\*---------------------------------------------------------------------------*/
FoamFile
{
    format      ascii;
    class       volScalarField;
    location    "1900";
    object      p;
}
// * * * * * * * * * * * * * * * * * * * * * * * * * * * * * * * * * * * * * //

dimensions      [0 2 -2 0 0 0 0];

internalField   nonuniform List<scalar> 
7480
(
0.0087170874
0.0081282954
0.007020193
0.0064119955
0.0061121965
0.0058667509
0.0056062828
0.0053527104
0.00511262
0.0048747124
0.0046318734
0.0043831669
0.0041395803
0.0039208796
0.0037505971
0.00363943
0.0035848187
0.0035523093
0.0035287896
0.0035124939
0.0035033711
0.0034936723
0.0034812796
0.0034551534
0.0034163271
0.0033734281
0.0033306236
0.0032903436
0.0032499375
0.0032100593
0.0031716322
0.0031346469
0.0030996685
0.0030647171
0.0030264303
0.0029853208
0.0029431515
0.0029014831
0.0028616683
0.0028235697
0.0027865085
0.0027504795
0.0027155367
0.0026816232
0.0026483385
0.0026150914
0.0025814278
0.0025476807
0.0025139482
0.0024789061
0.0024411605
0.0024032528
0.0023676297
0.0023346288
0.0023020493
0.0022684886
0.0022331601
0.0021953666
0.0021561911
0.0021170078
0.0020777935
0.0020380866
0.0019979632
0.0019574764
0.0019163992
0.0018747569
0.0018326863
0.0017901107
0.0017469957
0.001703401
0.0016592046
0.0016143638
0.0015689374
0.0015228059
0.0014759767
0.0014284606
0.0013801194
0.0013309912
0.0012810456
0.0012301037
0.0011783748
0.0011255253
0.0010712378
0.0010158441
0.00095826845
0.00089060849
0.00081686455
0.00076201287
0.00070787049
0.00065015972
0.00059209506
0.00053549627
0.00048021624
0.00042550786
0.00037321278
0.000320322
0.0002839097
0.00022600751
0.00038490055
-0.00027975516
0.0082807058
0.0076994613
0.0068348842
0.0063081384
0.0060393348
0.0058145103
0.0055723228
0.0053354437
0.0051150013
0.0049026995
0.0046924784
0.0044828602
0.004282058
0.0041015046
0.0039515174
0.0038378732
0.0037546821
0.0036996098
0.0036591658
0.0036255525
0.0035933315
0.0035601562
0.0035209575
0.0034757815
0.0034287881
0.0033817008
0.0033376463
0.0032969368
0.003257001
0.0032178712
0.0031800416
0.0031434043
0.0031081531
0.0030724807
0.0030337998
0.0029927375
0.002950866
0.0029095486
0.0028699447
0.0028318153
0.0027945152
0.002758136
0.0027227968
0.0026884813
0.0026547145
0.0026209046
0.0025866946
0.0025522362
0.0025176447
0.0024818061
0.0024443654
0.0024072612
0.0023724448
0.0023394187
0.0023063193
0.0022722279
0.0022365518
0.0021985894
0.0021593209
0.0021200474
0.0020807411
0.0020409463
0.0020007405
0.001960174
0.0019190161
0.0018772929
0.00183514
0.0017924792
0.0017492772
0.0017055956
0.0016613135
0.001616389
0.0015708808
0.0015246695
0.0014777628
0.0014301715
0.0013817592
0.0013325653
0.0012825581
0.0012315574
0.0011797724
0.0011268685
0.0010725261
0.0010170685
0.00095925043
0.00089012471
0.00081948574
0.00076662944
0.00071216259
0.00065347838
0.00059474325
0.00053765703
0.0004819915
0.00042699097
0.0003744927
0.00032145278
0.00028492766
0.000227018
0.00038595688
-0.00027898807
0.0079896849
0.0075790556
0.0069020189
0.0063869679
0.0060969457
0.0058591033
0.0056106726
0.0053669503
0.0051393396
0.0049197037
0.0047017311
0.00448261
0.0042704701
0.0040762125
0.0039117685
0.0037859184
0.0036994091
0.0036490322
0.0036195959
0.0035974612
0.0035744785
0.0035485
0.0035177749
0.0034843211
0.0034478497
0.0034081468
0.0033670727
0.0033253851
0.003283509
0.0032418078
0.0032008128
0.0031605683
0.0031217121
0.003083387
0.0030433322
0.0030016579
0.0029595237
0.0029181104
0.002878475
0.002840289
0.0028028559
0.002766285
0.0027307063
0.002696125
0.0026619699
0.0026276533
0.0025929451
0.0025580518
0.0025229993
0.0024868468
0.002449428
0.0024121722
0.002376981
0.0023434953
0.0023100598
0.0022757872
0.0022400204
0.0022020308
0.0021627413
0.0021234151
0.0020840268
0.0020441326
0.002003823
0.0019631516
0.0019218899
0.0018800689
0.001837823
0.0017950692
0.0017517747
0.0017080026
0.0016636323
0.0016186224
0.0015730317
0.0015267404
0.0014797565
0.0014320908
0.0013836057
0.0013343405
0.0012842638
0.0012331964
0.0011813479
0.0011283829
0.0010739838
0.0010184838
0.00096052698
0.00089094534
0.0008237229
0.0007710797
0.00071614517
0.00065693335
0.00059775208
0.00054024393
0.00048420045
0.00042889493
0.00037615891
0.00032291378
0.00028623188
0.00022832016
0.00038717382
-0.00027802755
0.0077640041
0.0074468278
0.0068507681
0.0063462881
0.0060458395
0.0058103998
0.0055700574
0.0053330297
0.005111219
0.0048983586
0.0046882724
0.0044785458
0.0042770643
0.004093911
0.0039400151
0.0038227246
0.0037418848
0.0036917214
0.0036579928
0.0036282267
0.0035971249
0.0035640921
0.0035283718
0.0034909926
0.0034510721
0.003409344
0.0033668621
0.0033243151
0.0032834574
0.0032441131
0.0032060518
0.0031689471
0.0031321128
0.0030944178
0.0030546636
0.0030128443
0.0029699978
0.0029274686
0.0028866959
0.0028476644
0.0028096947
0.0027727554
0.0027368905
0.0027021346
0.0026678535
0.0026333624
0.0025984178
0.0025633411
0.0025280129
0.0024915615
0.0024538589
0.0024162545
0.0023807026
0.0023469306
0.002313318
0.0022789255
0.0022430767
0.0022050703
0.0021657838
0.0021264252
0.0020869698
0.0020469953
0.0020066084
0.0019658588
0.0019245166
0.0018826214
0.0018403031
0.0017974727
0.0017540997
0.0017102492
0.0016658004
0.001620713
0.0015750461
0.0015286791
0.0014816211
0.0014338826
0.0013853244
0.001335986
0.0012858372
0.0012346992
0.0011827829
0.0011297519
0.0010752923
0.0010197386
0.00096177122
0.00089337356
0.00082724631
0.00077408305
0.00071881984
0.00065937359
0.00059995028
0.0005421998
0.00048594535
0.0004304519
0.00037754331
0.00032414736
0.00028735175
0.00022933013
0.00038822032
-0.00027721916
0.0075576155
0.0072962562
0.0067813169
0.006322743
0.0060321208
0.0058053667
0.0055737215
0.0053417016
0.005122476
0.0049120506
0.0047049271
0.0044990769
0.0043013655
0.0041208852
0.0039670789
0.0038466909
0.0037599043
0.0037016868
0.0036606675
0.0036261194
0.0035929592
0.0035597208
0.0035248256
0.0034882133
0.003449159
0.0034082687
0.0033663138
0.0033241492
0.0032834461
0.0032440124
0.0032058021
0.0031688838
0.0031320903
0.0030943603
0.0030554415
0.0030152135
0.0029743855
0.002933823
0.0028941227
0.0028553706
0.0028173709
0.0027799964
0.002743381
0.0027079005
0.0026731249
0.002638322
0.0026031424
0.0025679056
0.0025324376
0.0024958346
0.0024579827
0.0024202406
0.0023845053
0.0023505085
0.0023166872
0.0022821161
0.0022461365
0.0022080818
0.0021687782
0.0021293726
0.0020898488
0.002049803
0.0020093509
0.0019685316
0.0019271171
0.0018851602
0.0018427789
0.0017998775
0.0017564313
0.0017125077
0.0016679849
0.0016228237
0.0015770834
0.0015306429
0.0014835121
0.0014357017
0.0013870718
0.0013376628
0.0012874444
0.0012362377
0.0011842552
0.0011311589
0.0010766364
0.0010210198
0.00096305271
0.00089569404
0.00083021971
0.00077689993
0.00072144621
0.00066179741
0.00060214086
0.00054415941
0.00048770057
0.00043201638
0.00037893312
0.00032539544
0.00028848531
0.00023031801
0.0003892392
-0.0002763253
0.0073686489
0.007150737
0.0067135072
0.0063004181
0.0060145618
0.0057877493
0.0055593716
0.0053301415
0.005112711
0.0049052562
0.0047011209
0.0045004782
0.0043080459
0.0041320747
0.0039812421
0.0038618062
0.0037742643
0.0037141262
0.0036715169
0.0036362476
0.0036027254
0.003568929
0.0035332962
0.003495734
0.0034559177
0.0034144015
0.0033719271
0.0033293771
0.0032881245
0.0032480934
0.0032092392
0.0031715004
0.0031337516
0.0030951913
0.0030557165
0.0030151886
0.0029743452
0.0029339752
0.0028943142
0.0028558154
0.0028187141
0.0027826773
0.0027474262
0.0027127228
0.0026781884
0.0026433859
0.0026079288
0.0025722496
0.0025364072
0.0024995706
0.0024615978
0.0024238046
0.0023879755
0.0023538142
0.002319824
0.0022851183
0.0022490474
0.0022109578
0.0021716374
0.0021321952
0.0020926233
0.0020525241
0.0020120216
0.0019711457
0.0019296719
0.0018876652
0.0018452317
0.0018022698
0.0017587609
0.0017147741
0.0016701866
0.0016249599
0.0015791541
0.001532647
0.0014854499
0.0014375733
0.001388877
0.0013394027
0.0012891194
0.0012378481
0.0011858034
0.0011326451
0.0010780618
0.0010223815
0.00096439423
0.00089773386
0.00083297809
0.00077978843
0.0007242755
0.00066446683
0.00060458005
0.00054634732
0.00048964756
0.00043374546
0.00038047262
0.00032677587
0.00028972536
0.0002314001
0.00039027646
-0.00027523589
0.0071961092
0.0070121793
0.0066408009
0.0062686284
0.0059899348
0.0057654416
0.0055438174
0.005321251
0.0051085569
0.0049060448
0.0047058894
0.004510797
0.0043236214
0.0041519353
0.004003754
0.003884752
0.0037955626
0.0037321218
0.0036857523
0.0036470852
0.0036106363
0.0035743969
0.0035370097
0.0034982511
0.0034578134
0.0034160109
0.0033734706
0.0033309698
0.0032896594
0.0032495893
0.0032106744
0.0031727921
0.0031349908
0.0030965306
0.0030572057
0.0030168379
0.0029760481
0.0029355142
0.0028955274
0.0028566937
0.0028193093
0.0027831137
0.0027478098
0.0027129788
0.0026785668
0.0026444241
0.0026100617
0.0025752459
0.0025397633
0.0025031388
0.0024651822
0.0024272131
0.0023911073
0.0023566743
0.0023224801
0.002287655
0.0022515414
0.002213463
0.0021741617
0.00213472
0.0020951362
0.0020550126
0.002014486
0.0019735797
0.0019320692
0.0018900288
0.0018475593
0.0018045549
0.001761
0.0017169657
0.0016723275
0.0016270484
0.0015811893
0.0015346267
0.0014873734
0.00143944
0.0013906856
0.0013411535
0.0012908121
0.0012394821
0.0011873809
0.0011341655
0.0010795256
0.0010237843
0.00096576754
0.0008996755
0.00083563945
0.00078262525
0.00072711805
0.00066720535
0.00060711916
0.00054864507
0.00049170217
0.00043557733
0.00038210829
0.0003282441
0.00029103629
0.00023254499
0.00039128639
-0.00027393621
0.0070379656
0.0068802108
0.0065637594
0.0062303352
0.0059630317
0.005742819
0.0055280658
0.0053118369
0.0051032944
0.0049039419
0.0047080529
0.0045173984
0.0043347584
0.004166924
0.0040211533
0.003902561
0.0038118952
0.0037455667
0.0036960055
0.0036547411
0.0036164581
0.0035790039
0.0035409671
0.0035018596
0.0034613092
0.0034194908
0.0033769756
0.003334489
0.0032930472
0.0032527971
0.0032136366
0.0031754256
0.003137348
0.0030986803
0.0030591836
0.0030187358
0.002977893
0.0029373163
0.0028973511
0.0028585352
0.0028210864
0.0027847216
0.0027491077
0.0027138867
0.0026791244
0.0026447324
0.0026103145
0.0025753936
0.0025398424
0.0025036368
0.0024665513
0.002429413
0.0023936793
0.0023593274
0.0023250211
0.0022899712
0.0022536898
0.0022155598
0.0021762549
0.0021368217
0.0020972569
0.0020571445
0.0020166296
0.0019757289
0.0019342119
0.0018921629
0.0018496811
0.0018066565
0.0017630764
0.0017190139
0.0016743425
0.0016290275
0.0015831304
0.0015365261
0.0014892297
0.0014412514
0.0013924496
0.0013428696
0.0012924789
0.0012410982
0.0011889479
0.0011356819
0.0010809912
0.0010251933
0.00096714796
0.00090159371
0.00083822089
0.00078535142
0.00072987532
0.00066990057
0.00060964851
0.00055095557
0.00049378407
0.00043744509
0.00038378277
0.00032975279
0.00029237935
0.00023371458
0.00039222054
-0.00027241216
0.0068922856
0.0067549099
0.0064843016
0.0061870574
0.0059334685
0.0057183032
0.0055099616
0.0053001796
0.0050963102
0.0049008357
0.0047097981
0.0045239041
0.0043461196
0.0041824459
0.0040393775
0.0039215466
0.0038297968
0.0037610018
0.0037085458
0.0036647857
0.0036245753
0.003585611
0.00354645
0.0035064662
0.0034652942
0.0034230493
0.0033802497
0.0033375623
0.003295871
0.0032553678
0.003215939
0.0031774219
0.0031390968
0.0031002675
0.0030606857
0.0030202651
0.0029794877
0.0029389745
0.0028990731
0.0028602492
0.002822713
0.002786233
0.0027505067
0.0027152245
0.0026804085
0.0026459158
0.0026113129
0.0025761197
0.0025403076
0.0025039438
0.002466877
0.0024297533
0.0023939413
0.0023597479
0.0023259709
0.0022914277
0.0022554066
0.0022174566
0.0021781783
0.0021386636
0.0020990346
0.0020588974
0.0020183885
0.0019775142
0.0019360199
0.0018939924
0.0018515282
0.0018085106
0.0017649303
0.0017208628
0.0016761794
0.0016308478
0.0015849308
0.0015383014
0.0014909773
0.0014429684
0.0013941324
0.0013445166
0.0012940877
0.0012426661
0.0011904763
0.0011371681
0.001082434
0.0010265859
0.00096851725
0.00090348507
0.00084072197
0.00078796804
0.00073253385
0.00067252503
0.00061213471
0.00055324547
0.00049586215
0.00043932067
0.00038547163
0.0003312811
0.00029373625
0.00023489092
0.0003930427
-0.00027063277
0.0067572842
0.0066361094
0.0064036567
0.0061393846
0.0059008135
0.0056917572
0.0054899765
0.0052870889
0.0050885555
0.004897419
0.0047111485
0.0045299454
0.0043568013
0.0041970491
0.004056503
0.0039393817
0.0038465998
0.0037754658
0.0037201986
0.0036739343
0.0036317518
0.0035912552
0.003550993
0.0035102416
0.0034686081
0.0034261267
0.0033832271
0.0033404991
0.0032987021
0.0032580517
0.0032184365
0.0031796773
0.0031411395
0.0031021691
0.0030625119
0.0030221026
0.0029813594
0.0029408632
0.0029009658
0.0028620905
0.0028244522
0.0027878582
0.0027520203
0.002716644
0.0026817096
0.0026470755
0.0026123454
0.0025770869
0.0025412624
0.0025048938
0.0024678088
0.0024305757
0.0023945276
0.002360074
0.0023261552
0.0022914735
0.0022553888
0.0022177565
0.0021790482
0.0021399703
0.0021005433
0.0020604812
0.002019934
0.0019790157
0.0019375054
0.0018954864
0.0018530499
0.0018100607
0.0017665058
0.0017224597
0.0016777889
0.0016324634
0.0015865475
0.0015399122
0.001492578
0.0014445551
0.0013956998
0.0013460625
0.0012956085
0.001244158
0.0011919401
0.0011386
0.0010838317
0.0010279419
0.00096985711
0.00090533049
0.00084313617
0.00079047624
0.00073508958
0.00067506798
0.00061456326
0.00055549908
0.00049792087
0.00044118959
0.00038716182
0.00033281727
0.00029509585
0.00023606279
0.00039372112
-0.00026855785
0.0066315238
0.0065235071
0.0063227587
0.0060880666
0.0058652181
0.0056634041
0.0054683944
0.0052725782
0.0050797443
0.0048931855
0.0047116239
0.0045351522
0.0043665996
0.0042107406
0.0040727806
0.0039565547
0.0038630155
0.0037898691
0.00373207
0.0036834802
0.0036394405
0.0035974975
0.0035561804
0.0035146809
0.0034725604
0.0034297814
0.0033866948
0.0033438267
0.0033018369
0.0032609561
0.0032210843
0.0031820316
0.0031432359
0.0031040874
0.003064326
0.0030238992
0.0029831731
0.0029426882
0.0029027979
0.0028638889
0.0028261696
0.0027894738
0.0027535254
0.0027180458
0.0026829926
0.0026482331
0.0026134008
0.0025780863
0.0025422212
0.0025058165
0.0024687448
0.0024315519
0.0023954812
0.0023609126
0.0023268083
0.0022918906
0.0022556006
0.0022178849
0.0021791812
0.0021400714
0.0021007106
0.0020610264
0.0020208854
0.0019801983
0.0019388063
0.0018967925
0.0018543324
0.0018113321
0.0017677885
0.00172377
0.0016791288
0.0016338313
0.0015879392
0.0015413192
0.0014939953
0.0014459768
0.0013971192
0.0013474763
0.0012970118
0.0012455461
0.0011933132
0.0011399529
0.0010851614
0.0010292403
0.00097114787
0.00090711006
0.00084544879
0.00079286425
0.00073752917
0.00067751381
0.00061691735
0.00055769975
0.00049994459
0.00044303761
0.0003888405
0.00033434968
0.00029644708
0.00023721854
0.00039422276
-0.00026614121
0.006513842
0.006416708
0.0062423174
0.0060338673
0.0058268995
0.005633281
0.0054452432
0.0052565688
0.0050697471
0.0048880736
0.0047113086
0.0045396419
0.0043756556
0.0042236477
0.0040882875
0.0039730585
0.0038789356
0.0038039916
0.0037438382
0.0036930093
0.0036471341
0.0036037363
0.0035613275
0.0035190364
0.0034763827
0.0034332698
0.003389976
0.0033469637
0.0033048015
0.0032637185
0.0032236236
0.0031843177
0.003145298
0.0031059985
0.0030661555
0.0030257254
0.0029850296
0.0029445681
0.0029046915
0.0028657536
0.0028279534
0.0027911508
0.0027550864
0.0027194998
0.0026843306
0.002649449
0.0026145102
0.0025791243
0.0025432041
0.0025067628
0.0024697133
0.0024325626
0.0023964499
0.0023617415
0.0023274817
0.0022924645
0.0022561412
0.0022184252
0.0021796722
0.0021404301
0.0021009371
0.0020612124
0.0020210258
0.001980324
0.0019391704
0.0018975159
0.0018553111
0.0018124291
0.0017689039
0.0017248728
0.0016802265
0.0016349442
0.0015890812
0.0015424906
0.0014951956
0.0014472012
0.0013983595
0.0013487286
0.0012982699
0.0012468035
0.0011945701
0.0011412027
0.0010864001
0.0010304598
0.00097236934
0.00090880295
0.00084763911
0.00079511264
0.00073983342
0.00067984305
0.00061917749
0.0005598288
0.00050191609
0.00044484921
0.00039049366
0.00033586574
0.00029777805
0.00023834599
0.00039448872
-0.00026333301
0.0064032703
0.0063152774
0.0061628518
0.0059774889
0.0057861143
0.0056014232
0.0054205915
0.0052391094
0.0050585607
0.004882063
0.0047101863
0.0045433412
0.0043838728
0.0042356625
0.0041029102
0.0039887827
0.0038942655
0.0038177634
0.0037554732
0.0037025452
0.0036549112
0.0036101055
0.0035666261
0.0035235562
0.0034803742
0.003436929
0.0033934274
0.0033502661
0.0033079313
0.0032666414
0.0032263155
0.0031867512
0.003147497
0.0031080314
0.0030680917
0.0030276393
0.0029869577
0.0029465066
0.0029066304
0.0028676546
0.0028297684
0.0027928558
0.0027566746
0.0027209797
0.0026856943
0.0026506891
0.0026156405
0.0025801801
0.002544208
0.0025077367
0.0024707082
0.0024335899
0.0023974271
0.0023625812
0.002328178
0.0022930666
0.0022566932
0.002218963
0.0021802112
0.0021409717
0.0021014799
0.0020617117
0.0020214168
0.0019805872
0.0019393677
0.0018976798
0.0018554551
0.0018127315
0.0017695062
0.0017257064
0.0016811665
0.0016359046
0.0015900374
0.0015434488
0.001496173
0.0014482091
0.0013993961
0.0013497931
0.0012993569
0.0012479054
0.0011956869
0.0011423265
0.0010875258
0.0010315796
0.00097350169
0.00091038783
0.00084968405
0.000797199
0.00074198066
0.00068203448
0.00062132303
0.00056186662
0.00050381727
0.00044660799
0.00039210654
0.00033735216
0.00029907617
0.00023943132
0.00039448377
-0.00026008339
0.0062989934
0.0062187835
0.0060847276
0.0059195564
0.0057431638
0.0055679021
0.0053945159
0.0052202544
0.0050461623
0.0048750844
0.0047081908
0.0045461787
0.0043912001
0.0042467592
0.0041166417
0.0040037297
0.0039090096
0.003831182
0.0037669663
0.0037120759
0.0036627532
0.0036165741
0.0035720313
0.0035281753
0.0034844475
0.0034406467
0.0033969128
0.0033535793
0.0033110592
0.0032695549
0.003228995
0.0031891773
0.0031496938
0.0031100653
0.0030700322
0.0030295579
0.0029888917
0.0029484544
0.0029085808
0.0028695717
0.0028316058
0.0027945882
0.0027582935
0.0027224906
0.0026870894
0.0026519611
0.002616803
0.0025812677
0.0025452442
0.0025087422
0.0024717286
0.0024346363
0.0023984247
0.0023634474
0.0023289024
0.0022936899
0.0022572577
0.0022195127
0.0021807698
0.0021415327
0.0021020266
0.0020622268
0.0020219143
0.0019810836
0.0019398403
0.0018980752
0.0018557358
0.0018129389
0.0017696815
0.0017258612
0.0016814554
0.0016364486
0.0015907735
0.001544272
0.001497009
0.0014490464
0.001400244
0.0013506632
0.0013002564
0.0012488318
0.0011966426
0.0011433034
0.0010885184
0.0010325806
0.00097452638
0.00091184444
0.00085156109
0.00079910071
0.00074394853
0.00068406619
0.00062333267
0.00056379295
0.00050562933
0.00044829679
0.00039366354
0.00033879488
0.00030032816
0.00024045973
0.00039416083
-0.00025633149
0.0062003213
0.0061268162
0.0060081893
0.00586061
0.005698373
0.0055328157
0.005367085
0.0052000557
0.0050325392
0.0048670851
0.0047052783
0.0045481151
0.0043976061
0.0042569141
0.004129458
0.0040178678
0.0039231247
0.0038441928
0.0037782581
0.0037215481
0.0036706166
0.003623109
0.0035775217
0.0035328838
0.0034886045
0.0034444375
0.0034004604
0.0033569455
0.0033142395
0.0032725239
0.0032317346
0.0031916721
0.0031519649
0.0031121743
0.0030720464
0.0030315441
0.0029908871
0.0029504589
0.0029105825
0.0028715369
0.0028334901
0.0027963655
0.0027599548
0.0027240401
0.0026885209
0.0026532685
0.0026179997
0.0025823869
0.0025463102
0.0025097758
0.0024727726
0.0024357025
0.0023994431
0.0023643363
0.0023296479
0.0022943316
0.0022578411
0.0022200829
0.0021813478
0.002142107
0.0021025823
0.0020627562
0.002022431
0.0019815894
0.0019403216
0.0018985367
0.0018561935
0.0018133808
0.0017700591
0.001726135
0.0016816619
0.0016366227
0.0015909351
0.0015445811
0.0014975352
0.0014497111
0.0014009755
0.0013514021
0.0013009996
0.0012495896
0.0011974292
0.0011441186
0.0010893607
0.0010334457
0.00097542661
0.00091315472
0.00085325025
0.00080079695
0.00074571566
0.00068591672
0.00062518519
0.00056558728
0.0005073329
0.00044989769
0.00039514828
0.000340179
0.00030151993
0.00024141634
0.00039346407
-0.00025200851
0.0061066662
0.0060389953
0.0059333889
0.0058011056
0.0056520715
0.0054962869
0.0053383677
0.0051785699
0.0050176967
0.0048580275
0.004701408
0.0045491096
0.0044030509
0.0042660923
0.0041413274
0.0040311642
0.0039365749
0.0038567558
0.0037893097
0.0037309311
0.0036784809
0.0036296971
0.0035830903
0.0035376777
0.0034928426
0.0034482981
0.0034040646
0.0033603558
0.0033174579
0.0032755286
0.0032345091
0.0031942049
0.0031542764
0.0031143224
0.0030740973
0.0030335617
0.002992909
0.0029524874
0.0029126058
0.0028735235
0.0028353979
0.0027981681
0.0027616427
0.0027256161
0.0026899795
0.0026546044
0.0026192253
0.0025835338
0.0025474031
0.0025108362
0.0024738404
0.0024367887
0.0024004815
0.0023652467
0.0023304152
0.0022949945
0.0022584455
0.0022206719
0.0021819415
0.0021426959
0.0021031542
0.0020633042
0.0020229628
0.0019821048
0.0019408143
0.0018990151
0.0018566634
0.0018138319
0.0017704891
0.0017265568
0.0016820669
0.0016369678
0.0015911875
0.0015447832
0.0014977042
0.001449885
0.0014013129
0.0013519238
0.0013016165
0.001250242
0.0011980928
0.0011447911
0.0010900528
0.0010341659
0.00097618975
0.00091430373
0.00085473496
0.00080227019
0.00074726332
0.0006875665
0.0006268606
0.0005672297
0.00050890871
0.00045139251
0.00039654382
0.00034148891
0.0003026366
0.00024228488
0.00039235802
-0.00024704934
0.006017524
0.005954974
0.0058604106
0.0057414199
0.0056045792
0.0054584594
0.0053084379
0.0051558562
0.0050016518
0.0048478842
0.0046965409
0.0045491236
0.0044074982
0.0042742635
0.0041522243
0.0040435922
0.0039493282
0.0038688325
0.0038000793
0.0037401868
0.0036863148
0.0036363122
0.003588716
0.0035425401
0.0034971482
0.0034522179
0.0034077172
0.0033638044
0.0033207103
0.0032785675
0.0032373202
0.0031967803
0.0031566359
0.0031165203
0.0030761975
0.0030356253
0.002994973
0.0029545558
0.0029146664
0.0028755466
0.0028373433
0.0028000091
0.0027633689
0.0027272289
0.0026914743
0.0026559762
0.0026204861
0.0025847136
0.0025485275
0.0025119271
0.0024749348
0.0024378966
0.0024015407
0.0023661799
0.0023312059
0.0022956799
0.0022590708
0.0022212794
0.0021825517
0.0021433012
0.0021037427
0.002063868
0.0020235087
0.0019826347
0.0019413235
0.0018995087
0.0018571437
0.0018142931
0.0017709337
0.0017269906
0.0016824828
0.0016373648
0.0015915767
0.0015451513
0.0014980099
0.00145011
0.0014014988
0.0013520846
0.0013018254
0.0012506137
0.0011986099
0.001145371
0.0010906466
0.0010347689
0.00097682396
0.00091528782
0.00085600543
0.00080350778
0.00074857668
0.00068899915
0.00062834137
0.00056870201
0.00051033852
0.00045276344
0.00039783317
0.00034270867
0.00030366273
0.00024304821
0.00039077708
-0.00024138661
0.0059324601
0.0058744389
0.0057892898
0.0056818578
0.0055561957
0.0054194919
0.0052773764
0.0051319761
0.0049844306
0.0048366385
0.0046906438
0.0045481231
0.0044109161
0.0042814002
0.0041621235
0.0040551241
0.0039613509
0.0038803825
0.0038105235
0.0037492755
0.0036940856
0.0036429289
0.0035943798
0.0035474575
0.003501512
0.0034561907
0.0034114142
0.0033672888
0.0033239949
0.0032816391
0.0032401663
0.0031993959
0.00315904
0.0031187639
0.0030783421
0.0030377291
0.0029970725
0.0029566563
0.0029167564
0.002877598
0.0028393179
0.0028018804
0.0027651259
0.0027288717
0.0026929988
0.0026573783
0.0026217772
0.0025859225
0.0025496801
0.0025130455
0.0024760532
0.0024390242
0.0024026195
0.002367135
0.0023320194
0.0022963871
0.0022597167
0.0022219054
0.0021831789
0.002143923
0.0021043472
0.0020644476
0.0020240697
0.0019831798
0.0019418478
0.0019000159
0.0018576371
0.0018147691
0.0017713926
0.0017274348
0.0016829086
0.0016377754
0.0015919765
0.0015455332
0.0014983765
0.0014504686
0.0014018284
0.0013523479
0.0013020248
0.0012507774
0.0011987754
0.0011456451
0.0010910665
0.001035274
0.00097737528
0.00091614185
0.00085707755
0.00080451182
0.00074964924
0.00069020347
0.00062961364
0.00056998876
0.00051160609
0.00045399408
0.00039900015
0.00034382261
0.00030458291
0.00024368839
0.0003886626
-0.0002349511
0.0058510979
0.005797108
0.0057200276
0.0056226624
0.005507194
0.0053795514
0.0052452723
0.0051069929
0.0049660669
0.0048242848
0.0046836903
0.0045460786
0.0044132762
0.0042874762
0.0041710008
0.0040657334
0.0039726106
0.0038913667
0.0038205996
0.0037581572
0.0037017603
0.0036495205
0.0036000611
0.0035524138
0.0035059218
0.0034602071
0.0034151482
0.0033708034
0.0033273065
0.0032847385
0.0032430433
0.0032020478
0.0031614858
0.003121051
0.0030805295
0.0030398724
0.0029992075
0.0029587898
0.0029188771
0.0028796795
0.0028413241
0.0028037845
0.0027669164
0.0027305476
0.0026945563
0.002658814
0.0026231018
0.0025871634
0.0025508635
0.0025141936
0.0024771977
0.0024401735
0.0024037192
0.0023681131
0.0023328568
0.0022971173
0.0022603843
0.0022225512
0.002183824
0.0021445618
0.0021049682
0.0020650435
0.0020246465
0.0019837402
0.0019423871
0.0019005374
0.0018581448
0.0018152592
0.0017718646
0.0017278915
0.001683348
0.001638199
0.001592386
0.0015459253
0.0014987559
0.0014508369
0.0014021793
0.001352687
0.0013023528
0.0012510612
0.001198997
0.0011458305
0.0010912268
0.0010354812
0.00097772775
0.00091686178
0.00085799635
0.00080532386
0.00075050184
0.00069118411
0.00063067219
0.00057107953
0.00051269833
0.0004550702
0.00040003014
0.00034481613
0.00030538229
0.00024418789
0.00038596119
-0.00022767625
0.0057731097
0.0057227294
0.0056526009
0.0055640235
0.0054578166
0.0053388066
0.0052122216
0.0050809729
0.0049466003
0.0048108273
0.0046756618
0.0045429653
0.0044145539
0.0042924685
0.0041788334
0.0040753945
0.0039830757
0.003901747
0.0038302655
0.0037667913
0.0037093038
0.0036560581
0.0036057367
0.0035573913
0.0035103639
0.0034642568
0.0034189114
0.0033743422
0.0033306405
0.0032878621
0.0032459482
0.0032047335
0.0031639707
0.0031233796
0.0030827582
0.0030420541
0.0030013769
0.0029609548
0.0029210271
0.0028817894
0.0028433598
0.0028057196
0.0027687385
0.0027322548
0.0026961451
0.0026602815
0.0026244583
0.002588435
0.0025520763
0.0025153701
0.0024783672
0.0024413434
0.0024048388
0.0023691135
0.0023337176
0.0022978702
0.0022610734
0.0022232164
0.0021844867
0.0021452175
0.0021056058
0.002065656
0.0020252391
0.0019843159
0.0019429416
0.0019010737
0.0018586667
0.0018157632
0.00177235
0.0017283613
0.0016838005
0.0016386347
0.0015928073
0.0015463302
0.0014991467
0.0014512141
0.0014025405
0.0013530376
0.0013026902
0.0012513909
0.0011993098
0.0011461181
0.0010914759
0.001035686
0.00097791485
0.00091728154
0.00085863492
0.00080592257
0.00075116673
0.00069197884
0.00063153809
0.00057197999
0.00051361078
0.00045598213
0.00040091121
0.00034567639
0.00030604702
0.0002445305
0.00038262589
-0.00021950374
0.0056982092
0.0056510772
0.0055869708
0.0055060869
0.0054082752
0.0052974231
0.0051783262
0.0050539853
0.0049260759
0.0047962792
0.0046665473
0.0045387636
0.0044147286
0.0042963569
0.0041856007
0.0040840835
0.0039927161
0.003911486
0.0038394792
0.0037751364
0.0037166798
0.0036625115
0.0036113822
0.0035623706
0.0035148234
0.0034683284
0.0034226952
0.0033778985
0.0033339913
0.0032910049
0.0032488769
0.003207449
0.0031664914
0.003125747
0.0030850255
0.0030442718
0.0030035788
0.0029631496
0.002923205
0.0028839266
0.002845424
0.0028076849
0.0027705918
0.0027339931
0.0026977652
0.0026617812
0.0026258472
0.002589738
0.0025533194
0.0025165757
0.0024795623
0.0024425347
0.0024059791
0.0023701366
0.0023346025
0.0022986467
0.0022617848
0.0022239019
0.0021851677
0.0021458906
0.0021062605
0.0020662854
0.0020258481
0.0019849074
0.0019435118
0.0019016252
0.0018592031
0.0018162815
0.0017728494
0.0017288447
0.0016842662
0.0016390831
0.001593241
0.0015467472
0.0014995489
0.0014516026
0.0014029135
0.0013533983
0.0013030369
0.001251731
0.0011996291
0.0011464229
0.001091788
0.0010359872
0.00097822634
0.00091770019
0.00085913372
0.00080622311
0.00075151826
0.0006925485
0.00063223123
0.0005727234
0.00051436414
0.00045673571
0.00040163966
0.00034639469
0.00030656548
0.00024469837
0.00037862546
-0.00021039168
0.0056261454
0.00558195
0.005523088
0.0054489622
0.0053587508
0.0052555583
0.0051436917
0.0050261025
0.0049045427
0.0047806617
0.0046563441
0.00453346
0.0044137841
0.0042991243
0.0041912843
0.0040917781
0.0040015028
0.0039205474
0.0038481996
0.0037831512
0.003723851
0.003668849
0.0036169714
0.0035673308
0.0035192839
0.003472409
0.0034264895
0.0033814646
0.0033373525
0.0032941616
0.0032518248
0.0032101904
0.0031690442
0.00312815
0.0030873289
0.0030465236
0.0030058115
0.0029653726
0.0029254094
0.0028860898
0.0028475155
0.0028096791
0.0027724752
0.0027357618
0.0026994161
0.0026633124
0.0026272681
0.002591072
0.0025545923
0.0025178099
0.0024807828
0.0024437472
0.0024071396
0.0023711822
0.0023355114
0.0022994467
0.0022625185
0.0022246078
0.0021858671
0.0021465812
0.0021069323
0.0020669318
0.0020264735
0.0019855147
0.0019440977
0.001902192
0.0018597543
0.0018168143
0.0017733629
0.0017293417
0.0016847452
0.0016395445
0.0015936873
0.0015471765
0.0014999629
0.0014520028
0.0014032979
0.0013537695
0.0013033948
0.0012520812
0.0011999576
0.0011467388
0.0010921114
0.0010362937
0.00097860407
0.00091818121
0.00085965507
0.00080655321
0.00075176546
0.0006928689
0.00063264482
0.00057326088
0.00051496995
0.00045735951
0.00040223546
0.00034697742
0.00030693735
0.0002446636
0.00037395723
-0.00020032298
0.0055566971
0.0055151673
0.005460897
0.0053927293
0.005309396
0.0052133587
0.0051084248
0.0049973997
0.0048820537
0.0047640025
0.004645057
0.0045270469
0.0044117087
0.0043007575
0.0041958684
0.0040984579
0.0040094086
0.0039288966
0.0038563863
0.0037907945
0.0037307792
0.0036750374
0.0036224767
0.0035722493
0.0035237272
0.0034764846
0.0034302834
0.0033850319
0.003340717
0.0032973262
0.0032547868
0.003212953
0.003171625
0.003130585
0.0030896654
0.0030488068
0.0030080729
0.002967622
0.0029276384
0.0028882774
0.0028496328
0.0028117009
0.0027743876
0.0027375601
0.0027010972