/*--------------------------------*- C++ -*----------------------------------*\
  =========                 |
  \\      /  F ield         | OpenFOAM: The Open Source CFD Toolbox
   \\    /   O peration     | Website:  https://openfoam.org
    \\  /    A nd           | Version:  12
     \\/     M anipulation  |
\*---------------------------------------------------------------------------*/
FoamFile
{
    format      ascii;
    class       surfaceScalarField;
    location    "1900";
    object      phi;
}
// * * * * * * * * * * * * * * * * * * * * * * * * * * * * * * * * * * * * * //

dimensions      [0 3 -1 0 0 0 0];

internalField   nonuniform List<scalar> 
14782
(
0.00078635942
7.1541275e-06
-0.00079351355
0.00077670699
9.6524287e-06
0.00076587312
1.0833876e-05
0.00075456014
1.1312974e-05
0.00074277559
1.1784557e-05
0.00073056897
1.2206615e-05
0.0007179792
1.2589775e-05
0.00070505362
1.2925579e-05
0.00069186445
1.3189168e-05
0.00067853544
1.3329008e-05
0.0006652568
1.3278645e-05
0.00065229132
1.2965473e-05
0.00063997529
1.2316036e-05
0.00062866442
1.1310862e-05
0.00061862977
1.0034653e-05
0.00060998129
8.6484786e-06
0.00060264863
7.3326636e-06
0.0005964972
6.1514334e-06
0.00059127201
5.225191e-06
0.00058671871
4.5532965e-06
0.00058277012
3.9485847e-06
0.00057920944
3.560683e-06
0.00057588175
3.3276946e-06
0.00057271581
3.1659409e-06
0.00056965552
3.0602848e-06
0.00056668178
2.9737425e-06
0.00056378621
2.8955686e-06
0.00056097255
2.8136578e-06
0.00055824381
2.728742e-06
0.00055560578
2.6380303e-06
0.00055305716
2.5486202e-06
0.00055058646
2.4706961e-06
0.00054816261
2.4238536e-06
0.00054574411
2.4184994e-06
0.00054331008
2.4340322e-06
0.00054086587
2.4442026e-06
0.00053843328
2.4325958e-06
0.00053604098
2.3923031e-06
0.00053371443
2.3265463e-06
0.00053146848
2.2459484e-06
0.00052930741
2.1610696e-06
0.00052722933
2.0780865e-06
0.00052522751
2.0018152e-06
0.00052329302
1.9344878e-06
0.00052140202
1.8909972e-06
0.00051950364
1.8983889e-06
0.00051751296
1.9906752e-06
0.00051529138
2.221583e-06
0.00051267628
2.6151002e-06
0.00050967128
3.0049969e-06
0.00050654682
3.1244585e-06
0.00050360629
2.9405361e-06
0.00050098384
2.622449e-06
0.00049866544
2.3183923e-06
0.00049656901
2.0964308e-06
0.00049461614
1.952872e-06
0.00049274387
1.8722707e-06
0.00049092676
1.8171103e-06
0.00048916368
1.7630858e-06
0.00048744605
1.7176263e-06
0.00048576571
1.6803346e-06
0.00048411372
1.6519957e-06
0.00048248314
1.6305761e-06
0.00048086903
1.6141126e-06
0.0004792672
1.6018266e-06
0.00047767508
1.5921194e-06
0.00047609163
1.5834508e-06
0.00047451578
1.5758545e-06
0.000472946
1.5697753e-06
0.00047138084
1.5651627e-06
0.0004698188
1.5620372e-06
0.00046825854
1.5602598e-06
0.00046669901
1.5595373e-06
0.00046513899
1.5600132e-06
0.00046357739
1.5616071e-06
0.00046201319
1.5641998e-06
0.0004604452
1.567987e-06
0.00045887242
1.5727786e-06
0.00045729398
1.5784469e-06
0.00045570872
1.5852508e-06
0.0004541164
1.5923203e-06
0.00045251734
1.5990642e-06
0.00045091602
1.601316e-06
0.00044937081
1.5452149e-06
0.0004484427
9.2811e-07
0.00045247536
-4.0326639e-06
0.00045898097
-6.5056121e-06
0.00046251362
-3.5326433e-06
0.00046434385
-1.8302327e-06
0.00046491787
-5.7402392e-07
0.00046482463
9.3234577e-08
0.00046435886
4.6576906e-07
0.00046367748
6.8138251e-07
0.00046286334
8.1414437e-07
0.00046196334
8.9999111e-07
0.00046100702
9.5632368e-07
0.00045999907
1.0079468e-06
0.00045892877
1.0703027e-06
0.00045782693
1.1018404e-06
1.3410351e-06
0.00082497999
6.7726883e-06
-0.00082459855
0.00082537772
9.2546958e-06
0.00082558834
1.062326e-05
0.00082568291
1.1218406e-05
0.00082565557
1.1811891e-05
0.00082550268
1.2359512e-05
0.00082521779
1.2874662e-05
0.00082477896
1.3364407e-05
0.0008241308
1.3837327e-05
0.00082317832
1.4281488e-05
0.00082179703
1.4659934e-05
0.00081981777
1.4944737e-05
0.00081703944
1.5094366e-05
0.00081326481
1.5085486e-05
0.00080837156
1.4927903e-05
0.0008023625
1.4657544e-05
0.0007953499
1.434526e-05
0.00078750482
1.3996515e-05
0.00077905247
1.3677545e-05
0.00077021201
1.3393751e-05
0.00076120931
1.2951289e-05
0.00075231034
1.2459656e-05
0.00074370502
1.193301e-05
0.00073551354
1.135742e-05
0.00072781107
1.076276e-05
0.00072062768
1.0157135e-05
0.00071396518
9.5580673e-06
0.00070779417
8.9846683e-06
0.00070205749
8.4654148e-06
0.00069668701
8.0085175e-06
0.00069161621
7.6194169e-06
0.00068678302
7.3038832e-06
0.0006821492
7.0576724e-06
0.00067770345
6.8642537e-06
0.00067343643
6.701056e-06
0.00066933584
6.5447883e-06
0.00066538499
6.3834449e-06
0.00066156437
6.2129245e-06
0.00065785773
6.0331801e-06
0.00065425499
5.8486956e-06
0.00065075131
5.6647439e-06
0.00064734507
5.4843311e-06
0.00064403449
5.3123948e-06
0.00064081753
5.1514446e-06
0.00063769678
5.0117453e-06
0.0006346845
4.9106692e-06
0.00063180825
4.8669259e-06
0.00062912359
4.9062464e-06
0.0006266976
5.0410955e-06
0.000624493
5.2095942e-06
0.00062232968
5.2877745e-06
0.00062005193
5.2182911e-06
0.00061762925
5.0451316e-06
0.00061511189
4.8357496e-06
0.00061256763
4.6406929e-06
0.00061003955
4.4809477e-06
0.00060754467
4.3671516e-06
0.00060508845
4.273337e-06
0.00060267516
4.1763673e-06
0.00060030751
4.0852795e-06
0.00059798522
4.0026262e-06
0.0005957062
3.9310198e-06
0.00059346826
3.8685159e-06
0.0005912692
3.8131679e-06
0.00058910647
3.7645616e-06
0.0005869783
3.7202889e-06
0.00058488381
3.6779422e-06
0.00058282193
3.6377291e-06
0.00058079137
3.6003391e-06
0.00057879091
3.565622e-06
0.00057681933
3.5336186e-06
0.00057487546
3.504123e-06
0.00057295837
3.4766266e-06
0.00057106706
3.4513275e-06
0.00056920061
3.4280609e-06
0.00056735821
3.4065921e-06
0.00056553897
3.387227e-06
0.00056374211
3.3696461e-06
0.00056196688
3.3536744e-06
0.00056021233
3.339798e-06
0.000558478
3.3266519e-06
0.00055676333
3.3137312e-06
0.00055506627
3.298378e-06
0.00055337927
3.2322218e-06
0.00055163557
2.6718079e-06
0.00054885987
-1.2569633e-06
0.00054619973
-3.8454732e-06
0.00054485479
-2.187705e-06
0.00054372887
-7.0431548e-07
0.00054259815
5.5669775e-07
0.00054136828
1.3231022e-06
0.00054005692
1.7771228e-06
0.00053869641
2.0418977e-06
0.00053731072
2.199829e-06
0.00053591046
2.3002559e-06
0.0005345087
2.3580846e-06
0.00053307879
2.4378556e-06
0.00053166186
2.4872338e-06
0.00053001268
2.7510149e-06
2.7422849e-06
0.00085269512
6.4991305e-06
-0.00085242157
0.00085309936
8.8504597e-06
0.00085347221
1.025041e-05
0.00085376219
1.0928427e-05
0.00085402545
1.1548627e-05
0.0008542502
1.2134762e-05
0.00085444819
1.2676671e-05
0.00085463027
1.318233e-05
0.00085480279
1.3664808e-05
0.00085496431
1.4119968e-05
0.00085511486
1.4509379e-05
0.00085524269
1.4816908e-05
0.00085533184
1.5005215e-05
0.00085535645
1.5060883e-05
0.00085528395
1.5000401e-05
0.00085507232
1.4869175e-05
0.00085467462
1.474296e-05
0.00085402666
1.4644469e-05
0.00085305596
1.4648248e-05
0.00085167705
1.4772662e-05
0.00084972921
1.4899128e-05
0.00084709872
1.5090143e-05
0.0008437241
1.5307636e-05
0.0008395742
1.5507312e-05
0.00083466278
1.5674183e-05
0.00082903523
1.5784689e-05
0.00082280817
1.5785123e-05
0.00081615718
1.5635659e-05
0.0008092555
1.5367096e-05
0.00080227028
1.4993734e-05
0.00079535033
1.4539372e-05
0.00078861287
1.4041342e-05
0.00078213837
1.3532171e-05
0.00077596454
1.303808e-05
0.00077008915
1.2576448e-05
0.00076448567
1.2148271e-05
0.00075911617
1.175294e-05
0.00075394268
1.1386415e-05
0.00074893689
1.1038967e-05
0.00074408079
1.07048e-05
0.00073936385
1.0381686e-05
0.0007347786
1.006958e-05
0.00073031727
9.7737283e-06
0.00072597468
9.4940342e-06
0.00072175432
9.2321021e-06
0.00071766783
8.9971581e-06
0.00071373145
8.8033045e-06
0.00070996976
8.6679377e-06
0.00070640925
8.6015996e-06
0.00070304221
8.5766372e-06
0.00069980816
8.5218253e-06
0.00069663395
8.3925061e-06
0.0006934732
8.2058795e-06
0.00069031199
7.9969595e-06
0.00068716028
7.7924016e-06
0.00068403472
7.6065019e-06
0.00068094939
7.4524822e-06
0.00067791327
7.3094555e-06
0.00067493122
7.1584254e-06
0.00067200505
7.0114434e-06
0.00066913465
6.8730239e-06
0.00066631951
6.7461659e-06
0.00066355906
6.6289648e-06
0.00066085204
6.5201848e-06
0.00065819643
6.4201688e-06
0.00065559092
6.3258034e-06
0.00065303446
6.2344031e-06
0.00065052546
6.1467292e-06
0.00064806232
6.0634817e-06
0.0006456437
5.9842372e-06
0.0006432683
5.9090169e-06
0.00064093483
5.837592e-06
0.00063864217
5.7692933e-06
0.00063638914
5.7043575e-06
0.00063417466
5.6425353e-06
0.00063199778
5.5834747e-06
0.00062985745
5.5275611e-06
0.00062775273
5.4743631e-06
0.00062568274
5.4236667e-06
0.00062364638
5.3761552e-06
0.00062164294
5.3300875e-06
0.0006196715
5.2851786e-06
0.00061772851
5.2413665e-06
0.00061579499
5.1657393e-06
0.00061372925
4.7375487e-06
0.00061061502
1.8572646e-06
0.00060723236
-4.6280999e-07
0.00060479485
2.4979921e-07
0.00060277782
1.3127239e-06
0.00060097267
2.3618461e-06
0.00059922355
3.0722239e-06
0.00059748529
3.5153734e-06
0.00059575076
3.7764292e-06
0.00059402455
3.9260461e-06
0.00059230642
4.0183775e-06
0.00059060504
4.0594698e-06
0.00058888406
4.1588331e-06
0.00058720606
4.1652369e-06
0.00058520906
4.7480098e-06
4.2975396e-06
0.0008812805
6.2962327e-06
-0.0008810776
0.00088165813
8.4728328e-06
0.00088203216
9.87638e-06
0.0008823261
1.0634482e-05
0.00088259674
1.1277986e-05
0.00088283547
1.1896034e-05
0.00088304948
1.246266e-05
0.00088324939
1.2982422e-05
0.00088344323
1.3470972e-05
0.00088363194
1.3931254e-05
0.00088381841
1.4322909e-05
0.00088399728
1.4638042e-05
0.00088416271
1.4839784e-05
0.0008843049
1.4918693e-05
0.00088441732
1.4887974e-05
0.00088449632
1.4790175e-05
0.00088454702
1.469226e-05
0.00088457113
1.4620363e-05
0.00088457458
1.4644804e-05
0.00088456639
1.4780851e-05
0.00088452705
1.4938464e-05
0.00088444591
1.5171284e-05
0.00088429826
1.5455283e-05
0.00088404427
1.5761309e-05
0.000883629
1.6089445e-05
0.00088298471
1.6428984e-05
0.00088199933
1.6770505e-05
0.00088053302
1.7101965e-05
0.00087847614
1.7423973e-05
0.00087574472
1.7725157e-05
0.00087229239
1.7991703e-05
0.00086811755
1.8216183e-05
0.00086329524
1.8354483e-05
0.00085796449
1.8368823e-05
0.00085227699
1.8263957e-05
0.00084638523
1.8040023e-05
0.00084042541
1.7712763e-05
0.00083450444
1.7307385e-05
0.00082869232
1.6851085e-05
0.0008230203
1.6376825e-05
0.00081749085
1.5911135e-05
0.00081209302
1.5467412e-05
0.00080681512
1.5051629e-05
0.00080165116
1.4657993e-05
0.00079660183
1.4281428e-05
0.00079167441
1.3924583e-05
0.00078688005
1.3597665e-05
0.00078223117
1.3316815e-05
0.00077773765
1.3095113e-05
0.00077339906
1.2915232e-05
0.00076919842
1.2722462e-05
0.00076511034
1.2480586e-05
0.00076111207
1.220415e-05
0.0007571863
1.1922725e-05
0.00075332432
1.1654381e-05
0.00074952536
1.1405469e-05
0.000745793
1.1184837e-05
0.00074212942
1.0973042e-05
0.00073853464
1.07532e-05
0.00073500892
1.0537169e-05
0.0007315523
1.0329638e-05
0.00072816431
1.0134161e-05
0.00072484417
9.9490962e-06
0.0007215905
9.7738641e-06
0.00071840132
9.6093409e-06
0.00071527536
9.451765e-06
0.00071221106
9.2987002e-06
0.00070920626
9.1515299e-06
0.00070625911
9.0106384e-06
0.00070336807
8.8752758e-06
0.00070053162
8.7454694e-06
0.00069774821
8.6209959e-06
0.00069501645
8.5010506e-06
0.0006923349
8.3859074e-06
0.00068970221
8.2752336e-06
0.00068711712
8.168556e-06
0.00068457836
8.0663227e-06
0.00068208474
7.9679878e-06
0.00067963512
7.8732858e-06
0.00067722821
7.7830652e-06
0.00067486308
7.6952197e-06
0.00067253862
7.6096369e-06
0.00067025158
7.5284092e-06
0.00066798733
7.4299825e-06
0.000665659
7.0658866e-06
0.00066279341
4.7228548e-06
0.00065971132
2.6192762e-06
0.00065705768
2.903439e-06
0.00065469907
3.6713376e-06
0.00065253677
4.5241396e-06
0.00065046112
5.1478769e-06
0.0006484231
5.553392e-06
0.00064640578
5.7937535e-06
0.00064440761
5.9242132e-06
0.00064242524
6.0007511e-06
0.00064046689
6.0178225e-06
0.00063849185
6.1338645e-06
0.0006365794
6.0776869e-06
0.00063427692
7.0504951e-06
6.0193847e-06
0.00091084149
6.1334499e-06
-0.00091067871
0.00091118258
8.1317431e-06
0.00091153225
9.5267094e-06
0.0009118158
1.0350931e-05
0.00091207467
1.1019114e-05
0.00091231049
1.1660218e-05
0.00091252571
1.2247444e-05
0.00091272849
1.2779643e-05
0.0009129263
1.3273157e-05
0.00091312003
1.3737526e-05
0.00091331179
1.4131144e-05
0.00091349669
1.4453151e-05
0.00091366925
1.466722e-05
0.00091382137
1.4766568e-05
0.00091394626
1.4763083e-05
0.00091404049
1.4695945e-05
0.00091410939
1.4623363e-05
0.0009141563
1.4573451e-05
0.0009141909
1.4610209e-05
0.00091422577
1.4745975e-05
0.00091425405
1.4910184e-05
0.00091428176
1.5143579e-05
0.00091431066
1.542638e-05
0.00091433857
1.5733399e-05
0.00091436341
1.606461e-05
0.00091438151
1.6410882e-05
0.00091438596
1.6766054e-05
0.00091436398
1.7123948e-05
0.00091429722
1.7490728e-05
0.00091415498
1.7867394e-05
0.00091389031
1.8256379e-05
0.00091344186
1.8664629e-05
0.00091270698
1.908936e-05
0.00091155404
1.9521766e-05
0.00090986765
1.9950347e-05
0.0009075567
2.0350969e-05
0.00090456797
2.0701496e-05
0.00090090423
2.0971123e-05
0.00089664141
2.1113912e-05
0.00089190456
2.1113672e-05
0.00088683185
2.0983843e-05
0.0008815568
2.0742459e-05
0.00087619202
2.0416411e-05
0.00087081585
2.0034169e-05
0.00086546968
1.9627591e-05
0.00086017194
1.9222325e-05
0.00085493395
1.8835652e-05
0.00084976948
1.8481292e-05
0.00084469491
1.8169676e-05
0.00083972283
1.7887313e-05
0.00083485656
1.7588732e-05
0.00083009189
1.7245259e-05
0.00082542249
1.6873549e-05
0.00082084194
1.6503271e-05
0.00081634533
1.6150999e-05
0.00081193064
1.5820157e-05
0.00080759818
1.5517296e-05
0.00080334601
1.5225213e-05
0.00079917121
1.4927996e-05
0.00079507349
1.4634891e-05
0.00079105349
1.4349643e-05
0.00078711103
1.4076617e-05
0.00078324539
1.381474e-05
0.00077945558
1.3563673e-05
0.00077574022
1.3324702e-05
0.00077209757
1.3094407e-05
0.00076852585
1.2870422e-05
0.00076502326
1.2654124e-05
0.00076158805
1.2445848e-05
0.00075821865
1.2244673e-05
0.00075491345
1.2050668e-05
0.00075167082
1.1863624e-05
0.00074848926
1.1682618e-05
0.00074536718
1.150798e-05
0.00074230311
1.1339311e-05
0.00073929563
1.1176028e-05
0.00073634331
1.1018646e-05
0.00073344479
1.086651e-05
0.00073059877
1.0719301e-05
0.00072780382
1.0578023e-05
0.00072505884
1.04402e-05
0.00072236263
1.0305842e-05
0.0007197124
1.0178635e-05
0.00071709832
1.004407e-05
0.00071447662
9.6875884e-06
0.00071161689
7.582581e-06
0.00070863697
5.599195e-06
0.00070585384
5.686569e-06
0.00070325921
6.2659658e-06
0.00070081622
6.9671349e-06
0.00069845901
7.5050888e-06
0.0006961478
7.8645979e-06
0.00069386457
8.0769874e-06
0.00069160548
8.1833033e-06
0.00068936594
8.2402941e-06
0.0006871547
8.2290555e-06
0.00068492811
8.3604572e-06
0.00068278093
8.2248699e-06
0.00068017574
9.6556869e-06
7.9194353e-06
0.00094139061
6.0020817e-06
-0.00094125924
0.00094169103
7.8313237e-06
0.0009420173
9.200441e-06
0.00094229572
1.0072506e-05
0.00094254996
1.0764879e-05
0.00094278748
1.1422695e-05
0.00094300721
1.2027709e-05
0.00094321421
1.2572641e-05
0.00094341466
1.3072716e-05
0.00094361159
1.3540592e-05
0.00094380381
1.3938922e-05
0.00094398934
1.4267619e-05
0.00094416202
1.4494539e-05
0.00094431454
1.4614048e-05
0.00094444069
1.4636933e-05
0.00094453786
1.459878e-05
0.00094461037
1.4550856e-05
0.0009446612
1.4522617e-05
0.00094469995
1.4571457e-05
0.00094473804
1.4707885e-05
0.00094477097
1.4877258e-05
0.00094480424
1.5110312e-05
0.00094484002
1.5390593e-05
0.0009448772
1.5696227e-05
0.00094491554
1.6026269e-05
0.0009449547
1.6371714e-05
0.00094499389
1.6726863e-05
0.00094503142
1.7086422e-05
0.00094506714
1.7455011e-05
0.00094509994
1.7834595e-05
0.00094512824
1.8228074e-05
0.00094515012
1.864275e-05
0.00094516015
1.9079328e-05
0.00094514749
1.9534427e-05
0.00094509268
2.000516e-05
0.00094496124
2.0482412e-05
0.00094470161
2.0961119e-05
0.00094423371
2.1439024e-05
0.00094343819
2.1909428e-05
0.0009421842
2.2367669e-05
0.00094036241
2.2805635e-05
0.00093789737
2.3207495e-05
0.00093477129
2.354249e-05
0.00093104186
2.37636e-05
0.0009268185
2.3850954e-05
0.00092222845
2.381237e-05
0.00091739623
2.3667873e-05
0.0009124267
2.345082e-05
0.00090739463
2.3201747e-05
0.00090234367
2.2938272e-05
0.00089729586
2.2636547e-05
0.00089226466
2.2276457e-05
0.00088726339
2.1874822e-05
0.00088230502
2.1461641e-05
0.00087739943
2.1056586e-05
0.00087255333
2.066626e-05
0.00086777219
2.0298431e-05
0.0008630588
1.9938607e-05
0.00085841411
1.9572689e-05
0.00085383976
1.9209239e-05
0.00084933771
1.885169e-05
0.00084490961
1.8504718e-05
0.00084055663
1.8167717e-05
0.00083627974
1.7840566e-05
0.00083207925
1.7525194e-05
0.00082795413
1.721952e-05
0.00082390332
1.6921239e-05
0.00081992611
1.6631334e-05
0.00081602154
1.635042e-05
0.00081218857
1.6077636e-05
0.00080842602
1.5813216e-05
0.00080473261
1.555704e-05
0.00080110709
1.5308134e-05
0.00079754812
1.506695e-05
0.00079405436
1.4833076e-05
0.00079062452
1.460587e-05
0.00078725721
1.4385953e-05
0.00078395113
1.417259e-05
0.00078070499
1.3965436e-05
0.00077751735
1.3765668e-05
0.0007743871
1.3570445e-05
0.00077131306
1.3379887e-05
0.00076829285
1.3198847e-05
0.00076531991
1.3017006e-05
0.00076237487
1.263263e-05
0.00075934135
1.0616099e-05
0.00075625809
8.6824611e-06
0.00075328222
8.6624355e-06
0.00075043317
9.1150164e-06
0.00074770279
9.697515e-06
0.0007450543
1.0153582e-05
0.00074245804
1.0460853e-05
0.00073989701
1.063802e-05
0.00073736581
1.0714504e-05
0.00073485853
1.0747576e-05
0.00073238411
1.070347e-05
0.00072989593
1.0848641e-05
0.00072750359
1.0617211e-05
0.00072458665
1.257262e-05
1.0011293e-05
0.00097295809
5.8947683e-06
-0.00097285078
0.00097322212
7.5672947e-06
0.00097352714
8.8954285e-06
0.0009737998
9.7998379e-06
0.0009740492
1.0515479e-05
0.00097428555
1.1186354e-05
0.00097450705
1.1806201e-05
0.00097471639
1.2363305e-05
0.00097491815
1.2870956e-05
0.0009751181
1.3340643e-05
0.00097531111
1.3745905e-05
0.00097549816
1.4080576e-05
0.00097567217
1.4320524e-05
0.00097582658
1.4459638e-05
0.00097595551
1.4508004e-05
0.00097605654
1.4497751e-05
0.00097613325
1.4474149e-05
0.00097618866
1.4467211e-05
0.00097623197
1.4528146e-05
0.00097627317
1.4666681e-05
0.0009763093
1.4841128e-05
0.00097634527
1.5074344e-05
0.0009763832
1.5352663e-05
0.0009764223
1.5657132e-05
0.00097646267
1.5985892e-05
0.00097650404
1.6330349e-05
0.00097654582
1.6685076e-05
0.00097658689
1.7045358e-05
0.00097662716
1.7414737e-05
0.00097666616
1.7795594e-05
0.00097670369
1.8190548e-05
0.00097674061
1.8605828e-05
0.00097677742
1.9042514e-05
0.00097681406
1.9497791e-05
0.00097685049
1.9968727e-05
0.00097688535
2.0447551e-05
0.00097691634
2.093013e-05
0.00097693904
2.1416324e-05
0.00097694401
2.1904462e-05
0.00097691412
2.2397556e-05
0.00097681867
2.2901083e-05
0.00097660838
2.3417792e-05
0.00097620215
2.3948712e-05
0.00097547803
2.4487729e-05
0.00097430135
2.5027631e-05
0.00097255896
2.5554759e-05
0.00097017482
2.6052015e-05
0.00096714922
2.6476422e-05
0.00096356066
2.6790306e-05
0.00095952188
2.6977047e-05
0.00095515486
2.7003567e-05
0.00095056759
2.6863725e-05
0.00094584037
2.6602045e-05
0.00094102372
2.6278287e-05
0.00093614839
2.5931918e-05
0.00093123799
2.5576666e-05
0.00092631549
2.5220926e-05
0.00092140038
2.4853717e-05
0.00091650668
2.4466391e-05
0.00091164473
2.4071186e-05
0.0009068228
2.3673621e-05
0.0009020482
2.3279318e-05
0.00089732731
2.2888612e-05
0.00089266536
2.2502511e-05
0.0008880664
2.2124152e-05
0.00088353292
2.1753e-05
0.00087906656
2.1387605e-05
0.00087466867
2.1029219e-05
0.00087034023
2.0678862e-05
0.0008660819
2.0335965e-05
0.0008618939
2.0001218e-05
0.00085777611
1.967483e-05
0.00085372829
1.9355951e-05
0.00084974992
1.9045322e-05
0.00084584034
1.8742652e-05
0.00084199887
1.8447348e-05
0.00083822458
1.8160243e-05
0.00083451656
1.7880602e-05
0.00083087388
1.7608123e-05
0.00082729532
1.734422e-05
0.00082378004
1.7085726e-05
0.00082032704
1.6832894e-05
0.00081693439
1.6591494e-05
0.00081359767
1.6353724e-05
0.00081030984
1.5920462e-05
0.00080700653
1.3919408e-05
0.0008036983
1.1990698e-05
0.00080046762
1.1893111e-05
0.00079733219
1.2250452e-05
0.0007942952
1.27345e-05
0.00079133764
1.3111142e-05
0.00078843867
1.3359822e-05
0.00078558318
1.3493514e-05
0.00078276467
1.3533018e-05
0.00077997573
1.3536515e-05
0.00077722505
1.3454146e-05
0.00077446276
1.3610938e-05
0.00077181285
1.3267117e-05
0.0007685722
1.581327e-05
1.2308098e-05
0.001005578
5.804878e-06
-0.0010054881
0.0010058105
7.334795e-06
0.0010060941
8.6118029e-06
0.0010063587
9.535201e-06
0.0010066029
1.027134e-05
0.001006837
1.0952262e-05
0.0010070597
1.1583456e-05
0.0010072715
1.2151499e-05
0.0010074761
1.2666331e-05
0.001007678
1.3138726e-05
0.0010078733
1.3550645e-05
0.0010080619
1.389196e-05
0.0010082376
1.4144838e-05
0.0010083942
1.4303089e-05
0.0010085261
1.4376086e-05
0.0010086311
1.4392733e-05
0.0010087121
1.4393121e-05
0.0010087721
1.4407183e-05
0.0010088198
1.4480475e-05
0.001008864
1.4622551e-05
0.0010089029
1.4802187e-05
0.0010089411
1.503613e-05
0.0010089807
1.5313025e-05
0.0010090213
1.5616555e-05
0.0010090631
1.5944138e-05
0.0010091057
1.6287724e-05
0.0010091486
1.6642135e-05
0.0010091908
1.7003161e-05
0.0010092322
1.7373363e-05
0.0010092726
1.7755247e-05
0.0010093118
1.8151263e-05
0.0010093509
1.8566788e-05
0.0010093903
1.9003143e-05
0.0010094304
1.9457682e-05
0.0010094715
1.9927582e-05
0.0010095129
2.0406125e-05
0.0010095539
2.088913e-05
0.0010095941
2.1376124e-05
0.0010096328
2.1865831e-05
0.0010096692
2.236117e-05
0.0010097027
2.2867567e-05
0.0010097318
2.3388635e-05
0.0010097527
2.3927821e-05
0.0010097556
2.4484823e-05
0.0010097213
2.5061996e-05
0.0010096128
2.5663171e-05
0.0010093721
2.6292794e-05
0.0010088948
2.6953714e-05
0.0010080408
2.7644307e-05
0.0010066797
2.8338163e-05
0.0010047088
2.8974394e-05
0.0010020946
2.9477944e-05
0.00099888853
2.9808129e-05
0.00099519246
2.997435e-05
0.00099112517
2.9999213e-05
0.00098679481
2.9907024e-05
0.00098228214
2.9733597e-05
0.00097763834
2.9497519e-05
0.0009728971
2.9207627e-05
0.00096808703
2.8881256e-05
0.00096323445
2.8526198e-05
0.00095836169
2.8152086e-05
0.00095348634
2.7763963e-05
0.00094862246
2.7366383e-05
0.00094378194
2.6964672e-05
0.00093897461
2.6560334e-05
0.00093420816
2.6154054e-05
0.00092948868
2.5748697e-05
0.00092482121
2.5346331e-05
0.00092020999
2.4947192e-05
0.00091565824
2.4552963e-05
0.00091116845
2.4164625e-05
0.00090674257
2.3781826e-05
0.00090238197
2.3405929e-05
0.00089808758
2.3037036e-05
0.00089386009
2.2674839e-05
0.00088969974
2.232059e-05
0.00088560663
2.1973716e-05
0.00088158064
2.1634108e-05
0.00087762132
2.1303548e-05
0.00087372841
2.0978634e-05
0.00086990146
2.0659844e-05
0.00086613918
2.0353766e-05
0.00086243872
2.0054185e-05
0.00085879902
1.9560164e-05
0.00085517959
1.7538842e-05
0.00085158261
1.558767e-05
0.00084805657
1.5419154e-05
0.00084461112
1.5695904e-05
0.00084125234
1.6093284e-05
0.0008379715
1.6391978e-05
0.00083475499
1.6576331e-05
0.00083159022
1.6658284e-05
0.00082847028
1.6652957e-05
0.00082538643
1.6620371e-05
0.00082234687
1.64937e-05
0.00081929825
1.6659557e-05
0.00081637873
1.6186642e-05
0.00081280196
1.9390038e-05
1.4821919e-05
0.0010392849
5.7274689e-06
-0.0010392075
0.0010394902
7.129499e-06
0.0010397526
8.3494071e-06
0.0010400079
9.279844e-06
0.0010402471
1.0032214e-05
0.0010404786
1.0720716e-05
0.0010407019
1.1360156e-05
0.0010409157
1.1937665e-05
0.0010411226
1.2459477e-05
0.0010413259
1.2935451e-05
0.001041523
1.3353527e-05
0.0010417127
1.3702222e-05
0.0010418898
1.3967794e-05
0.0010420482
1.4144631e-05
0.001042183
1.4241355e-05
0.0010422918
1.428388e-05
0.0010423771
1.4307817e-05
0.0010424418
1.4342484e-05
0.0010424939
1.4428355e-05
0.0010425414
1.4575126e-05
0.0010425836
1.4759995e-05
0.0010426246
1.4995097e-05
0.0010426666
1.5271028e-05
0.0010427093
1.5573851e-05
0.001042753
1.5900441e-05
0.0010427974
1.6243327e-05
0.001042842
1.6597557e-05
0.0010428858
1.6959345e-05
0.0010429287
1.7330472e-05
0.0010429705
1.7713419e-05
0.0010430112
1.8110515e-05
0.0010430516
1.8526395e-05
0.0010430923
1.8962522e-05
0.0010431334
1.941653e-05
0.0010431754
1.9885574e-05
0.0010432179
2.0363667e-05
0.0010432603
2.0846684e-05
0.0010433025
2.1333976e-05
0.0010433438
2.1824529e-05
0.001043384
2.2320911e-05
0.0010434232
2.2828394e-05
0.0010434611
2.335077e-05
0.0010434978
2.3891095e-05
0.0010435332
2.444942e-05
0.0010435668
2.5028353e-05
0.0010435979
2.5632086e-05
0.0010436245
2.6266219e-05
0.0010436408
2.693742e-05
0.0010436335
2.7651647e-05
0.001043573
2.8398654e-05
0.0010434043
2.9143037e-05
0.0010430264
2.985585e-05
0.0010422962
3.0538352e-05
0.0010410715
3.1199063e-05
0.0010392413
3.1829381e-05
0.0010367716
3.2376757e-05
0.0010337158
3.2789397e-05
0.0010301734
3.3039939e-05
0.0010262581
3.3122874e-05
0.0010220696
3.3069815e-05
0.0010176781
3.2917656e-05
0.0010131299
3.2700296e-05
0.0010084605
3.2433366e-05
0.0010037024
3.2124506e-05
0.00099888442
3.1782606e-05
0.00099403028
3.1414477e-05
0.00098915867
3.1025669e-05
0.00098428507
3.0622298e-05
0.00097942262
3.0208775e-05
0.00097458234
2.9787479e-05
0.00096977314
2.9362154e-05
0.00096500245
2.8935322e-05
0.00096027645
2.8507818e-05
0.00095560011
2.8082274e-05
0.00095097745
2.7659692e-05
0.00094641182
2.7240477e-05
0.00094190572
2.6826689e-05
0.0009374612
2.641823e-05
0.00093307986
2.6015452e-05
0.00092876265
2.5620758e-05
0.00092451059
2.5230691e-05
0.00092032431
2.484613e-05
0.00091620355
2.4474526e-05
0.00091214696
2.4110771e-05
0.00090815657
2.3550552e-05
0.00090420323
2.1492184e-05
0.00090028813
1.950277e-05
0.00089644504
1.9262247e-05
0.00089267644
1.9464502e-05
0.00088898752
1.9782201e-05
0.0008853751
2.0004401e-05
0.00088183117
2.0120259e-05
0.00087834609
2.0143363e-05
0.00087491335
2.0085699e-05
0.00087152332
2.0010401e-05
0.00086818381
1.9833205e-05
0.0008648379
2.0005474e-05
0.00086163778
1.9386759e-05
0.00085771307
2.331475e-05
1.7563749e-05
0.0010741149
5.6591046e-06
-0.0010740465
0.001074297
6.9473923e-06
0.001074539
8.1073735e-06
0.0010747843
9.0345782e-06
0.0010750183
9.7982367e-06
0.0010752468
1.0492223e-05
0.0010754697
1.1137255e-05
0.0010756848
1.1722543e-05
0.0010758933
1.2250938e-05
0.0010760979
1.2730935e-05
0.0010762966
1.315479e-05
0.0010764875
1.3511298e-05
0.001076666
1.3789314e-05
0.0010768265
1.3984156e-05
0.0010769641
1.4103717e-05
0.0010770768
1.4171144e-05
0.0010771665
1.421815e-05
0.001077236
1.4273017e-05
0.0010772926
1.4371705e-05
0.0010773436
1.4524196e-05
0.0010773891
1.471444e-05
0.001077433
1.495118e-05
0.0010774774
1.5226666e-05
0.0010775222
1.5529067e-05
0.0010775677
1.5854885e-05
0.0010776138
1.6197235e-05
0.00107766
1.6551389e-05
0.0010777054
1.6913919e-05
0.0010777499
1.7286e-05
0.0010777933
1.7669999e-05
0.0010778357
1.8068141e-05
0.0010778777
1.8484426e-05
0.0010779198
1.8920372e-05
0.0010779624
1.9373906e-05
0.0010780058
1.9842198e-05
0.0010780496
2.0319887e-05
0.0010780933
2.0802962e-05
0.0010781367
2.1290618e-05
0.0010781791
2.1782093e-05
0.0010782204
2.2279655e-05
0.0010782605
2.2788205e-05
0.0010782998
2.3311494e-05
0.0010783385
2.3852445e-05
0.0010783765
2.441138e-05
0.0010784141
2.499074e-05
0.0010784513
2.5594885e-05
0.001078488
2.6229513e-05
0.0010785247
2.6900763e-05
0.0010785625
2.7613809e-05
0.001078602
2.8359149e-05
0.0010786402
2.9104902e-05
0.0010786687
2.9827293e-05
0.0010786723
3.0534789e-05
0.0010786198
3.1251565e-05
0.0010784555
3.1993628e-05
0.0010780722
3.2760043e-05
0.0010773188
3.3542858e-05
0.0010760486
3.4310143e-05
0.0010741589
3.5012594e-05
0.0010716368
3.5591833e-05
0.0010685522
3.6002347e-05
0.0010650102
3.6242289e-05
0.0010611182
3.6325332e-05
0.0010569603
3.6282445e-05
0.0010525934
3.6149435e-05
0.0010480601
3.5947812e-05
0.0010433979
3.568791e-05
0.0010386404
3.537971e-05
0.0010338158
3.5033368e-05
0.0010289469
3.4656461e-05
0.0010240526
3.4256411e-05
0.0010191494
3.3838557e-05
0.0010142509
3.3406309e-05
0.0010093684
3.2964722e-05
0.0010045116
3.2516561e-05
0.00099968831
3.2063726e-05
0.00099490523
3.1609771e-05
0.00099016784
3.1155618e-05
0.00098548074
3.0702562e-05
0.00098084743
3.0254062e-05
0.0009762712
2.9806928e-05
0.00097175457
2.936276e-05
0.00096729903
2.8930066e-05
0.00096290514
2.8504659e-05
0.00095857702
2.7878669e-05
0.00095429142
2.5777786e-05
0.00095005115
2.3743036e-05
0.00094588466
2.3428738e-05
0.00094178986
2.3559301e-05
0.00093776987
2.3802198e-05
0.00093382409
2.395018e-05
0.0009299487
2.3995652e-05
0.00092613712
2.3954943e-05
0.00092238401
2.3838807e-05
0.00091867952
2.3714886e-05
0.00091503138
2.3481353e-05
0.00091137914
2.3657709e-05
0.00090788913
2.2876775e-05
0.00090360604
2.7597839e-05
2.0543406e-05
0.0011101054
5.5973912e-06
-0.0011100437
0.001110268
6.7848484e-06
0.0011104909
7.8844348e-06
0.0011107254
8.8000277e-06
0.0011109539
9.5697965e-06
0.0011111789
1.0267201e-05
0.0011114007
1.0915503e-05
0.0011116165
1.150674e-05
0.0011118263
1.2041075e-05
0.001112032
1.2525302e-05
0.001112232
1.2954721e-05
0.0011124241
1.3319239e-05
0.0011126039
1.3609485e-05
0.0011127663
1.3821752e-05
0.0011129068
1.3963269e-05
0.0011130233
1.4054647e-05
0.0011131172
1.412419e-05
0.0011131914
1.4198826e-05
0.0011132526
1.4310547e-05
0.0011133071
1.4469649e-05
0.0011133561
1.4665456e-05
0.001113403
1.49043e-05
0.0011134498
1.5179831e-05
0.0011134968
1.5482077e-05
0.0011135444
1.5807336e-05
0.0011135923
1.6149298e-05
0.0011136402
1.6503475e-05
0.0011136874
1.6866742e-05
0.0011137336
1.7239808e-05
0.0011137787
1.7624863e-05
0.0011138228
1.8024034e-05
0.0011138665
1.8440773e-05
0.0011139103
1.8876595e-05
0.0011139545
1.9329701e-05
0.0011139993
1.9797321e-05
0.0011140446
2.0274633e-05
0.0011140898
2.0757787e-05
0.0011141345
2.1245843e-05
0.0011141784
2.1738241e-05
0.001114221
2.2237006e-05
0.0011142626
2.2746673e-05
0.0011143031
2.3270922e-05
0.001114343
2.3812571e-05
0.0011143822
2.4372219e-05
0.0011144207
2.4952184e-05
0.0011144589
2.55567e-05
0.0011144971
2.6191328e-05
0.0011145359
2.6861936e-05
0.001114577
2.7572766e-05
0.0011146215
2.8314651e-05
0.0011146678
2.9058572e-05
0.0011147131
2.9782027e-05
0.0011147557
3.049216e-05
0.0011147951
3.1212186e-05
0.0011148301
3.1958605e-05
0.001114855
3.2735162e-05
0.0011148533
3.354457e-05
0.0011147871
3.437636e-05
0.0011145814
3.5218279e-05
0.0011141048
3.6068356e-05
0.0011131945
3.6912695e-05
0.0011117091
3.7727718e-05
0.0011095846
3.8449757e-05
0.0011068548
3.9012266e-05