/*--------------------------------*- C++ -*----------------------------------*\
  =========                 |
  \\      /  F ield         | OpenFOAM: The Open Source CFD Toolbox
   \\    /   O peration     | Website:  https://openfoam.org
    \\  /    A nd           | Version:  12
     \\/     M anipulation  |
\*---------------------------------------------------------------------------*/
FoamFile
{
    format      ascii;
    class       surfaceScalarField;
    location    "1900";
    object      phi;
}
// * * * * * * * * * * * * * * * * * * * * * * * * * * * * * * * * * * * * * //

dimensions      [0 3 -1 0 0 0 0];

internalField   nonuniform List<scalar> 
25880
(
2.0046355e-06
1.8640368e-11
2.0045769e-06
5.8610396e-11
2.004485e-06
9.1915896e-11
2.0043729e-06
1.120722e-10
2.0042446e-06
1.2831885e-10
2.0041013e-06
1.4331233e-10
2.0039437e-06
1.5755439e-10
2.0037722e-06
1.7154031e-10
2.0035863e-06
1.8589143e-10
2.0033851e-06
2.0117563e-10
2.0031672e-06
2.1792855e-10
2.0029304e-06
2.367935e-10
2.0026718e-06
2.5861096e-10
2.0023871e-06
2.8470129e-10
2.0020704e-06
3.1666887e-10
2.0017121e-06
3.5827549e-10
2.0013005e-06
4.1158776e-10
2.0008064e-06
4.9418762e-10
2.0002133e-06
5.93063e-10
1.999379e-06
8.3432884e-10
1.9983523e-06
1.0266797e-09
1.9955871e-06
2.765202e-09
1.9933627e-06
2.2244096e-09
1.0255057e-06
9.6785695e-07
4.315066e-08
9.8235507e-07
2.7390541e-08
1.5760119e-08
2.5368561e-08
2.0219804e-09
2.4555914e-08
8.126462e-10
2.3975684e-08
5.8023076e-10
2.3478514e-08
4.9716977e-10
2.3038757e-08
4.3975645e-10
2.2645329e-08
3.9342848e-10
2.2289614e-08
3.5571442e-10
2.1964772e-08
3.2484202e-10
2.1665818e-08
2.9895444e-10
2.1389048e-08
2.7677046e-10
2.1131545e-08
2.5750229e-10
2.0890917e-08
2.4062809e-10
2.0665176e-08
2.2574125e-10
2.0452664e-08
2.1251148e-10
2.0251983e-08
2.0068104e-10
2.0061927e-08
1.9005598e-10
1.9881446e-08
1.8048134e-10
1.970963e-08
1.7181562e-10
1.9545678e-08
1.6395199e-10
1.9388895e-08
1.5678359e-10
1.9238672e-08
1.502233e-10
1.909445e-08
1.4422138e-10
1.8955746e-08
1.3870426e-10
1.8822133e-08
1.3361333e-10
1.8693207e-08
1.2892526e-10
1.8568612e-08
1.2459518e-10
1.8448038e-08
1.2057449e-10
1.8331192e-08
1.1684521e-10
1.82178e-08
1.133921e-10
1.8107625e-08
1.1017543e-10
1.8000457e-08
1.0716824e-10
1.7896086e-08
1.0437037e-10
1.7794318e-08
1.0176876e-10
1.7694986e-08
9.9332013e-11
1.7597942e-08
9.7043752e-11
1.7503033e-08
9.4908402e-11
1.7410113e-08
9.2920154e-11
1.731906e-08
9.1053208e-11
1.7229766e-08
8.9293979e-11
1.7142117e-08
8.7649035e-11
1.7056001e-08
8.6116515e-11
1.697132e-08
8.468099e-11
1.6887991e-08
8.332886e-11
1.6805931e-08
8.2059511e-11
1.6725054e-08
8.0877159e-11
1.6645275e-08
7.9778635e-11
1.6566527e-08
7.8748135e-11
1.6488749e-08
7.7778452e-11
1.6411872e-08
7.687689e-11
1.6335827e-08
7.6044902e-11
1.6260552e-08
7.5275247e-11
1.6185994e-08
7.4557546e-11
1.6112104e-08
7.3890254e-11
1.6038824e-08
7.3279876e-11
1.5966096e-08
7.2728519e-11
1.5893869e-08
7.2226938e-11
1.5822101e-08
7.1767445e-11
1.5750747e-08
7.1353983e-11
1.5679755e-08
7.099195e-11
1.5609073e-08
7.0682423e-11
1.5538657e-08
7.0415713e-11
1.546847e-08
7.0186654e-11
1.5398467e-08
7.0003173e-11
1.5328597e-08
6.9870041e-11
1.5258812e-08
6.9784929e-11
1.5189072e-08
6.9740595e-11
1.5119336e-08
6.9735685e-11
1.5049557e-08
6.9779072e-11
1.497968e-08
6.9876851e-11
1.4909659e-08
7.002104e-11
1.4839453e-08
7.0206061e-11
1.4769012e-08
7.0441258e-11
1.4698277e-08
7.0734811e-11
1.4627192e-08
7.1084883e-11
1.4555706e-08
7.1485592e-11
1.4483766e-08
7.1940353e-11
1.4411306e-08
7.2460473e-11
1.4338257e-08
7.3048649e-11
1.4264558e-08
7.3698916e-11
1.4190142e-08
7.4415656e-11
1.4114929e-08
7.5213508e-11
1.4038834e-08
7.6094989e-11
1.3961778e-08
7.7056211e-11
1.388367e-08
7.8107737e-11
1.3804402e-08
7.9267902e-11
1.3723875e-08
8.0527228e-11
1.3641951e-08
8.1924163e-11
1.3561988e-08
7.996231e-11
1.3485825e-08
7.6163456e-11
1.3413174e-08
7.2651094e-11
1.3343762e-08
6.9411912e-11
1.3277335e-08
6.6427313e-11
1.3213668e-08
6.3666486e-11
1.3152566e-08
6.1101681e-11
1.3093846e-08
5.8720772e-11
1.3037333e-08
5.6513002e-11
1.2982877e-08
5.4455976e-11
1.2930346e-08
5.2530365e-11
1.2879617e-08
5.0729527e-11
1.2830568e-08
4.90491e-11
1.2783082e-08
4.7485849e-11
1.2737057e-08
4.6025202e-11
1.2692378e-08
4.4679137e-11
1.2648966e-08
4.3411091e-11
1.2606567e-08
4.2399609e-11
1.2565281e-08
4.1285675e-11
1.2523895e-08
4.138587e-11
1.2484426e-08
3.9469733e-11
1.2435769e-08
4.8656046e-11
3.0832837e-11
2.0345091e-06
3.7558808e-11
2.0344497e-06
1.1809979e-10
2.0343564e-06
1.8521923e-10
2.0342426e-06
2.2584626e-10
2.0341123e-06
2.5859368e-10
2.0339668e-06
2.8881312e-10
2.0338068e-06
3.1751609e-10
2.0336327e-06
3.4570116e-10
2.033444e-06
3.7462076e-10
2.0332397e-06
4.0541943e-10
2.0330185e-06
4.3917663e-10
2.0327781e-06
4.7718878e-10
2.0325155e-06
5.2114952e-10
2.0322265e-06
5.7371939e-10
2.031905e-06
6.3813119e-10
2.0315414e-06
7.2196472e-10
2.0311236e-06
8.2938415e-10
2.0306219e-06
9.9581517e-10
2.03002e-06
1.195041e-09
2.0291731e-06
1.6811644e-09
2.028131e-06
2.0687485e-09
2.0253248e-06
5.5714525e-09
2.0230664e-06
4.4828485e-09
1.0968333e-06
1.89409e-06
1.2951692e-07
1.9496715e-06
8.3810775e-08
6.1466265e-08
7.7625797e-08
8.2069588e-09
7.5137663e-08
3.3007795e-09
7.3360665e-08
2.3572292e-09
7.1839151e-08
2.0186833e-09
7.0493607e-08
1.7853009e-09
6.9289815e-08
1.5972205e-09
6.8201412e-08
1.4441171e-09
6.7207486e-08
1.3187679e-09
6.6292783e-08
1.2136579e-09
6.5445963e-08
1.1235908e-09
6.4658096e-08
1.0453684e-09
6.3921859e-08
9.7686603e-10
6.3231168e-08
9.1643137e-10
6.2580956e-08
8.6272353e-10
6.1966941e-08
8.1469671e-10
6.1385433e-08
7.7156403e-10
6.083322e-08
7.3269439e-10
6.0307519e-08
6.9751622e-10
5.9805879e-08
6.6559242e-10
5.932617e-08
6.3649178e-10
5.8866533e-08
6.0986104e-10
5.842526e-08
5.8549426e-10
5.8000867e-08
5.630972e-10
5.7592049e-08
5.424314e-10
5.7197575e-08
5.2339869e-10
5.6816351e-08
5.0581996e-10
5.6447427e-08
4.8949844e-10
5.6089913e-08
4.7435923e-10
5.5742965e-08
4.6033975e-10
5.5405859e-08
4.4728162e-10
5.5077952e-08
4.3507467e-10
5.4758607e-08
4.2371587e-10
5.4447222e-08
4.1315342e-10
5.4143293e-08
4.0326155e-10
5.3846363e-08
3.9397293e-10
5.3555968e-08
3.8530383e-10
5.3271657e-08
3.7723134e-10
5.2993057e-08
3.6965253e-10
5.271984e-08
3.6251162e-10
5.2451655e-08
3.5583342e-10
5.2188161e-08
3.4961136e-10
5.1929058e-08
3.437835e-10
5.1674092e-08
3.3829496e-10
5.1423009e-08
3.3314203e-10
5.1175545e-08
3.2834182e-10
5.0931442e-08
3.2388161e-10
5.0690492e-08
3.1969844e-10
5.0452507e-08
3.157625e-10
5.0217282e-08
3.1210226e-10
4.9984603e-08
3.0872435e-10
4.9754278e-08
3.0559958e-10
4.9526149e-08
3.0268638e-10
4.9300062e-08
2.9997771e-10
4.9075842e-08
2.9749964e-10
4.885331e-08
2.9526092e-10
4.8632312e-08
2.932247e-10
4.841272e-08
2.9135982e-10
4.8194392e-08
2.8968135e-10
4.7977173e-08
2.8821151e-10
4.7760901e-08
2.8695457e-10
4.7545444e-08
2.8587203e-10
4.7330688e-08
2.8494261e-10
4.7116494e-08
2.8419765e-10
4.6902707e-08
2.8365703e-10
4.668918e-08
2.8331136e-10
4.6475789e-08
2.8313168e-10
4.6262413e-08
2.8311205e-10
4.6048904e-08
2.8328815e-10
4.5835096e-08
2.8368482e-10
4.5620847e-08
2.8427034e-10
4.5406031e-08
2.8502191e-10
4.5190495e-08
2.8597674e-10
4.4974062e-08
2.8716835e-10
4.4756557e-08
2.8858954e-10
4.4537826e-08
2.9021661e-10
4.4317703e-08
2.9206301e-10
4.409599e-08
2.9417447e-10
4.3872476e-08
2.9656226e-10
4.3646972e-08
2.9920245e-10
4.3419276e-08
3.0211244e-10
4.3189138e-08
3.053514e-10
4.2956303e-08
3.0893003e-10
4.2720526e-08
3.1283265e-10
4.2481532e-08
3.1710167e-10
4.2238989e-08
3.2181155e-10
4.1992592e-08
3.269242e-10
4.174192e-08
3.3259596e-10
4.1497251e-08
3.2463125e-10
4.1264206e-08
3.0920843e-10
4.1041908e-08
2.9494901e-10
4.0829521e-08
2.817986e-10
4.0626267e-08
2.6968162e-10
4.043146e-08
2.5847328e-10
4.0244501e-08
2.480608e-10
4.0064827e-08
2.3839473e-10
3.9891909e-08
2.2943145e-10
3.9725284e-08
2.2108032e-10
3.9564552e-08
2.132628e-10
3.940933e-08
2.0595164e-10
3.925925e-08
1.9912928e-10
3.9113953e-08
1.927825e-10
3.8973126e-08
1.868523e-10
3.8836418e-08
1.8138726e-10
3.8703591e-08
1.7623825e-10
3.8573859e-08
1.7213105e-10
3.8447541e-08
1.6760359e-10
3.8320914e-08
1.6801282e-10
3.8200221e-08
1.6016316e-10
3.8051058e-08
1.9781908e-10
1.2473746e-10
2.0947016e-06
5.7037243e-11
2.0946403e-06
1.7935551e-10
2.0945443e-06
2.8130314e-10
2.0944271e-06
3.430225e-10
2.0942929e-06
3.9277257e-10
2.094143e-06
4.3867882e-10
2.0939783e-06
4.8227808e-10
2.0937989e-06
5.2508791e-10
2.0936045e-06
5.6901103e-10
2.0933941e-06
6.15786e-10
2.0931663e-06
6.6705254e-10
2.0929187e-06
7.2477964e-10
2.0926483e-06
7.9153957e-10
2.0923506e-06
8.7137287e-10
2.0920196e-06
9.6918911e-10
2.091645e-06
1.0964992e-09
2.0912148e-06
1.2596271e-09
2.0906982e-06
1.5123707e-09
2.0900784e-06
1.8149168e-09
2.0892064e-06
2.5531465e-09
2.0881334e-06
3.1417353e-09
2.0852442e-06
8.4605964e-09
2.0829189e-06
6.8081506e-09
1.1857327e-06
2.7912762e-06
2.2102031e-07
2.9143839e-06
1.4524452e-07
1.3724205e-07
1.3452519e-07
1.892629e-08
1.3021116e-07
7.6148132e-09
1.2712965e-07
5.4387394e-09
1.2449269e-07
4.6556388e-09
1.221611e-07
4.1168943e-09
1.2007516e-07
3.6831605e-09
1.1818915e-07
3.3301265e-09
1.1646686e-07
3.0410522e-09
1.1488187e-07
2.79865e-09
1.1341451e-07
2.5909489e-09
1.1204931e-07
2.4105733e-09
1.1077356e-07
2.2526143e-09
1.0957673e-07
2.1132579e-09
1.0845004e-07
1.9894124e-09
1.0738607e-07
1.8786672e-09
1.0637843e-07
1.7792083e-09
1.0542155e-07
1.6895781e-09
1.045106e-07
1.6084619e-09
1.0364135e-07
1.5348476e-09
1.0281009e-07
1.4677444e-09
1.0201362e-07
1.4063381e-09
1.0124896e-07
1.3501483e-09
1.0051356e-07
1.2985028e-09
9.9805136e-08
1.250851e-09
9.9121573e-08
1.2069616e-09
9.8460968e-08
1.1664257e-09
9.7821675e-08
1.1287909e-09
9.7202153e-08
1.0938812e-09
9.6600942e-08
1.0615513e-09
9.6016783e-08
1.0314406e-09
9.5448563e-08
1.0032938e-09
9.4895179e-08
9.7710034e-10
9.435559e-08
9.5274244e-10
9.3828918e-08
9.2993305e-10
9.3314376e-08
9.085154e-10
9.2811155e-08
8.8852429e-10
9.2318479e-08
8.6990806e-10
9.1835699e-08
8.5243222e-10
9.1362244e-08
8.3596707e-10
9.089751e-08
8.2056703e-10
9.0440903e-08
8.0621824e-10
8.9991907e-08
7.9277928e-10
8.9550078e-08
7.8012396e-10
8.9114978e-08
7.682419e-10
8.8686148e-08
7.5717233e-10
8.8263143e-08
7.4688637e-10
8.7845601e-08
7.3724066e-10
8.7433198e-08
7.2816561e-10
8.7025575e-08
7.1972498e-10
8.6622364e-08
7.1193507e-10
8.6223235e-08
7.047292e-10
8.5827909e-08
6.9801218e-10
8.543612e-08
6.9176669e-10
8.5047568e-08
6.8605216e-10
8.4661939e-08
6.8088913e-10
8.427897e-08
6.7619382e-10
8.3898436e-08
6.7189436e-10
8.3520093e-08
6.6802409e-10
8.314367e-08
6.6463454e-10
8.2768889e-08
6.6173562e-10
8.2395521e-08
6.5923974e-10
8.2023366e-08
6.5709742e-10
8.1652184e-08
6.5537961e-10
8.1281709e-08
6.5413278e-10
8.0911684e-08
6.5333561e-10
8.0541894e-08
6.5292192e-10
8.0172129e-08
6.5287729e-10
7.9802133e-08
6.5328349e-10
7.943162e-08
6.5419789e-10
7.9060342e-08
6.5554853e-10
7.8688082e-08
6.5728255e-10
7.8314574e-08
6.5948462e-10
7.793951e-08
6.6223246e-10
7.7562589e-08
6.6550993e-10
7.7183543e-08
6.6926271e-10
7.6802085e-08
6.7352109e-10
7.6417869e-08
6.7839022e-10
7.6030535e-08
6.8389672e-10
7.5639752e-08
6.8998574e-10
7.5245167e-08
6.9669687e-10
7.4846352e-08
7.0416611e-10
7.4442864e-08
7.1241891e-10
7.4034277e-08
7.2141922e-10
7.3620114e-08
7.3126421e-10
7.31998e-08
7.4212552e-10
7.2772809e-08
7.5391602e-10
7.2338408e-08
7.6699652e-10
7.191441e-08
7.4862941e-10
7.1510556e-08
7.1306274e-10
7.1125325e-08
6.8017944e-10
7.075727e-08
6.4985356e-10
7.0405041e-08
6.2191064e-10
7.0067451e-08
5.9606337e-10
6.974346e-08
5.7205155e-10
6.9432094e-08
5.4976069e-10
6.9132435e-08
5.2909032e-10
6.8843684e-08
5.0983185e-10
6.8565143e-08
4.9180411e-10
6.8296151e-08
4.7494376e-10
6.8036069e-08
4.5921047e-10
6.7784278e-08
4.4457372e-10
6.7540233e-08
4.308977e-10
6.7303326e-08
4.1829417e-10
6.7073145e-08
4.0641868e-10
6.6848332e-08
3.9694438e-10
6.6629438e-08
3.8649789e-10
6.6410016e-08
3.8743485e-10
6.6200923e-08
3.6925614e-10
6.5942236e-08
4.5650567e-10
2.8717412e-10
2.1861099e-06
7.7365991e-11
2.186046e-06
2.4329155e-10
2.1859457e-06
3.8160321e-10
2.1858233e-06
4.6535386e-10
2.1856832e-06
5.3286451e-10
2.1855268e-06
5.9515416e-10
2.1853547e-06
6.5430859e-10
2.1851674e-06
7.1238781e-10
2.1849645e-06
7.7197381e-10
2.1847448e-06
8.3542559e-10
2.1845069e-06
9.0496779e-10
2.1842484e-06
9.8327164e-10
2.1839661e-06
1.0738266e-09
2.1836554e-06
1.1821135e-09
2.1833098e-06
1.3147923e-09
2.1829188e-06
1.4874766e-09
2.1824697e-06
1.7087445e-09
2.1819305e-06
2.0515683e-09
2.1812835e-06
2.4619445e-09
2.1803733e-06
3.4632864e-09
2.1792534e-06
4.2616472e-09
2.1762384e-06
1.1475601e-08
2.1738116e-06
9.2349691e-09
1.2958244e-06
3.6692634e-06
3.2276696e-07
3.8874414e-06
2.1534238e-07
2.4466663e-07
1.9945506e-07
3.481361e-08
1.9305459e-07
1.4015286e-08
1.8848351e-07
1.0009817e-08
1.8457416e-07
8.5649896e-09
1.8111809e-07
7.5729638e-09
1.7802618e-07
6.7750749e-09
1.7523056e-07
6.1257407e-09
1.7267764e-07
5.5939792e-09
1.7032822e-07
5.1480636e-09
1.6815317e-07
4.7659983e-09
1.6612953e-07
4.4342152e-09
1.6423847e-07
4.1436699e-09
1.6246439e-07
3.8873401e-09
1.6079427e-07
3.6595389e-09
1.592171e-07
3.4558349e-09
1.5772341e-07
3.2728915e-09
1.5630497e-07
3.1080249e-09
1.5495461e-07
2.9588208e-09
1.5366604e-07
2.8234124e-09
1.5243381e-07
2.6999819e-09
1.5125311e-07
2.5870321e-09
1.5011959e-07
2.4836721e-09
1.4902942e-07
2.388674e-09
1.4797924e-07
2.3010244e-09
1.4696592e-07
2.2202901e-09
1.4598662e-07
2.1457254e-09
1.4503891e-07
2.0765004e-09
1.441205e-07
2.0122857e-09
1.4322924e-07
1.9528135e-09
1.4236325e-07
1.8974267e-09
1.4152089e-07
1.8456544e-09
1.4070052e-07
1.7974711e-09
1.399006e-07
1.7526631e-09
1.3911983e-07
1.7107069e-09
1.3835703e-07
1.671312e-09
1.3761102e-07
1.6345379e-09
1.3688063e-07
1.6002913e-09
1.3616492e-07
1.5681457e-09
1.3546303e-07
1.5378607e-09
1.3477406e-07
1.5095321e-09
1.3409714e-07
1.483136e-09
1.3343151e-07
1.458415e-09
1.327765e-07
1.4351374e-09
1.3213146e-07
1.4132813e-09
1.3149571e-07
1.3929181e-09
1.308686e-07
1.3739959e-09
1.3024959e-07
1.3562537e-09
1.2963819e-07
1.3395621e-09
1.2903388e-07
1.3240354e-09
1.2843611e-07
1.3097051e-09
1.2784439e-07
1.2964497e-09
1.2725831e-07
1.2840951e-09
1.2667747e-07
1.2726078e-09
1.2610142e-07
1.2620959e-09
1.2552971e-07
1.2525978e-09
1.2496195e-07
1.2439613e-09
1.2439779e-07
1.2360542e-09
1.2383688e-07
1.2289357e-09
1.2327881e-07
1.2227006e-09
1.2272318e-07
1.2173677e-09
1.2216964e-07
1.2127777e-09
1.216179e-07
1.2088388e-09
1.210676e-07
1.2056795e-09
1.2051834e-07
1.2033861e-09
1.1996976e-07
1.2019202e-09
1.1942152e-07
1.2011608e-09
1.1887332e-07
1.2010804e-09
1.1832477e-07
1.2018284e-09
1.1777546e-07
1.2035107e-09
1.1722501e-07
1.2059967e-09
1.1667311e-07
1.2091887e-09
1.1611935e-07
1.2132407e-09
1.1556329e-07
1.2182962e-09
1.1500447e-07
1.2243265e-09
1.144425e-07
1.2312321e-09
1.1387695e-07
1.2390675e-09
1.1330732e-07
1.2480257e-09
1.1273306e-07
1.2581567e-09
1.1215368e-07
1.2693601e-09
1.1156867e-07
1.2817078e-09
1.1097739e-07
1.2954495e-09
1.1037918e-07
1.3106331e-09
1.097734e-07
1.3271925e-09
1.0915936e-07
1.3453054e-09
1.085362e-07
1.3652875e-09
1.0790314e-07
1.3869797e-09
1.0725909e-07
1.4110461e-09
1.0663046e-07
1.3772572e-09
1.060317e-07
1.3118253e-09
1.0546054e-07
1.2513306e-09
1.0491486e-07
1.1955408e-09
1.0439263e-07
1.1441344e-09
1.0389211e-07
1.0965837e-09
1.0341175e-07
1.0524098e-09
1.0295011e-07
1.0114014e-09
1.0250583e-07
9.7337389e-10
1.0207772e-07
9.3794422e-10
1.0166474e-07
9.0477889e-10
1.0126593e-07
8.7376074e-10
1.0088032e-07
8.4481572e-10
1.0050701e-07
8.1788768e-10
1.0014518e-07
7.9272718e-10
9.9793932e-08
7.6953914e-10
9.9452661e-08
7.4768978e-10
9.9119352e-08
7.3025356e-10
9.8794821e-08
7.1102928e-10
9.8469527e-08
7.1272834e-10
9.8159574e-08
6.7920943e-10
9.7775918e-08
8.4016152e-10
5.2783688e-10
2.3100962e-06
9.8848059e-11
2.3100286e-06
3.1086227e-10
2.3099226e-06
4.8761919e-10
2.3097933e-06
5.9467258e-10
2.3096452e-06
6.8097e-10
2.3094798e-06
7.6058657e-10
2.3092979e-06
8.3618884e-10
2.3090999e-06
9.1041108e-10
2.3088853e-06
9.8655384e-10
2.3086531e-06
1.0676322e-09
2.3084015e-06
1.1564892e-09
2.3081283e-06
1.2565386e-09
2.3078299e-06
1.3722391e-09
2.3075014e-06
1.5105941e-09
2.3071361e-06
1.680113e-09
2.3067228e-06
1.9007454e-09
2.3062481e-06
2.1834514e-09
2.3056782e-06
2.6214658e-09
2.3049943e-06
3.145789e-09
2.3040325e-06
4.4251699e-09
2.3028489e-06
5.4451969e-09
2.2996632e-06
1.4661282e-08
2.2970988e-06
1.1799443e-08
1.4309811e-06
4.535381e-06
4.4013317e-07
4.8782893e-06
2.9823921e-07
3.8656059e-07
2.7625354e-07
5.6799279e-08
2.6738031e-07
2.2888518e-08
2.6104792e-07
1.63422e-08
2.5563568e-07
1.3977237e-08
2.5085176e-07
1.2356885e-08
2.4657188e-07
1.1054949e-08
2.4270202e-07
9.9956065e-09
2.3916804e-07
9.1279568e-09
2.3591575e-07
8.4003545e-09
2.3290479e-07
7.7769578e-09
2.3010338e-07
7.235628e-09
2.2748546e-07
6.7615865e-09
2.2502943e-07
6.3433643e-09
2.2271729e-07
5.9716841e-09
2.205338e-07
5.6393198e-09
2.1846587e-07
5.340828e-09
2.1650207e-07
5.0718267e-09
2.1463251e-07
4.8283819e-09
2.1284848e-07
4.6074411e-09
2.1114241e-07
4.4060455e-09
2.0950769e-07
4.2217525e-09
2.0793827e-07
4.053098e-09
2.0642885e-07
3.8980912e-09
2.049748e-07
3.7550781e-09
2.0357175e-07
3.6233405e-09
2.022158e-07
3.5016707e-09
2.0090358e-07
3.3887188e-09
1.9963193e-07
3.2839386e-09
1.9839785e-07
3.1868918e-09
1.9719876e-07
3.0965163e-09
1.9603237e-07
3.0120415e-09
1.9489643e-07
2.9334169e-09
1.9378879e-07
2.8602977e-09
1.9270766e-07
2.7918375e-09
1.9165142e-07
2.7275583e-09
1.906184e-07
2.6675503e-09
1.8960703e-07
2.6116643e-09
1.8861597e-07
2.5592117e-09
1.8764403e-07
2.5097976e-09
1.8668999e-07
2.4635712e-09
1.8575263e-07
2.4204962e-09
1.8483089e-07
2.3801572e-09
1.8392385e-07
2.3421762e-09
1.8303062e-07
2.3065136e-09
1.8215025e-07
2.2732844e-09
1.8128184e-07
2.2424059e-09
1.8042464e-07
2.2134564e-09
1.7957798e-07
2.1862227e-09
1.7874112e-07
2.160887e-09
1.7791333e-07
2.1375021e-09
1.770939e-07
2.1158724e-09
1.7628228e-07
2.0957153e-09
1.7547792e-07
2.0769733e-09
1.7468019e-07
2.0598207e-09
1.7388847e-07
2.0443215e-09
1.731022e-07
2.0302304e-09
1.7232092e-07
2.0173314e-09
1.7154414e-07
2.0057179e-09
1.707713e-07
1.9955447e-09
1.7000182e-07
1.9868433e-09
1.6923524e-07
1.9793565e-09
1.6847115e-07
1.9729334e-09
1.6770905e-07
1.9677806e-09
1.6694839e-07
1.96404e-09
1.6618866e-07
1.9616504e-09
1.6542941e-07
1.9604156e-09
1.646702e-07
1.9602892e-09
1.6391052e-07
1.961513e-09
1.6314977e-07
1.9642608e-09
1.6238744e-07
1.968322e-09
1.6162309e-07
1.9735368e-09
1.6085618e-07
1.9801536e-09
1.6008607e-07
1.9884072e-09
1.5931214e-07
1.9982527e-09
1.5853385e-07
2.0095279e-09
1.5775059e-07
2.0223204e-09
1.5696168e-07
2.0369442e-09
1.5616635e-07
2.0534824e-09
1.5536394e-07
2.0717723e-09
1.5455372e-07
2.0919298e-09
1.537348e-07
2.1143612e-09
1.5290629e-07
2.1391465e-09
1.520673e-07
2.1661785e-09
1.5121686e-07
2.1957455e-09
1.5035379e-07
2.2283625e-09
1.49477e-07
2.2637719e-09
1.4858499e-07
2.303058e-09
1.4771433e-07
2.247913e-09
1.4688503e-07
2.14112e-09
1.4609398e-07
2.0423857e-09
1.4533819e-07
1.95133e-09
1.446149e-07
1.8674282e-09
1.4392166e-07
1.7898197e-09
1.4325635e-07
1.7177229e-09
1.4261696e-07
1.6507916e-09
1.4200161e-07
1.5887248e-09
1.4140865e-07
1.5308986e-09
1.4083666e-07
1.4767685e-09
1.4028428e-07
1.426142e-09
1.397502e-07
1.3788986e-09
1.3923314e-07
1.3349467e-09
1.3873199e-07
1.2938798e-09
1.3824549e-07
1.2560311e-09
1.3777282e-07
1.2203666e-09
1.3731118e-07
1.1918962e-09
1.3686169e-07
1.1605133e-09
1.3641118e-07
1.1632348e-09
1.3598194e-07
1.1084532e-09
1.3545047e-07
1.3716331e-09
8.6105752e-10
2.4685082e-06
1.2180366e-10
2.468436e-06
3.8307668e-10
2.4683227e-06
6.0093775e-10
2.4681844e-06
7.3291812e-10
2.4680261e-06
8.393133e-10
2.4678492e-06
9.3746219e-10
2.4676548e-06
1.0306528e-09
2.467443e-06
1.1221342e-09
2.4672136e-06
1.2159757e-09
2.4669653e-06
1.315894e-09
2.4666964e-06
1.4253936e-09
2.4664043e-06
1.5486817e-09
2.4660853e-06
1.6912534e-09
2.4657341e-06
1.8617391e-09
2.4653436e-06
2.0706248e-09
2.4649019e-06
2.3424938e-09
2.4643945e-06
2.6908516e-09
2.4637854e-06
3.2305857e-09
2.4630545e-06
3.8766714e-09
2.4620265e-06
5.4531618e-09
2.4607616e-06
6.7100535e-09
2.457358e-06
1.8064959e-08
2.4546177e-06
1.4539716e-08
1.5954352e-06
5.3945635e-06
5.7896356e-07
5.8947609e-06
3.9874678e-07
5.6677736e-07
3.693967e-07
8.6149362e-08
3.5751795e-07
3.476727e-08
3.4905368e-07
2.4806463e-08
3.4182448e-07
2.1206439e-08
3.3543553e-07
1.8745834e-08
3.2971956e-07
1.6770927e-08
3.2455083e-07
1.5164337e-08
3.1983052e-07
1.3848264e-08
3.1548631e-07
1.2744565e-08
3.1146431e-07
1.1798957e-08
3.0772208e-07
1.0977861e-08
3.0422483e-07
1.0258831e-08
3.0094374e-07
9.6244544e-09
2.9785476e-07
9.0606617e-09
2.9493758e-07
8.5565005e-09
2.9217469e-07
8.1037149e-09
2.8955087e-07
7.6956562e-09
2.8705288e-07
7.3263645e-09
2.8466913e-07
6.9911979e-09
2.8238949e-07
6.6856823e-09
2.8020513e-07
6.4061119e-09
2.7810798e-07
6.1502513e-09
2.7609097e-07
5.915099e-09
2.741479e-07
5.6981454e-09
2.7227296e-07
5.4982847e-09
2.7046093e-07
5.3136978e-09
2.687073e-07
5.1423439e-09
2.6700786e-07
4.9833811e-09
2.6535861e-07
4.8361427e-09
2.6375609e-07
4.6990328e-09
2.6219726e-07
4.570879e-09
2.6067908e-07
4.4515913e-09
2.5919873e-07
4.3406524e-09
2.5775378e-07
4.23679e-09
2.5634206e-07
4.1392735e-09
2.5496138e-07
4.0482289e-09
2.5360961e-07
3.9634347e-09
2.5228497e-07
3.8838571e-09
2.5098587e-07
3.808893e-09
2.4971068e-07
3.7387583e-09
2.4845778e-07
3.6734017e-09
2.4722574e-07
3.6122001e-09
2.4601333e-07
3.5545807e-09
2.4481937e-07
3.5004767e-09
2.4364259e-07
3.4500605e-09
2.4248179e-07
3.40321e-09
2.4133595e-07
3.3592918e-09
2.402042e-07
3.3179791e-09
2.3908554e-07
3.2795415e-09
2.3797898e-07
3.2440617e-09
2.3688361e-07
3.2112471e-09
2.3579865e-07
3.1806706e-09
2.3472338e-07
3.1522412e-09
2.3365698e-07
3.1262202e-09
2.325986e-07
3.1027065e-09
2.315475e-07
3.0813326e-09
2.3050306e-07
3.0617703e-09
2.2946462e-07
3.0441569e-09
2.2843144e-07
3.0287266e-09
2.2740275e-07
3.0155293e-09
2.2637793e-07
3.0041786e-09
2.2535642e-07
2.9944439e-09
2.2433757e-07
2.986634e-09
2.2332064e-07
2.9809657e-09
2.2230494e-07
2.9773487e-09
2.2128987e-07
2.9754869e-09
2.2027485e-07
2.9753075e-09
2.1925919e-07
2.9771748e-09
2.182421e-07
2.9813538e-09
2.1722289e-07
2.9875292e-09
2.1620097e-07
2.9954571e-09
2.1517561e-07
3.0055107e-09
2.1414597e-07
3.0180472e-09
2.1311122e-07
3.0330012e-09
2.1207062e-07
3.0501271e-09
2.1102339e-07
3.0695556e-09
2.0996857e-07
3.091762e-09
2.0890518e-07
3.1168746e-09
2.078323e-07
3.1446482e-09
2.0674898e-07
3.1752564e-09
2.0565402e-07
3.2093144e-09
2.0454622e-07
3.2469464e-09
2.0342441e-07
3.2879906e-09
2.0228728e-07
3.3328817e-09
2.0113324e-07
3.3824014e-09
1.9996085e-07
3.4361619e-09
1.987681e-07
3.4958093e-09
1.9760389e-07
3.4121173e-09
1.9649499e-07
3.2500254e-09
1.9543721e-07
3.1001659e-09
1.9442657e-07
2.9619604e-09
1.9345939e-07
2.8346121e-09
1.9253239e-07
2.7168164e-09
1.9164273e-07
2.6073864e-09
1.9078773e-07
2.5057952e-09
1.8996487e-07
2.4115865e-09
1.8917195e-07
2.3238152e-09
1.8840706e-07
2.241654e-09
1.876684e-07
2.1648098e-09
1.8695419e-07
2.0930994e-09
1.8626276e-07
2.0263842e-09
1.8559259e-07
1.9640482e-09
1.8494203e-07
1.9065948e-09
1.8430994e-07
1.8524564e-09
1.8369261e-07
1.8092221e-09
1.8309154e-07
1.7615805e-09
1.8248916e-07
1.7656212e-09
1.8191521e-07
1.6823981e-09
1.8120442e-07
2.082424e-09
1.3065968e-09
2.6637066e-06
1.4657499e-10
2.6636287e-06
4.6101368e-10
2.6635064e-06
7.2325652e-10
2.6633571e-06
8.8216691e-10
2.6631861e-06
1.0102767e-09
2.6629952e-06
1.1284444e-09
2.6627852e-06
1.2406295e-09
2.6625566e-06
1.3507461e-09
2.6623089e-06
1.463694e-09
2.6620408e-06
1.5839478e-09
2.6617505e-06
1.7157262e-09
2.6614351e-06
1.8640931e-09
2.6610906e-06
2.0356623e-09
2.6607116e-06
2.2408202e-09
2.66029e-06
2.4921862e-09
2.6598132e-06
2.8193439e-09
2.6592655e-06
3.2385457e-09
2.658608e-06
3.8880449e-09
2.6578191e-06
4.6655235e-09
2.6567097e-06
6.5626218e-09
2.6553446e-06
8.0751081e-09
2.6516725e-06
2.1737139e-08
2.6487156e-06
1.7496523e-08
1.7938373e-06
6.2494419e-06
7.4571239e-07
6.9428858e-06
5.2253892e-07
7.8995083e-07
4.8417599e-07
1.245123e-07
4.6859165e-07
5.0351612e-08
4.5751288e-07
3.5885233e-08
4.4805836e-07
3.066095e-08
4.3970387e-07
2.7100324e-08
4.3222879e-07
2.4246011e-08
4.2546859e-07
2.1924534e-08
4.1929435e-07
2.0022508e-08
4.1361162e-07
1.8427299e-08
4.0834998e-07
1.7060589e-08
4.0345398e-07
1.5873863e-08
3.9887817e-07
1.4834639e-08
3.945849e-07
1.3917729e-08
3.9054275e-07
1.3102808e-08
3.8672519e-07
1.2374061e-08
3.8310935e-07
1.171956e-08
3.7967531e-07
1.1129693e-08
3.7640582e-07
1.0595853e-08
3.7328569e-07
1.0111329e-08
3.7030171e-07
9.6696628e-09
3.6744232e-07
9.2655003e-09
3.6469698e-07
8.8955915e-09
3.6205646e-07
8.5556239e-09
3.5951263e-07
8.24197e-09
3.5705791e-07
7.9530077e-09
3.5468548e-07
7.6861265e-09
3.5238944e-07
7.4383868e-09
3.5016427e-07
7.2085518e-09
3.4800475e-07
6.995656e-09
3.4590637e-07
6.7974144e-09
3.4386512e-07
6.6121274e-09
3.4187707e-07
6.439645e-09
3.3993849e-07
6.2792283e-09
3.3804623e-07
6.1290553e-09
3.3619744e-07
5.9880618e-09
3.3438926e-07
5.8564137e-09
3.3261889e-07
5.7337977e-09
3.3088401e-07
5.6187363e-09
3.2918256e-07
5.5103508e-09
3.2751238e-07
5.4089385e-09
3.2587135e-07
5.3144303e-09
3.2425761e-07
5.2259364e-09
3.2266956e-07
5.1426289e-09
3.2110564e-07
5.0644022e-09
3.195642e-07
4.9915016e-09
3.1804365e-07
4.9237563e-09
3.1654268e-07
4.8602597e-09
3.1506013e-07
4.8005341e-09
3.1359471e-07
4.7449597e-09
3.1214511e-07
4.6936595e-09
3.1071014e-07
4.646217e-09
3.0928879e-07
4.6020169e-09
3.0788011e-07
4.560922e-09
3.0648303e-07
4.5233052e-09
3.0509642e-07
4.4893127e-09
3.0371933e-07
4.4584201e-09
3.0235095e-07
4.4301521e-09
3.0099041e-07
4.4047e-09
2.9963673e-07
4.3824023e-09
2.9828893e-07
4.3633341e-09
2.9694617e-07
4.3469424e-09
2.9560772e-07
4.332891e-09
2.9427273e-07
4.3216199e-09
2.9294025e-07
4.3134447e-09
2.9160936e-07
4.3082389e-09
2.9027927e-07
4.3055763e-09
2.8894923e-07
4.3053486e-09
2.8761833e-07
4.3080783e-09
2.8628553e-07
4.314151e-09
2.8494994e-07
4.3231167e-09
2.8361078e-07
4.3346211e-09
2.8226709e-07
4.3491981e-09
2.8091777e-07
4.3673659e-09
2.7956174e-07
4.3890339e-09
2.7819802e-07
4.4138481e-09
2.7682558e-07
4.4419939e-09
2.7544319e-07
4.4741569e-09
2.7404954e-07
4.5105268e-09
2.7264343e-07
4.550751e-09
2.7122361e-07
4.5950772e-09
2.6978853e-07
4.6443938e-09
2.6833659e-07
4.6988847e-09
2.6686627e-07
4.7583166e-09
2.6537583e-07
4.8233152e-09
2.6386322e-07
4.8950114e-09
2.6232654e-07
4.9728487e-09
2.6076314e-07
5.0592102e-09
2.5923713e-07
4.9381237e-09
2.5778359e-07
4.7035679e-09
2.5639704e-07
4.4867131e-09
2.5507228e-07
4.286721e-09
2.5380445e-07
4.1024373e-09
2.5258929e-07
3.9319773e-09
2.5142306e-07
3.7736226e-09
2.5030224e-07
3.6266088e-09
2.4922355e-07
3.4902762e-09
2.4818411e-07
3.3632599e-09
2.471814e-07
3.2443623e-09
2.4621305e-07
3.1331569e-09
2.4527677e-07
3.0293791e-09
2.4437033e-07
2.9328284e-09
2.4349176e-07
2.8426153e-09
2.4263889e-07
2.7594648e-09
2.4181024e-07
2.6811109e-09
2.4100095e-07
2.6185125e-09
2.4021297e-07
2.5495602e-09
2.3942333e-07
2.555264e-09
2.3867097e-07
2.4347554e-09
2.3773906e-07
3.0143366e-09
1.8906786e-09
2.8986003e-06
1.7353134e-10
2.8985155e-06
5.4583826e-10
2.8983823e-06
8.5640995e-10
2.8982198e-06
1.0446644e-09
2.8980337e-06
1.1964377e-09
2.8978257e-06
1.3364154e-09
2.897597e-06
1.469289e-09
2.8973481e-06
1.5996978e-09
2.8970783e-06
1.7334469e-09
2.8967865e-06
1.8758365e-09
2.8964703e-06
2.031863e-09
2.8961269e-06
2.2075233e-09
2.8957519e-06
2.4106489e-09
2.8953392e-06
2.6535375e-09
2.8948802e-06
2.9511304e-09
2.8943611e-06
3.338453e-09
2.8937649e-06
3.834747e-09
2.8930493e-06
4.6036926e-09
2.8921907e-06
5.5241534e-09
2.8909831e-06
7.7701356e-09
2.8894975e-06
9.5607579e-09
2.8855024e-06
2.5732243e-08
2.8822851e-06
2.0713794e-08
2.0312658e-06
7.1004612e-06
9.4750503e-07
8.0266466e-06
6.7628947e-07
1.0611664e-06
6.2683652e-07
1.7396524e-07
6.0666106e-07
7.0527073e-08
5.9236244e-07
5.0183857e-08
5.8017173e-07
4.2851657e-08
5.694005e-07
3.7871555e-08
5.5976162e-07
3.3884896e-08
5.5104291e-07
3.0643241e-08
5.4307867e-07
2.7986752e-08
5.357474e-07
2.5758561e-08
5.2895849e-07
2.3849502e-08
5.2264051e-07
2.2191842e-08
5.1673499e-07
2.0740164e-08
5.1119345e-07
1.9459264e-08
5.0597549e-07
1.8320767e-08
5.0104694e-07
1.7302613e-08
4.9637835e-07
1.6388147e-08
4.919441e-07
1.5563946e-08
4.8772195e-07
1.4818003e-08
4.8369235e-07
1.4140931e-08
4.7983828e-07
1.3523732e-08
4.7614485e-07
1.2958928e-08
4.7259849e-07
1.2441954e-08
4.6918729e-07
1.1966821e-08
4.659008e-07
1.1528464e-08
4.6272923e-07
1.1124582e-08
4.596638e-07
1.0751556e-08
4.5669689e-07
1.0405295e-08
4.538214e-07
1.0084041e-08
4.5103061e-07
9.7864438e-09
4.4831868e-07
9.5093423e-09
4.4568045e-07
9.2503551e-09
4.4311086e-07
9.0092437e-09
4.406051e-07
8.7849891e-09
4.3815908e-07
8.5750703e-09
4.3576915e-07
8.3779877e-09
4.3343162e-07
8.1939506e-09
4.3114288e-07
8.0225319e-09
4.2889993e-07
7.8616904e-09
4.2670009e-07
7.7101888e-09
4.2454061e-07
7.5684208e-09
4.2241874e-07
7.4362976e-09
4.2033209e-07
7.3125918e-09
4.1827857e-07
7.1961463e-09
4.1625617e-07
7.0868005e-09
4.1426278e-07
6.9848918e-09
4.1229635e-07
6.8901902e-09
4.1035516e-07
6.8014412e-09
4.0843773e-07
6.7179699e-09
4.065424e-07
6.6402934e-09
4.0466747e-07
6.5685891e-09
4.028114e-07
6.5022843e-09
4.0097289e-07
6.4405222e-09
3.9915071e-07
6.383103e-09
3.9734348e-07
6.3305405e-09
3.9554975e-07
6.2830442e-09
3.9376827e-07
6.2398911e-09
3.9199801e-07
6.2004154e-09
3.9023784e-07
6.1648747e-09
3.884865e-07
6.1337412e-09
3.8674271e-07
6.1071251e-09
3.8500539e-07
6.0842614e-09
3.832736e-07
6.0646758e-09
3.8154625e-07
6.0489743e-09
3.7982209e-07
6.0376013e-09
3.7809994e-07
6.030386e-09
3.7637879e-07
6.0267358e-09
3.7465764e-07
6.0264939e-09
3.7293533e-07
6.0303856e-09
3.7121053e-07
6.0389535e-09
3.6948207e-07
6.0515771e-09
3.6774893e-07
6.0677587e-09
3.6600989e-07
6.0882364e-09
3.6426352e-07
6.1137375e-09
3.6250841e-07
6.1441419e-09
3.6074331e-07
6.1789557e-09
3.5896687e-07
6.2184328e-09
3.5717749e-07
6.2635305e-09
3.553735e-07
6.3145197e-09
3.5355334e-07
6.3709106e-09
3.5171537e-07
6.4330451e-09