/*--------------------------------*- C++ -*----------------------------------*\
  =========                 |
  \\      /  F ield         | OpenFOAM: The Open Source CFD Toolbox
   \\    /   O peration     | Website:  https://openfoam.org
    \\  /    A nd           | Version:  12
     \\/     M anipulation  |
\*---------------------------------------------------------------------------*/
FoamFile
{
    format      ascii;
    class       volVectorField;
    location    "1900";
    object      U;
}
// * * * * * * * * * * * * * * * * * * * * * * * * * * * * * * * * * * * * * //

dimensions      [0 1 -1 0 0 0 0];

internalField   nonuniform List<vector> 
13056
(
(1 2.3261495e-10 8.7691728e-25)
(0.99998251 8.3016769e-10 0)
(0.99994292 1.4773954e-09 0)
(0.99989154 2.0436347e-09 0)
(0.99983163 2.6536881e-09 0)
(0.99976399 3.359757e-09 0)
(0.99968909 4.1847863e-09 0)
(0.99960721 5.1583274e-09 0)
(0.99951834 6.3225559e-09 0)
(0.99942214 7.7299186e-09 0)
(0.99931803 9.4451822e-09 0)
(0.99920514 1.155342e-08 0)
(0.99908223 1.4169433e-08 0)
(0.9989476 1.7462176e-08 0)
(0.9987987 2.1657694e-08 0)
(0.99863221 2.7189575e-08 0)
(0.99844192 3.4452275e-08 0)
(0.99822222 4.5294641e-08 0)
(0.99795007 5.9000489e-08 0)
(0.99763082 8.9170503e-08 0)
(0.99712146 1.1648997e-07 0)
(0.99660334 3.2866688e-07 0)
(0.99438573 2.7288839e-07 -2.5917564e-21)
(0.99435021 0.00011935123 2.7944888e-16)
(0.028566669 0.00012493354 0)
(0.014418363 4.682823e-07 -9.8642427e-20)
(0.012902297 1.8942051e-07 1.6207653e-17)
(0.012406206 1.9900794e-08 1.6185436e-21)
(0.012091309 1.4127039e-08 0)
(0.011827458 1.2014367e-08 0)
(0.011595447 1.0536209e-08 0)
(0.011388837 9.3356195e-09 0)
(0.011203003 8.358215e-09 0)
(0.011034007 7.5568086e-09 0)
(0.010878965 6.8833851e-09 0)
(0.01073579 6.3054514e-09 0)
(0.010602875 5.802843e-09 0)
(0.010478917 5.3622635e-09 0)
(0.010362833 4.9731903e-09 0)
(0.010253724 4.6270852e-09 0)
(0.010150837 4.3172564e-09 0)
(0.010053529 4.0385901e-09 0)
(0.0099612392 3.787101e-09 0)
(0.0098734824 3.5589772e-09 0)
(0.0097898362 3.3515552e-09 0)
(0.0097099237 3.1619948e-09 0)
(0.0096334281 2.9880418e-09 0)
(0.0095600589 2.8284487e-09 0)
(0.0094895508 2.6812044e-09 0)
(0.009421685 2.5448658e-09 0)
(0.0093562547 2.4188052e-09 0)
(0.0092930656 2.301775e-09 0)
(0.0092319547 2.1926139e-09 0)
(0.0091727761 2.0908279e-09 0)
(0.009115385 1.9959495e-09 0)
(0.0090596512 1.9069838e-09 0)
(0.0090054687 1.823319e-09 0)
(0.0089527344 1.7448587e-09 0)
(0.0089013429 1.6711882e-09 0)
(0.0088512038 1.6015991e-09 0)
(0.0088022428 1.5357308e-09 0)
(0.0087543861 1.4735797e-09 0)
(0.0087075551 1.4149167e-09 0)
(0.0086616817 1.359193e-09 0)
(0.008616713 1.3061316e-09 0)
(0.0085725942 1.2557897e-09 0)
(0.0085292662 1.2080188e-09 0)
(0.008486676 1.1625064e-09 0)
(0.0084447799 1.1189826e-09 0)
(0.0084035382 1.0774044e-09 0)
(0.0083629082 1.0377546e-09 0)
(0.0083228456 9.9992551e-10 0)
(0.0082833112 9.6362899e-10 0)
(0.0082442764 9.2873829e-10 0)
(0.0082057089 8.9531706e-10 0)
(0.0081675732 8.6330819e-10 0)
(0.0081298353 8.3257802e-10 0)
(0.0080924671 8.0295367e-10 0)
(0.0080554448 7.743955e-10 0)
(0.0080187418 7.4693582e-10 0)
(0.0079823279 7.2054953e-10 0)
(0.0079461745 6.9509185e-10 0)
(0.0079102606 6.7045317e-10 0)
(0.007874565 6.4665645e-10 0)
(0.007839063 6.2370743e-10 0)
(0.0078037279 6.0158332e-10 0)
(0.0077685342 5.8015368e-10 0)
(0.0077334645 5.5935334e-10 0)
(0.0076984985 5.3923146e-10 0)
(0.0076636111 5.1978424e-10 0)
(0.007628777 5.0096342e-10 0)
(0.0075939737 4.8268189e-10 0)
(0.0075591829 4.6491286e-10 0)
(0.0075243835 4.4769317e-10 0)
(0.0074895483 4.3103174e-10 0)
(0.0074546501 4.1484172e-10 0)
(0.0074196698 3.9906832e-10 0)
(0.0073845857 3.8374986e-10 0)
(0.0073493692 3.6889896e-10 0)
(0.0073139904 3.5447502e-10 0)
(0.0072784229 3.404206e-10 0)
(0.0072426425 3.2673275e-10 0)
(0.0072066192 3.1343822e-10 0)
(0.0071703174 3.0051644e-10 0)
(0.0071337047 2.8791386e-10 0)
(0.0070967514 2.7562575e-10 0)
(0.0070594203 2.6368118e-10 0)
(0.0070216674 2.5205443e-10 0)
(0.0069834531 2.4070358e-10 0)
(0.0069447369 2.2963714e-10 0)
(0.0069054684 2.1887742e-10 0)
(0.0068655889 2.0836335e-10 0)
(0.0068250583 1.9815974e-10 0)
(0.006784703 1.8851897e-10 0)
(0.0067457989 1.7956407e-10 0)
(0.0067087164 1.7128318e-10 0)
(0.0066733164 1.6364658e-10 0)
(0.0066394656 1.5661073e-10 0)
(0.0066070434 1.5010173e-10 0)
(0.006575947 1.4405456e-10 0)
(0.0065460835 1.3844161e-10 0)
(0.0065173625 1.3323734e-10 0)
(0.0064897017 1.283878e-10 0)
(0.006463033 1.2384765e-10 0)
(0.0064372933 1.1960251e-10 0)
(0.0064124212 1.1564125e-10 0)
(0.0063883581 1.1195674e-10 0)
(0.0063650456 1.0851407e-10 0)
(0.0063424397 1.0534086e-10 0)
(0.0063204701 1.0235607e-10 0)
(0.0062991297 9.9969544e-11 0)
(0.006278168 9.7372505e-11 0)
(0.0062579423 9.7537026e-11 0)
(0.0062368706 3.5123006e-10 0)
(0.0062186045 1.1302805e-10 1.5772311e-22)
(0.0061881368 2.756338e-10 0)
(1 7.0131501e-10 0)
(0.99998251 2.5030085e-09 0)
(0.99994291 4.4546951e-09 0)
(0.99989153 6.162362e-09 0)
(0.9998316 8.002176e-09 0)
(0.99976393 1.0131479e-08 0)
(0.999689 1.2619447e-08 0)
(0.99960709 1.5555187e-08 0)
(0.99951819 1.9065862e-08 0)
(0.99942196 2.3309599e-08 0)
(0.99931781 2.8481669e-08 0)
(0.99920488 3.4838561e-08 0)
(0.99908194 4.2726391e-08 0)
(0.99894727 5.2654543e-08 0)
(0.99879834 6.5304518e-08 0)
(0.99863181 8.1983541e-08 0)
(0.99844148 1.0388084e-07 0)
(0.99822175 1.3657048e-07 0)
(0.99794956 1.778932e-07 0)
(0.99763027 2.6885311e-07 0)
(0.99712086 3.512162e-07 0)
(0.99660272 9.9087425e-07 0)
(0.99438519 8.2287012e-07 9.4957052e-21)
(0.99434958 0.00035971917 -2.8245273e-21)
(0.083673503 0.0003676799 0)
(0.043470395 8.1828868e-06 0)
(0.038899057 1.0670422e-06 2.1765432e-20)
(0.037404443 4.1919995e-07 0)
(0.036453867 2.967085e-07 -2.1733124e-21)
(0.035658096 2.5191512e-07 0)
(0.034958581 2.2075317e-07 0)
(0.0343357 1.9561707e-07 0)
(0.03377544 1.7513451e-07 0)
(0.033265948 1.5832717e-07 0)
(0.032798533 1.4420667e-07 0)
(0.032366896 1.3209315e-07 0)
(0.031966195 1.2156371e-07 0)
(0.031592497 1.1233408e-07 0)
(0.031242535 1.0418309e-07 0)
(0.030913602 9.6931979e-08 0)
(0.030603424 9.0440992e-08 0)
(0.030310066 8.4603712e-08 0)
(0.030031837 7.9334413e-08 0)
(0.029767272 7.4556427e-08 0)
(0.0295151 7.021039e-08 0)
(0.029274183 6.6239279e-08 0)
(0.029043567 6.2596352e-08 0)
(0.028822376 5.9251797e-08 0)
(0.02860981 5.6167431e-08 0)
(0.02840521 5.331237e-08 0)
(0.028207952 5.0670731e-08 0)
(0.028017451 4.8218937e-08 0)
(0.027833214 4.5932818e-08 0)
(0.027654803 4.3800713e-08 0)
(0.027481781 4.1812319e-08 0)
(0.027313755 3.9948861e-08 0)
(0.027150406 3.81969e-08 0)
(0.026991422 3.6552942e-08 0)
(0.026836487 3.5009107e-08 0)
(0.026685327 3.355159e-08 0)
(0.026537719 3.2172245e-08 0)
(0.02639344 3.0870048e-08 0)
(0.026252253 2.9640619e-08 0)
(0.026113954 2.8473463e-08 0)
(0.025978381 2.7362399e-08 0)
(0.02584537 2.6307583e-08 0)
(0.025714744 2.5306584e-08 0)
(0.025586342 2.4353075e-08 0)
(0.025460033 2.3441622e-08 0)
(0.025335696 2.2570651e-08 0)
(0.025213203 2.1739932e-08 0)
(0.025092422 2.0947169e-08 0)
(0.024973232 2.0186929e-08 0)
(0.024855549 1.9456284e-08 0)
(0.024739274 1.875601e-08 0)
(0.024624301 1.8085348e-08 0)
(0.024510527 1.744147e-08 0)
(0.024397868 1.6821034e-08 0)
(0.024286252 1.6222863e-08 0)
(0.024175598 1.5647553e-08 0)
(0.024065816 1.5094637e-08 0)
(0.023956819 1.4561323e-08 0)
(0.023848544 1.4045342e-08 0)
(0.023740927 1.3546804e-08 0)
(0.023633894 1.3066024e-08 0)
(0.023527364 1.2602416e-08 0)
(0.023421261 1.2153541e-08 0)
(0.023315531 1.1717929e-08 0)
(0.023210113 1.1296342e-08 0)
(0.023104933 1.0888905e-08 0)
(0.022999913 1.0494572e-08 0)
(0.022894987 1.011166e-08 0)
(0.022790097 9.7394673e-09 0)
(0.022685182 9.3787131e-09 0)
(0.022580159 9.0295903e-09 0)
(0.022474946 8.6904468e-09 0)
(0.022369485 8.3600915e-09 0)
(0.022263711 8.0391627e-09 0)
(0.022157538 7.728019e-09 0)
(0.022050877 7.4258365e-09 0)
(0.021943645 7.131453e-09 0)
(0.021835772 6.8447235e-09 0)
(0.021727167 6.5661863e-09 0)
(0.021617722 6.2954699e-09 0)
(0.021507339 6.0314839e-09 0)
(0.02139593 5.7740775e-09 0)
(0.021283382 5.5238194e-09 0)
(0.021169562 5.2802449e-09 0)
(0.021054351 5.0424786e-09 0)
(0.020937627 4.8106456e-09 0)
(0.020819237 4.5852175e-09 0)
(0.020699006 4.3649522e-09 0)
(0.020576811 4.1512431e-09 0)
(0.020455145 3.9492803e-09 0)
(0.020337854 3.7616578e-09 0)
(0.020226055 3.5881861e-09 0)
(0.020119329 3.4282049e-09 0)
(0.020017273 3.280799e-09 0)
(0.019919524 3.1444446e-09 0)
(0.019825772 3.0177715e-09 0)
(0.019735738 2.9001804e-09 0)
(0.019649148 2.7911401e-09 0)
(0.019565754 2.6895453e-09 0)
(0.019485351 2.5944414e-09 0)
(0.019407749 2.5054992e-09 0)
(0.019332763 2.422504e-09 0)
(0.019260216 2.3452956e-09 0)
(0.019189932 2.2731547e-09 0)
(0.019121779 2.2066738e-09 0)
(0.019055544 2.1440415e-09 0)
(0.018991206 2.0940896e-09 0)
(0.018928013 2.0390436e-09 0)
(0.018867036 2.0440765e-09 0)
(0.018803524 1.9774474e-09 0)
(0.018748454 2.4048362e-09 -2.4225412e-22)
(0.018656597 1.54223e-09 3.7105429e-23)
(1 1.1804714e-09 0)
(0.99998251 4.2133064e-09 0)
(0.99994291 7.498955e-09 0)
(0.99989151 1.0374098e-08 0)
(0.99983156 1.3471755e-08 0)
(0.99976387 1.7056704e-08 0)
(0.9996889 2.1245381e-08 0)
(0.99960696 2.6187788e-08 0)
(0.99951802 3.2097983e-08 0)
(0.99942175 3.9242138e-08 0)
(0.99931757 4.7948939e-08 0)
(0.9992046 5.8650118e-08 0)
(0.99908161 7.1928269e-08 0)
(0.99894691 8.8640796e-08 0)
(0.99879793 1.0993481e-07 0)
(0.99863137 1.3801067e-07 0)
(0.998441 1.7487007e-07 0)
(0.99822122 2.2989534e-07 0)
(0.99794899 2.9945198e-07 0)
(0.99762966 4.5255778e-07 0)
(0.9971202 5.9119742e-07 0)
(0.99660202 1.6677976e-06 0)
(0.99438464 1.3852602e-06 -4.9677236e-21)
(0.99434895 0.00058795363 9.8107527e-55)
(0.13758209 0.00060771801 -8.2294921e-54)
(0.073170685 2.2829327e-05 0)
(0.065474096 3.0486099e-06 -1.1503463e-20)
(0.062958825 1.2175697e-06 0)
(0.061357265 8.6202537e-07 0)
(0.060017549 7.3146906e-07 0)
(0.058840198 6.4088393e-07 0)
(0.057791891 5.6790547e-07 0)
(0.056848957 5.084444e-07 0)
(0.055991469 4.5964509e-07 0)
(0.055204806 4.1864657e-07 0)
(0.054478364 3.8347719e-07 0)
(0.053803986 3.5290911e-07 0)
(0.053175053 3.261151e-07 0)
(0.052586067 3.0245234e-07 0)
(0.05203247 2.8140194e-07 0)
(0.051510436 2.6255833e-07 0)
(0.051016711 2.4561266e-07 0)
(0.050548445 2.3031555e-07 0)
(0.050103176 2.1644513e-07 0)
(0.049678762 2.0382821e-07 0)
(0.049273291 1.9229994e-07 0)
(0.048885155 1.8172468e-07 0)
(0.048512881 1.7201489e-07 0)
(0.048155124 1.6306084e-07 0)
(0.047810771 1.5477276e-07 0)
(0.047478775 1.4710365e-07 0)
(0.047158151 1.3998582e-07 0)
(0.04684807 1.3334928e-07 0)
(0.046547792 1.2715965e-07 0)
(0.046256585 1.2138689e-07 0)
(0.045973787 1.1597719e-07 0)
(0.045698858 1.1089134e-07 0)
(0.045431276 1.0611866e-07 0)
(0.045170508 1.0163653e-07 0)
(0.044916095 9.7405313e-08 0)
(0.044667659 9.340113e-08 0)
(0.044424824 8.9620624e-08 0)
(0.044187195 8.6051249e-08 0)
(0.043954426 8.2662932e-08 0)
(0.043726245 7.9437572e-08 0)
(0.043502375 7.6375254e-08 0)
(0.04328252 7.3469104e-08 0)
(0.043066407 7.0700923e-08 0)
(0.042853817 6.8054976e-08 0)
(0.042644546 6.5526472e-08 0)
(0.042438378 6.3114725e-08 0)
(0.04223509 6.0813119e-08 0)
(0.042034483 5.8606092e-08 0)
(0.041836409 5.6485036e-08 0)
(0.041640706 5.4452004e-08 0)
(0.041447194 5.2504914e-08 0)
(0.041255701 5.0635606e-08 0)
(0.041066084 4.8834451e-08 0)
(0.040878221 4.7097918e-08 0)
(0.040691978 4.5427679e-08 0)
(0.040507202 4.3822415e-08 0)
(0.040323749 4.2274125e-08 0)
(0.04014151 4.0776215e-08 0)
(0.039960378 3.9328884e-08 0)
(0.039780228 3.7933079e-08 0)
(0.039600926 3.6587102e-08 0)
(0.039422341 3.5283966e-08 0)
(0.039244384 3.4019363e-08 0)
(0.039066954 3.2795414e-08 0)
(0.038889922 3.1612531e-08 0)
(0.038713161 3.0467696e-08 0)
(0.038536556 2.9356063e-08 0)
(0.038360014 2.8275547e-08 0)
(0.038183428 2.7228205e-08 0)
(0.038006661 2.6214609e-08 0)
(0.037829574 2.5230024e-08 0)
(0.03765207 2.4270975e-08 0)
(0.037474038 2.3339256e-08 0)
(0.037295335 2.2435934e-08 0)
(0.037115809 2.1558638e-08 0)
(0.036935325 2.0704006e-08 0)
(0.036753759 1.9871585e-08 0)
(0.036570961 1.9062929e-08 0)
(0.036386751 1.8276983e-08 0)
(0.036200962 1.7510593e-08 0)
(0.036013444 1.6763301e-08 0)
(0.03582401 1.6036745e-08 0)
(0.035632435 1.53296e-08 0)
(0.035438518 1.4639329e-08 0)
(0.035242054 1.3966273e-08 0)
(0.035042788 1.3311804e-08 0)
(0.034840421 1.2672333e-08 0)
(0.034634749 1.2051908e-08 0)
(0.034429967 1.1465569e-08 0)
(0.034232549 1.0920855e-08 0)
(0.034044375 1.0417234e-08 0)
(0.033864738 9.9527759e-09 0)
(0.033692963 9.5248243e-09 0)
(0.033528436 9.1289621e-09 0)
(0.033370638 8.761209e-09 0)
(0.033219096 8.4198163e-09 0)
(0.033073352 8.1032442e-09 0)
(0.032932988 7.8082932e-09 0)
(0.032797657 7.5321899e-09 0)
(0.032667042 7.2739688e-09 0)
(0.032540829 7.0330103e-09 0)
(0.032418721 6.808848e-09 0)
(0.032300423 6.5993991e-09 0)
(0.032185711 6.4063786e-09 0)
(0.032074229 6.2245141e-09 0)
(0.03196594 6.0794465e-09 0)
(0.03185958 5.9194991e-09 0)
(0.031756947 5.9339716e-09 0)
(0.031650068 5.6473973e-09 0)
(0.031557376 6.9891589e-09 0)
(0.031402766 4.3950939e-09 0)
(1 1.6772286e-09 1.8788082e-24)
(0.99998251 5.9865975e-09 0)
(0.9999429 1.0655706e-08 0)
(0.99989149 1.4741936e-08 0)
(0.99983152 1.9144448e-08 0)
(0.99976379 2.4239337e-08 0)
(0.9996888 3.0192032e-08 0)
(0.99960682 3.7215684e-08 0)
(0.99951784 4.5614448e-08 0)
(0.99942153 5.5766517e-08 0)
(0.9993173 6.8138896e-08 0)
(0.99920429 8.3345006e-08 0)
(0.99908125 1.022126e-07 0)
(0.9989465 1.259599e-07 0)
(0.99879748 1.5621672e-07 0)
(0.99863087 1.9610935e-07 0)
(0.99844046 2.4848181e-07 0)
(0.99822063 3.2666459e-07 0)
(0.99794836 4.2549361e-07 0)
(0.99762898 6.430297e-07 0)
(0.99711947 8.4001683e-07 0)
(0.99660125 2.3695347e-06 0)
(0.99438408 1.9683095e-06 0)
(0.99434831 0.00080928109 -5.1138562e-55)
(0.19097531 0.0008502522 4.2739411e-54)
(0.1039453 4.5543625e-05 0)
(0.093017182 6.2853342e-06 0)
(0.08944242 2.5089072e-06 0)
(0.087165199 1.776424e-06 0)
(0.085261835 1.5067259e-06 0)
(0.083589597 1.3199656e-06 0)
(0.082100723 1.1696499e-06 0)
(0.080761467 1.0471925e-06 0)
(0.079543564 9.4668034e-07 0)
(0.078426259 8.6223441e-07 0)
(0.077394488 7.8979801e-07 0)
(0.07643666 7.268419e-07 0)
(0.075543371 6.716595e-07 0)
(0.074706812 6.2292571e-07 0)
(0.073920514 5.7957185e-07 0)
(0.07317904 5.4076303e-07 0)
(0.072477769 5.058632e-07 0)
(0.071812656 4.7435826e-07 0)
(0.071180203 4.4579199e-07 0)
(0.070577369 4.1980676e-07 0)
(0.070001439 3.9606386e-07 0)
(0.069450127 3.7428406e-07 0)
(0.068921343 3.5428575e-07 0)
(0.068413179 3.3584446e-07 0)
(0.06792405 3.1877512e-07 0)
(0.067452471 3.0297973e-07 0)
(0.066997044 2.883199e-07 0)
(0.066556592 2.7465182e-07 0)
(0.066130061 2.6190383e-07 0)
(0.065716413 2.5001392e-07 0)
(0.06531471 2.3887228e-07 0)
(0.064924182 2.2839789e-07 0)
(0.064544089 2.1856792e-07 0)
(0.064173675 2.0933623e-07 0)
(0.063812287 2.0062174e-07 0)
(0.063459387 1.92375e-07 0)
(0.063114442 1.845885e-07 0)
(0.062776893 1.7723667e-07 0)
(0.062446245 1.7025814e-07 0)
(0.062122114 1.6361541e-07 0)
(0.061804106 1.5730811e-07 0)
(0.061491799 1.5132233e-07 0)
(0.06118481 1.4562087e-07 0)
(0.060882822 1.4017137e-07 0)
(0.060585548 1.3496365e-07 0)
(0.060292683 1.2999623e-07 0)
(0.060003908 1.252556e-07 0)
(0.05971894 1.2070999e-07 0)
(0.05943757 1.1634153e-07 0)
(0.059159568 1.1215416e-07 0)
(0.058884677 1.0814374e-07 0)
(0.058612655 1.0429357e-07 0)
(0.058343296 1.0058391e-07 0)
(0.058076428 9.7007325e-08 0)
(0.057811861 9.3567163e-08 0)
(0.057549378 9.0260773e-08 0)
(0.057288773 8.7071825e-08 0)
(0.057029893 8.3986731e-08 0)
(0.056772584 8.100573e-08 0)
(0.056516671 7.8130797e-08 0)
(0.056261961 7.5358462e-08 0)
(0.05600827 7.2674462e-08 0)
(0.055755471 7.0069872e-08 0)
(0.055503419 6.7548921e-08 0)
(0.055251933 6.5112526e-08 0)
(0.055000831 6.275451e-08 0)
(0.054749951 6.0464941e-08 0)
(0.054499159 5.823946e-08 0)
(0.054248304 5.6082253e-08 0)
(0.053997191 5.3994519e-08 0)
(0.053745625 5.1966597e-08 0)
(0.053493465 4.9991301e-08 0)
(0.053240555 4.8072246e-08 0)
(0.052986691 4.6211655e-08 0)
(0.052731658 4.4404689e-08 0)
(0.052475263 4.2644433e-08 0)
(0.052217332 4.0929914e-08 0)
(0.051957648 3.9264311e-08 0)
(0.051695959 3.7645489e-08 0)
(0.051432026 3.6066973e-08 0)
(0.051165638 3.4527786e-08 0)
(0.050896525 3.3031282e-08 0)
(0.050624372 3.1574771e-08 0)
(0.050348891 3.0153028e-08 0)
(0.050069791 2.8766731e-08 0)
(0.04978671 2.7418704e-08 0)
(0.049499224 2.610158e-08 0)
(0.049207043 2.4823706e-08 0)
(0.048916124 2.3616016e-08 0)
(0.048635666 2.2494047e-08 0)
(0.048368341 2.145673e-08 0)
(0.048113143 2.0500092e-08 0)
(0.047869114 1.9618614e-08 0)
(0.047635382 1.8803251e-08 0)
(0.047411209 1.8045788e-08 0)
(0.047195923 1.7342611e-08 0)
(0.046988873 1.6690551e-08 0)
(0.046789466 1.6083032e-08 0)
(0.04659721 1.5514338e-08 0)
(0.046411652 1.4982468e-08 0)
(0.046232349 1.4486148e-08 0)
(0.046058878 1.4024418e-08 0)
(0.04589082 1.3592996e-08 0)
(0.045727855 1.3195402e-08 0)
(0.04556948 1.2820769e-08 0)
(0.045415641 1.2521863e-08 0)
(0.045264548 1.2192273e-08 0)
(0.045118745 1.2221721e-08 0)
(0.044966937 1.1641325e-08 0)
(0.044835254 1.440355e-08 0)
(0.044615606 9.0501526e-09 0)
(1 2.1989897e-09 0)
(0.99998251 7.8493378e-09 0)
(0.9999429 1.3972107e-08 0)
(0.99989146 1.9331206e-08 0)
(0.99983147 2.5105171e-08 0)
(0.99976371 3.1786939e-08 0)
(0.99968868 3.9593397e-08 0)
(0.99960665 4.8804038e-08 0)
(0.99951763 5.9817664e-08 0)
(0.99942127 7.3130133e-08 0)
(0.999317 8.9353744e-08 0)
(0.99920393 1.0929274e-07 0)
(0.99908085 1.340324e-07 0)
(0.99894605 1.6516989e-07 0)
(0.99879698 2.0484207e-07 0)
(0.99863032 2.5714774e-07 0)
(0.99843986 3.2581563e-07 0)
(0.99821998 4.2832312e-07 0)
(0.99794765 5.5789942e-07 0)
(0.99762822 8.4311051e-07 0)
(0.99711866 1.1013811e-06 0)
(0.99660039 3.1065221e-06 0)
(0.9943835 2.5806891e-06 0)
(0.99434768 0.0010268241 0)
(0.24437309 0.0010949107 0)
(0.13622291 7.6321596e-05 0)
(0.12192035 1.0902853e-05 0)
(0.11722987 4.3531201e-06 3.1845606e-21)
(0.11424329 3.0817927e-06 0)
(0.11174931 2.6128089e-06 0)
(0.10955877 2.2886711e-06 0)
(0.10760851 2.0280305e-06 0)
(0.10585414 1.8157285e-06 0)
(0.10425871 1.6414509e-06 0)
(0.10279505 1.4950272e-06 0)
(0.10144342 1.3694315e-06 0)
(0.10018863 1.2602781e-06 0)
(0.099018375 1.1646039e-06 0)
(0.097922417 1.0801094e-06 0)
(0.096892287 1.0049419e-06 0)
(0.095920867 9.3765455e-07 0)
(0.095002104 8.771446e-07 0)
(0.094130701 8.2252012e-07 0)
(0.093302077 7.7299106e-07 0)
(0.092512248 7.2793618e-07 0)
(0.09175766 6.8676938e-07 0)
(0.091035318 6.4900661e-07 0)
(0.090342485 6.1433125e-07 0)
(0.089676663 5.8235619e-07 0)
(0.089035774 5.527604e-07 0)
(0.088417875 5.2537221e-07 0)
(0.087821135 4.9995309e-07 0)
(0.08724401 4.7625429e-07 0)
(0.086685121 4.5415027e-07 0)
(0.08614311 4.3353335e-07 0)
(0.085616746 4.1421456e-07 0)
(0.085105021 3.9605311e-07 0)
(0.084606964 3.7900817e-07 0)
(0.084121589 3.6300029e-07 0)
(0.083648039 3.4788991e-07 0)
(0.083185606 3.3359077e-07 0)
(0.082733594 3.2008898e-07 0)
(0.082291272 3.0734057e-07 0)
(0.081857991 2.9524007e-07 0)
(0.081433246 2.8372207e-07 0)
(0.081016523 2.7278513e-07 0)
(0.080607269 2.6240547e-07 0)
(0.080204981 2.5251907e-07 0)
(0.079809246 2.4306987e-07 0)
(0.079419684 2.3403972e-07 0)
(0.079035898 2.2542596e-07 0)
(0.078657471 2.1720537e-07 0)
(0.078284032 2.093233e-07 0)
(0.077915305 2.0174851e-07 0)
(0.077550989 1.9448742e-07 0)
(0.07719075 1.8753302e-07 0)
(0.076834268 1.808566e-07 0)
(0.076481275 1.7442402e-07 0)
(0.076131545 1.6822218e-07 0)
(0.075784828 1.6225669e-07 0)
(0.075440843 1.5652308e-07 0)
(0.075099316 1.5099327e-07 0)
(0.074760048 1.4564367e-07 0)
(0.074422838 1.4047445e-07 0)
(0.074087456 1.3548905e-07 0)
(0.07375365 1.3068152e-07 0)
(0.073421178 1.2602732e-07 0)
(0.073089873 1.2151088e-07 0)
(0.072759545 1.1713933e-07 0)
(0.072429958 1.1291435e-07 0)
(0.072100875 1.0882531e-07 0)
(0.07177208 1.0485505e-07 0)
(0.071443399 1.0099592e-07 0)
(0.071114635 9.7255089e-08 0)
(0.070785531 9.3634684e-08 0)
(0.070455832 9.0118081e-08 0)
(0.070125353 8.6692785e-08 0)
(0.069793891 8.3364933e-08 0)
(0.069461177 8.0138423e-08 0)
(0.069126929 7.7004932e-08 0)
(0.068790896 7.3952485e-08 0)
(0.068452847 7.0979326e-08 0)
(0.068112502 6.8090944e-08 0)
(0.067769525 6.5283692e-08 0)
(0.067423608 6.2546372e-08 0)
(0.06707447 5.987724e-08 0)
(0.066721761 5.7282084e-08 0)
(0.066365066 5.4756294e-08 0)
(0.066004008 5.2290818e-08 0)
(0.065638205 4.9886787e-08 0)
(0.065267183 4.7549096e-08 0)
(0.064890387 4.5265018e-08 0)
(0.064507434 4.3049028e-08 0)
(0.064126134 4.0954711e-08 0)
(0.063758545 3.9009024e-08 0)
(0.063408167 3.7210155e-08 0)
(0.063073684 3.5551189e-08 0)
(0.062753837 3.4022558e-08 0)
(0.062447487 3.2608589e-08 0)
(0.062153663 3.1295033e-08 0)
(0.061871488 3.0075601e-08 0)
(0.061600107 2.8944803e-08 0)
(0.061338744 2.7891259e-08 0)
(0.061086753 2.690505e-08 0)
(0.06084354 2.5982685e-08 0)
(0.060608525 2.5121962e-08 0)
(0.060381154 2.4321213e-08 0)
(0.060160878 2.3573025e-08 0)
(0.059947278 2.2883483e-08 0)
(0.059739694 2.2233742e-08 0)
(0.059538055 2.1715175e-08 0)
(0.059340021 2.1143463e-08 0)
(0.059148916 2.1193668e-08 0)
(0.058949978 2.0195714e-08 0)
(0.058777376 2.4986581e-08 -3.1185569e-22)
(0.058489473 1.5691301e-08 4.7767285e-23)
(1 2.7535315e-09 0)
(0.99998251 9.8293354e-09 0)
(0.99994289 1.7497762e-08 0)
(0.99989144 2.4210678e-08 0)
(0.99983141 3.1443351e-08 0)
(0.99976362 3.9812812e-08 0)
(0.99968854 4.9590634e-08 0)
(0.99960647 6.1126837e-08 0)
(0.9995174 7.4920836e-08 0)
(0.99942099 9.1593557e-08 0)
(0.99931666 1.1191172e-07 0)
(0.99920354 1.368824e-07 0)
(0.9990804 1.6786456e-07 0)
(0.99894554 2.0685814e-07 0)
(0.99879642 2.5653888e-07 0)
(0.9986297 3.220392e-07 0)
(0.99843918 4.0802811e-07 0)
(0.99821924 5.3639042e-07 0)
(0.99794686 6.9864751e-07 0)
(0.99762737 1.0557871e-06 0)
(0.99711774 1.3791851e-06 0)
(0.99659942 3.8897146e-06 0)
(0.99438291 3.2315235e-06 0)
(0.99434709 0.0012422159 0)
(0.29812294 0.0013452675 0)
(0.17041913 0.00011597191 0)
(0.15257081 1.7154715e-05 0)
(0.14669083 6.8572632e-06 0)
(0.14295318 4.8523777e-06 0)
(0.1398353 4.1120652e-06 0)
(0.13709755 3.601504e-06 0)
(0.13466012 3.1913642e-06 0)
(0.13246735 2.8573477e-06 0)
(0.13047313 2.5831179e-06 0)
(0.12864355 2.3527086e-06 0)
(0.12695396 2.1550785e-06 0)
(0.12538537 1.983327e-06 0)
(0.12392238 1.8327853e-06 0)
(0.12255223 1.6998323e-06 0)
(0.12126434 1.5815533e-06 0)
(0.12004981 1.4756732e-06 0)
(0.11890107 1.3804568e-06 0)
(0.11781152 1.2945002e-06 0)
(0.11677543 1.2165615e-06 -6.2123389e-33)
(0.11578783 1.1456615e-06 0)
(0.11484427 1.0808799e-06 0)
(0.113941 1.0214551e-06 0)
(0.11307462 9.6688638e-07 0)
(0.112242 9.165677e-07 0)
(0.11144054 8.6999372e-07 0)
(0.11066782 8.2689174e-07 0)
(0.10992154 7.868885e-07 0)
(0.10919978 7.4959352e-07 0)
(0.10850082 7.1480728e-07 0)
(0.10782295 6.8236011e-07 0)
(0.10716464 6.5195686e-07 0)
(0.10652463 6.2337544e-07 0)
(0.10590171 5.9654972e-07 0)
(0.10529463 5.7135557e-07 0)
(0.10470234 5.4757491e-07 0)
(0.10412395 5.2507121e-07 0)
(0.10355859 5.0382126e-07 0)
(0.10300533 4.8375646e-07 0)
(0.10246338 4.6471224e-07 0)
(0.1019321 4.4658513e-07 0)
(0.10141085 4.2937162e-07 0)
(0.10089893 4.1303473e-07 0)
(0.10039573 3.9747457e-07 0)
(0.099900711 3.8260291e-07 0)
(0.099413412 3.683905e-07 0)
(0.098933331 3.5483293e-07 0)
(0.098459952 3.4189402e-07 0)
(0.097992807 3.294884e-07 0)
(0.097531551 3.1756658e-07 0)
(0.097075809 3.0613796e-07 0)
(0.096625162 2.9519183e-07 0)
(0.096179214 2.8468334e-07 0)
(0.095737624 2.7455895e-07 0)
(0.095300113 2.6479765e-07 0)
(0.094866366 2.5540803e-07 0)
(0.094436033 2.4638322e-07 0)
(0.094008774 2.376794e-07 0)
(0.093584336 2.2925941e-07 0)
(0.093162469 2.2112313e-07 0)
(0.092742885 2.1327599e-07 0)
(0.092325269 2.0570874e-07 0)
(0.09190932 1.9838304e-07 0)
(0.091494827 1.9127425e-07 0)
(0.091081553 1.8439331e-07 0)
(0.090669203 1.7774294e-07 0)
(0.09025748 1.7130659e-07 0)
(0.089846115 1.6505734e-07 0)
(0.089434889 1.5898299e-07 0)
(0.089023554 1.5309469e-07 0)
(0.088611793 1.4739586e-07 0)
(0.088199285 1.4186054e-07 0)
(0.087785796 1.36469e-07 0)
(0.087371074 1.3123072e-07 0)
(0.086954783 1.2615187e-07 0)
(0.08653657 1.2121949e-07 0)
(0.086116119 1.1641473e-07 0)
(0.085693144 1.1173473e-07 0)
(0.085267291 1.071881e-07 0)
(0.084838143 1.0276917e-07 0)
(0.084405313 9.8460374e-08 0)
(0.083968449 9.4258884e-08 0)
(0.083527114 9.0173771e-08 0)
(0.083080787 8.6197859e-08 0)
(0.082628997 8.2316916e-08 0)
(0.082171267 7.8532653e-08 0)
(0.081707002 7.4852775e-08 0)
(0.081235508 7.1257316e-08 0)
(0.080756307 6.776907e-08 0)
(0.08027917 6.4472295e-08 0)
(0.079819186 6.1409443e-08 0)
(0.079380737 5.8577726e-08 0)
(0.078962174 5.596622e-08 0)
(0.078561926 5.3559892e-08 0)
(0.078178564 5.1334059e-08 0)
(0.077810874 4.9266298e-08 0)
(0.07745776 4.7346677e-08 0)
(0.077118152 4.5566565e-08 0)
(0.076791078 4.390808e-08 0)
(0.076475732 4.23556e-08 0)
(0.076171369 4.0903601e-08 0)
(0.075877265 3.9548619e-08 0)
(0.075592725 3.8288033e-08 0)
(0.075317063 3.7110194e-08 0)
(0.075049756 3.6024637e-08 0)
(0.074789977 3.5001722e-08 0)
(0.074537638 3.4185026e-08 0)
(0.074289819 3.3284882e-08 0)
(0.07405066 3.3362299e-08 0)
(0.07380175 3.1790988e-08 0)
(0.073585743 3.9343596e-08 0)
(0.073225434 2.4692264e-08 -2.7236128e-23)
(1 3.3491204e-09 0)
(0.99998251 1.1956164e-08 0)
(0.99994288 2.1285464e-08 0)
(0.99989141 2.9453587e-08 0)
(0.99983135 3.825426e-08 0)
(0.99976352 4.8437689e-08 0)
(0.99968839 6.0334167e-08 0)
(0.99960627 7.4369492e-08 0)
(0.99951714 9.1151151e-08 0)
(0.99942067 1.1143441e-07 0)
(0.99931628 1.3615185e-07 0)
(0.9992031 1.665284e-07 0)
(0.9990799 2.0421695e-07 0)
(0.99894497 2.5165006e-07 0)
(0.99879578 3.120822e-07 0)
(0.998629 3.9175596e-07 0)
(0.99843842 4.9635016e-07 0)
(0.99821842 6.5248328e-07 0)
(0.99794596 8.4984232e-07 0)
(0.99762641 1.2842363e-06 0)
(0.99711671 1.6775847e-06 0)
(0.99659834 4.7307319e-06 0)
(0.9943823 3.9304938e-06 0)
(0.99434655 0.0014563049 0)
(0.35237684 0.0016031913 0)
(0.20691606 0.00016587739 0)
(0.18533042 2.5399499e-05 0)
(0.17817362 1.0171148e-05 -8.3606977e-21)
(0.17363741 7.1910553e-06 7.3239839e-21)
(0.16985809 6.0908645e-06 0)
(0.16654048 5.3339978e-06 0)
(0.16358669 4.7266504e-06 0)
(0.16092905 4.2321217e-06 0)
(0.15851182 3.8260462e-06 0)
(0.15629397 3.4848397e-06 0)
(0.15424567 3.1921776e-06 0)
(0.15234392 2.9378428e-06 0)
(0.15057008 2.714914e-06 0)
(0.14890868 2.518025e-06 0)
(0.14734693 2.3428612e-06 0)
(0.14587404 2.186056e-06 0)
(0.14448088 2.0450405e-06 0)
(0.14315942 1.9177355e-06 0)
(0.14190274 1.8023034e-06 6.6689227e-33)
(0.1407048 1.6972926e-06 0)
(0.13956024 1.6013428e-06 0)
(0.13846451 1.5133262e-06 0)
(0.13741348 1.4324982e-06 0)
(0.13640336 1.3579656e-06 0)
(0.13543102 1.2889798e-06 0)
(0.1344935 1.2251333e-06 0)
(0.13358804 1.1658764e-06 0)
(0.1327123 1.1106323e-06 0)
(0.13186418 1.0591025e-06 0)
(0.13104164 1.0110354e-06 0)
(0.13024282 9.6599727e-07 0)
(0.12946617 9.2365838e-07 0)
(0.12871023 8.8391796e-07 0)
(0.12797352 8.465935e-07 0)
(0.12725472 8.1136433e-07 0)
(0.12655277 7.7802709e-07 0)
(0.12586662 7.4654532e-07 0)
(0.12519515 7.168184e-07 0)
(0.12453738 6.8860462e-07 0)
(0.12389255 6.6174991e-07 0)
(0.12325987 6.3624724e-07 0)
(0.12263851 6.1204252e-07 0)
(0.12202772 5.8898906e-07 0)
(0.12142685 5.6695617e-07 0)
(0.12083534 5.458995e-07 0)
(0.12025257 5.2581213e-07 0)
(0.11967794 5.066411e-07 0)
(0.11911086 4.8826088e-07 0)
(0.11855091 4.705976e-07 0)
(0.11799765 4.5366425e-07 0)
(0.11745057 4.3744533e-07 0)
(0.11690918 4.21875e-07 0)
(0.11637307 4.0687415e-07 0)
(0.11584191 3.9241115e-07 0)
(0.1153153 3.7849831e-07 0)
(0.11479284 3.6512571e-07 0)
(0.11427409 3.5222903e-07 0)
(0.11375877 3.3975312e-07 0)
(0.11324655 3.2769728e-07 0)
(0.1127371 3.160695e-07 0)
(0.11223003 3.0485633e-07 0)
(0.11172498 2.9400136e-07 0)
(0.11122169 2.834679e-07 0)
(0.11071987 2.7327168e-07 0)
(0.11021916 2.6341692e-07 0)
(0.10971921 2.5387932e-07 0)
(0.10921969 2.4461912e-07 0)
(0.10872032 2.3561807e-07 0)
(0.10822082 2.2689242e-07 0)
(0.10772079 2.1844739e-07 0)
(0.10721985 2.1024483e-07 0)
(0.10671771 2.022554e-07 0)
(0.10621407 1.9449285e-07 0)
(0.10570851 1.8696643e-07 0)
(0.10520061 1.7965708e-07 0)
(0.10468998 1.7253694e-07 0)
(0.10417628 1.6560159e-07 0)
(0.10365908 1.5886373e-07 0)
(0.10313787 1.523151e-07 0)
(0.10261218 1.4592974e-07 0)
(0.10208158 1.3970334e-07 0)
(0.10154555 1.3364928e-07 0)
(0.10100344 1.2775706e-07 0)
(0.10045469 1.220056e-07 0)
(0.099898717 1.1639733e-07 0)
(0.099334797 1.1094369e-07 0)
(0.098762088 1.0561518e-07 0)
(0.098180008 1.0044559e-07 0)
(0.097600425 9.555966e-08 0)
(0.097041671 9.1020336e-08 0)
(0.096509067 8.682358e-08 0)
(0.096000614 8.2953174e-08 0)
(0.095514402 7.9386804e-08 0)
(0.095048697 7.6087958e-08 0)
(0.094602027 7.3023383e-08 0)
(0.094173056 7.0178316e-08 0)
(0.09376049 6.7539981e-08 0)
(0.093363148 6.5081927e-08 0)
(0.092980048 6.278099e-08 0)
(0.092610288 6.0628939e-08 0)
(0.092252987 5.8620646e-08 0)
(0.091907304 5.6752233e-08 0)
(0.091572405 5.5006465e-08 0)
(0.091247653 5.3397409e-08 0)
(0.090932047 5.1881183e-08 0)
(0.090625478 5.0670144e-08 0)
(0.090324408 4.9335853e-08 0)
(0.090033848 4.9447911e-08 0)
(0.089731504 4.7116698e-08 -4.205135e-23)
(0.089469065 5.8325568e-08 0)
(0.089031296 3.6589375e-08 0)
(1 3.994635e-09 0)
(0.99998251 1.4261608e-08 0)
(0.99994287 2.5391985e-08 0)
(0.99989138 3.5138743e-08 0)
(0.99983128 4.5640473e-08 0)
(0.9997634 5.7791582e-08 0)
(0.99968822 7.1986e-08 0)
(0.99960604 8.8731676e-08 0)
(0.99951684 1.0875326e-07 0)
(0.99942031 1.3295163e-07 0)
(0.99931585 1.6243914e-07 0)
(0.99920259 1.9867683e-07 0)
(0.99907932 2.4363618e-07 0)
(0.99894433 3.0021862e-07 0)
(0.99879507 3.7230588e-07 0)
(0.99862822 4.6734375e-07 0)
(0.99843756 5.9210551e-07 0)
(0.99821749 7.7834007e-07 0)
(0.99794496 1.0137462e-06 0)
(0.99762533 1.5318724e-06 0)
(0.99711554 2.0010372e-06 0)
(0.99659711 5.6420478e-06 0)
(0.99438167 4.6879853e-06 0)
(0.99434609 0.0016694306 -1.3493128e-54)
(0.40706529 0.0018701542 1.0637906e-53)
(0.24602185 0.00022711545 -5.9498156e-19)
(0.22049966 3.6094579e-05 0)
(0.21197258 1.4487798e-05 -9.7611996e-21)
(0.20658879 1.022944e-05 0)