/*--------------------------------*- C++ -*----------------------------------*\
  =========                 |
  \\      /  F ield         | OpenFOAM: The Open Source CFD Toolbox
   \\    /   O peration     | Website:  https://openfoam.org
    \\  /    A nd           | Version:  12
     \\/     M anipulation  |
\*---------------------------------------------------------------------------*/
FoamFile
{
    format      ascii;
    class       volVectorField;
    location    "1900";
    object      U;
}
// * * * * * * * * * * * * * * * * * * * * * * * * * * * * * * * * * * * * * //

dimensions      [0 1 -1 0 0 0 0];

internalField   nonuniform List<vector> 
7480
(
(0.98683278 0.00053284915 1.0345298e-16)
(0.97532569 0.0012561229 0)
(0.9625662 0.0017335272 0)
(0.94882841 0.0020075791 0)
(0.93434479 0.0021845084 0)
(0.91931893 0.002313509 0)
(0.90382816 0.00241603 0)
(0.88789765 0.0025126225 0)
(0.87157056 0.002618041 0)
(0.85497314 0.0027398162 0)
(0.83829898 0.0028783672 0)
(0.82182865 0.0030273674 0)
(0.80594369 0.0031622954 0)
(0.79110364 0.0032337704 0)
(0.77774405 0.0031618053 0)
(0.76609502 0.0029441532 0)
(0.7561784 0.003019195 0)
(0.74784677 0.0021394439 0)
(0.74082642 0.0013547842 1.8510823e-17)
(0.73477394 0.001942423 -7.5334108e-17)
(0.72953642 0.0011789335 -9.2247126e-17)
(0.72490677 0.00048965381 0)
(0.72064519 0.00034244609 0)
(0.716612 9.3047641e-05 0)
(0.712738 -2.100721e-05 0)
(0.70897858 -6.1077949e-05 0)
(0.70531852 -4.5181333e-05 0)
(0.70175601 -1.2263017e-05 0)
(0.69829573 2.4610356e-05 0)
(0.69494704 5.7443484e-05 0)
(0.69171386 8.2660868e-05 0)
(0.68858738 0.00010061149 0)
(0.68555007 0.00010985128 0)
(0.68253884 0.00011200396 0)
(0.67951148 0.00011425463 0)
(0.6764629 0.00011885518 0)
(0.67341123 0.00012386351 0)
(0.67039216 0.00012654996 0)
(0.66744225 0.00012540128 0)
(0.66458715 0.00012067565 0)
(0.66183792 0.00011369218 0)
(0.659195 0.00010576802 0)
(0.65665288 9.78455e-05 0)
(0.65420022 8.9945517e-05 0)
(0.65182575 8.154685e-05 0)
(0.64948045 6.9895612e-05 0)
(0.64708589 4.6654723e-05 0)
(0.64450977 -4.0644532e-06 0)
(0.64153909 -7.9921415e-05 0)
(0.63797609 -0.00014996819 0)
(0.63402873 -0.00016847826 0)
(0.63017734 -0.00015181534 0)
(0.62669579 -0.0001181109 0)
(0.62363979 -9.2064098e-05 0)
(0.62091413 -7.3400696e-05 0)
(0.61841027 -5.8149603e-05 0)
(0.61604245 -4.3688453e-05 0)
(0.61373778 -3.037023e-05 0)
(0.61150803 -1.9159098e-05 0)
(0.60933912 -1.0098021e-05 0)
(0.6072221 -2.6401063e-06 0)
(0.60514566 3.7261516e-06 0)
(0.60309946 9.0004152e-06 0)
(0.60107647 1.3194051e-05 0)
(0.59907104 1.6404166e-05 0)
(0.59707871 1.8730557e-05 0)
(0.59509762 2.0277736e-05 0)
(0.5931268 2.118019e-05 0)
(0.59116462 2.1575252e-05 0)
(0.58920905 2.1567213e-05 0)
(0.58725824 2.1237169e-05 0)
(0.58531045 2.0642798e-05 0)
(0.58336416 1.9823809e-05 0)
(0.58141802 1.882295e-05 0)
(0.57947058 1.7673181e-05 0)
(0.57752051 1.6400871e-05 0)
(0.57556645 1.5127117e-05 0)
(0.573607 1.3956661e-05 0)
(0.571641 1.2831777e-05 0)
(0.56966719 1.1711405e-05 0)
(0.56768455 1.0566375e-05 0)
(0.5656928 9.3905195e-06 0)
(0.56369295 8.1736595e-06 0)
(0.56170031 7.2564036e-06 0)
(0.55986705 1.7926314e-05 0)
(0.55934249 0.00027241537 0)
(0.57008874 0.00038258711 0)
(0.5755638 0.00035067495 0)
(0.57885807 0.0002953387 0)
(0.58009774 0.00023251782 0)
(0.58027313 0.00018250158 0)
(0.57985556 0.00014385308 0)
(0.57910504 0.0001136083 0)
(0.57815083 9.0208705e-05 0)
(0.57707197 7.2859917e-05 0)
(0.57589821 6.0354056e-05 0)
(0.57469748 5.1775374e-05 0)
(0.57335776 8.2353245e-05 6.8630007e-20)
(0.57221019 3.7947001e-05 -1.4905981e-19)
(0.56992399 5.98475e-05 -1.053786e-17)
(0.99589769 0.0022871285 0)
(0.99632292 0.0034465272 0)
(0.99687002 0.004022569 0)
(0.99714312 0.0040897258 0)
(0.99714918 0.0041219277 0)
(0.99700404 0.0041181264 0)
(0.99674071 0.0040967627 0)
(0.9963191 0.0040508899 0)
(0.9956862 0.0039755117 0)
(0.99474786 0.0038572533 0)
(0.99337711 0.0036791134 0)
(0.99139844 0.0034267817 0)
(0.98858301 0.0030927833 0)
(0.98467229 0.0026900916 0)
(0.97944885 0.0022660227 0)
(0.97283798 0.001863148 0)
(0.9649174 0.0015676654 0)
(0.95587988 0.0014645561 0)
(0.94596305 0.0013113045 0)
(0.93545631 0.0011778264 0)
(0.92459519 0.0011984496 0)
(0.91372058 0.0011417738 0)
(0.9031051 0.0010613592 0)
(0.89293827 0.0010488336 0)
(0.88333227 0.001006483 0)
(0.87434391 0.00093613088 0)
(0.86599378 0.00084992616 0)
(0.85826319 0.00076693622 0)
(0.8510969 0.00069260547 0)
(0.84441509 0.00062840707 0)
(0.83813236 0.00057610464 0)
(0.83217284 0.00053633237 0)
(0.82646382 0.00050958618 0)
(0.82098494 0.00049330711 0)
(0.81572842 0.00048041251 0)
(0.81068203 0.00046557197 0)
(0.8058277 0.00044720765 0)
(0.8011426 0.00042582308 0)
(0.79660288 0.00040244175 0)
(0.79219241 0.00037845335 0)
(0.78790303 0.00035521238 0)
(0.7837321 0.00033345184 0)
(0.77967806 0.00031353436 0)
(0.77573822 0.00029556848 0)
(0.77191006 0.00028042861 0)
(0.7682024 0.00027061939 0)
(0.76463628 0.00027017737 0)
(0.7612584 0.00028399275 0)
(0.75815873 0.00031079046 0)
(0.75540608 0.00033358816 0)
(0.75283562 0.00033138413 0)
(0.75017833 0.00030550848 0)
(0.74733154 0.00026867898 0)
(0.74432472 0.00023575713 0)
(0.74125023 0.00021151323 0)
(0.73817951 0.00019507624 0)
(0.73514533 0.00018393196 0)
(0.73215428 0.00017478378 0)
(0.72921352 0.0001657578 0)
(0.7263271 0.00015736576 0)
(0.72349617 0.00014966787 0)
(0.72071899 0.00014269908 0)
(0.71799266 0.00013635436 0)
(0.71531473 0.00013055419 0)
(0.71268213 0.00012526789 0)
(0.71009191 0.00012038771 0)
(0.70754285 0.00011579537 0)
(0.70503389 0.00011147067 0)
(0.70256356 0.00010742006 0)
(0.70013027 0.00010362506 0)
(0.69773256 0.00010007204 0)
(0.69536899 9.673989e-05 0)
(0.69303828 9.3600368e-05 0)
(0.69073928 9.0648568e-05 0)
(0.68847083 8.7870101e-05 0)
(0.68623189 8.5249059e-05 0)
(0.68402147 8.2775628e-05 0)
(0.6818385 8.0411158e-05 0)
(0.67968211 7.8143839e-05 0)
(0.67755129 7.5999736e-05 0)
(0.67544505 7.3946332e-05 0)
(0.67336283 7.1963033e-05 0)
(0.67130373 6.9922163e-05 0)
(0.66926831 6.6449716e-05 0)
(0.66725498 4.3743085e-05 0)
(0.6649997 -0.00013181841 0)
(0.66050479 -0.00016574153 0)
(0.65866653 -8.6235943e-05 0)
(0.6572543 -4.4112504e-05 0)
(0.65594661 -9.8358997e-06 0)
(0.65452016 8.7709345e-06 0)
(0.65297367 1.8642097e-05 0)
(0.65135121 2.3676319e-05 0)
(0.64968639 2.648826e-05 0)
(0.64800453 2.8149896e-05 0)
(0.64630134 2.8706087e-05 0)
(0.64462636 2.9137458e-05 0)
(0.64283843 3.1353386e-05 0)
(0.64130833 3.1353303e-05 0)
(0.63850192 3.3653301e-05 0)
(0.99617321 0.0021847808 0)
(0.99654089 0.0028425127 0)
(0.99711238 0.0030009615 0)
(0.99757807 0.0029793681 0)
(0.99788967 0.0029838446 0)
(0.99814093 0.003007862 0)
(0.99837992 0.0030359771 0)
(0.99860553 0.0030648774 0)
(0.99881378 0.0030960779 0)
(0.99900752 0.003127991 0)
(0.99918945 0.0031567042 0)
(0.99935445 0.0031794659 0)
(0.99948674 0.0031938031 0)
(0.99956173 0.00320018 0)
(0.99954494 0.0032053845 0)
(0.99939215 0.0032106786 0)
(0.99905308 0.0032000772 0)
(0.99845991 0.0031572588 0)
(0.99753051 0.0031147891 0)
(0.99619101 0.0030205229 0)
(0.99428848 0.0029042922 0)
(0.99162881 0.0028028611 0)
(0.98812817 0.0026911219 0)
(0.9837277 0.0025561119 0)
(0.97841561 0.0024135784 0)
(0.97223488 0.0022744191 0)
(0.96525152 0.0021276674 0)
(0.95767232 0.0019664531 0)
(0.94970117 0.0018064748 0)
(0.94153901 0.0016522698 0)
(0.93337576 0.0015056736 0)
(0.92536806 0.0013681222 0)
(0.91763392 0.0012459536 0)
(0.91024175 0.001144516 0)
(0.90320916 0.0010605515 0)
(0.89651472 0.00098964716 0)
(0.89011742 0.00092865637 0)
(0.88396918 0.00087504035 0)
(0.87802979 0.00082637486 0)
(0.8722727 0.00078062518 0)
(0.8666825 0.000736644 0)
(0.86125081 0.00069434013 0)
(0.85596831 0.00065420811 0)
(0.85082623 0.00061631973 0)
(0.84582095 0.00058144257 0)
(0.84096449 0.00055119651 0)
(0.83627219 0.00052719378 0)
(0.83176734 0.00051251329 0)
(0.82748518 0.00050543526 0)
(0.82345061 0.00049974826 0)
(0.81961842 0.00048429845 0)
(0.81589269 0.00045902898 0)
(0.81220031 0.00042978879 0)
(0.80850547 0.00040161171 0)
(0.80481173 0.00037633098 0)
(0.80113945 0.00035418778 0)
(0.79750765 0.00033560587 0)
(0.79392911 0.00031892028 0)
(0.79041246 0.00030282176 0)
(0.78696097 0.00028782301 0)
(0.78357465 0.00027386783 0)
(0.78025326 0.00026099391 0)
(0.7769962 0.00024911884 0)
(0.77380268 0.00023811321 0)
(0.77067034 0.00022790487 0)
(0.76759697 0.00021830826 0)
(0.76458175 0.00020917431 0)
(0.76162295 0.00020049709 0)
(0.75871861 0.00019228024 0)
(0.75586702 0.00018449044 0)
(0.75306667 0.00017710835 0)
(0.75031605 0.00017010577 0)
(0.74761374 0.00016344273 0)
(0.7449584 0.00015711065 0)
(0.74234873 0.00015108658 0)
(0.73978351 0.00014534599 0)
(0.73726162 0.00013986028 0)
(0.73478185 0.00013459469 0)
(0.7323432 0.00012956201 0)
(0.7299445 0.00012477251 0)
(0.7275846 0.00012017348 0)
(0.72526268 0.00011575169 0)
(0.72297726 0.00011150451 0)
(0.72072466 0.00010623649 0)
(0.71847365 9.0607048e-05 0)
(0.71585881 7.6270868e-06 0)
(0.7111542 -5.1216074e-05 0)
(0.70800877 -2.1943692e-05 0)
(0.70546221 1.036047e-05 0)
(0.7032991 3.5976935e-05 0)
(0.70124398 5.0141231e-05 0)
(0.69921089 5.7000562e-05 0)
(0.69718098 5.9750325e-05 0)
(0.69515654 6.0268688e-05 0)
(0.69314698 5.9578331e-05 0)
(0.69113884 5.8011285e-05 0)
(0.68917666 5.7281755e-05 0)
(0.68710876 5.5368793e-05 0)
(0.68533681 6.0300713e-05 0)
(0.68216218 5.4885347e-05 4.0184567e-20)
(0.99636937 0.0020428714 0)
(0.99666468 0.002645048 0)
(0.99717664 0.0029790328 0)
(0.99763001 0.0031498675 0)
(0.99794939 0.0032870849 0)
(0.99820795 0.0034023328 0)
(0.99845404 0.0034848422 0)
(0.99869048 0.0035401206 0)
(0.99891398 0.0035748668 0)
(0.99912852 0.0035934688 0)
(0.99933896 0.0035834703 0)
(0.99954579 0.003548027 0)
(0.9997426 0.0034787565 0)
(0.9999195 0.0033749258 0)
(1.0000658 0.0032373172 0)
(1.0001753 0.0030775926 0)
(1.0002493 0.0029121453 0)
(1.0002896 0.0027525489 0)
(1.0003017 0.0026229396 0)
(1.0002992 0.0025385343 0)
(1.0002751 0.0024728394 0)
(1.0002115 0.0024349361 0)
(1.000091 0.0024158136 0)
(0.99987589 0.0024018412 0)
(0.999514 0.002392265 0)
(0.99893319 0.0023810286 0)
(0.99805252 0.0023655825 0)
(0.996697 0.0023438877 0)
(0.99472781 0.0023118806 0)
(0.99203412 0.0022675635 0)
(0.98853819 0.002211844 0)
(0.98421376 0.0021498107 0)
(0.97908414 0.0020734929 0)
(0.97329745 0.0019767643 0)
(0.96701997 0.0018689443 0)
(0.96042919 0.00175483 0)
(0.95369263 0.0016380992 0)
(0.94695009 0.0015232388 0)
(0.9403035 0.0014167642 0)
(0.93380764 0.0013217557 0)
(0.92747764 0.0012371033 0)
(0.92130432 0.0011617155 0)
(0.91527178 0.0010945767 0)
(0.90936975 0.0010339678 0)
(0.90359459 0.00097812562 0)
(0.89795165 0.00092617783 0)
(0.89245225 0.0008787977 0)
(0.88711105 0.00083712469 0)
(0.88194172 0.00080280723 0)
(0.87695175 0.00077322795 0)
(0.87213149 0.00074260779 0)
(0.86745275 0.00070806588 0)
(0.86288755 0.00067124101 0)
(0.85841147 0.00063467452 0)
(0.85400969 0.00059998465 0)
(0.84967783 0.00056788085 0)
(0.84541905 0.00053908347 0)
(0.84123752 0.00051239469 0)
(0.83713431 0.0004866533 0)
(0.83310897 0.00046233236 0)
(0.82916166 0.00043960265 0)
(0.82529242 0.00041853197 0)
(0.82150042 0.00039886667 0)
(0.81778468 0.00038044808 0)
(0.81414283 0.0003632214 0)
(0.81057299 0.00034695744 0)
(0.80707413 0.00033149403 0)
(0.80364366 0.00031683669 0)
(0.80027932 0.00030296626 0)
(0.79697924 0.00028981937 0)
(0.79374175 0.00027736072 0)
(0.79056509 0.00026554756 0)
(0.7874476 0.00025432137 0)
(0.78438768 0.00024366304 0)
(0.78138373 0.00023353511 0)
(0.77843429 0.00022389839 0)
(0.77553797 0.00021474921 0)
(0.77269331 0.00020605137 0)
(0.76989906 0.00019776892 0)
(0.76715384 0.00018990321 0)
(0.7644563 0.00018237889 0)
(0.76180542 0.00017517512 0)
(0.75919964 0.0001682969 0)
(0.75663559 0.00016097573 0)
(0.75409 0.00014634567 0)
(0.75134331 7.6634828e-05 0)
(0.74758611 1.8609452e-05 0)
(0.74440512 3.3622331e-05 0)
(0.74158751 5.5251883e-05 0)
(0.73907443 7.5179502e-05 0)
(0.73669858 8.7127678e-05 0)
(0.73438048 9.3080354e-05 0)
(0.73208934 9.511627e-05 0)
(0.72981783 9.4622324e-05 0)
(0.72757076 9.2929593e-05 0)
(0.72533264 9.0446604e-05 0)
(0.72314712 8.9441177e-05 0)
(0.72085858 8.6146549e-05 0)
(0.71889345 9.6074337e-05 0)
(0.71540586 8.1700015e-05 -3.3226509e-20)
(0.99655567 0.0019822287 0)
(0.99680337 0.0025641787 0)
(0.9972492 0.0029217979 0)
(0.99766147 0.0030775255 0)
(0.99796296 0.0031644809 0)
(0.99820926 0.0032260525 0)
(0.99844588 0.0032635393 0)
(0.99867663 0.0032824451 0)
(0.99889715 0.0032906989 0)
(0.99910997 0.0032877209 0)
(0.99931947 0.0032731525 0)
(0.9995258 0.0032396283 0)
(0.9997232 0.0031828761 0)
(0.9999033 0.0031031979 0)
(1.0000573 0.0030068093 0)
(1.0001782 0.0029049313 0)
(1.0002675 0.0028121226 0)
(1.0003284 0.0027343817 0)
(1.0003691 0.0026813137 0)
(1.0004055 0.0026507315 0)
(1.0004392 0.0026229353 0)
(1.0004688 0.0026013519 0)
(1.0005001 0.0025809638 0)
(1.0005315 0.0025592804 0)
(1.0005608 0.0025374833 0)
(1.0005856 0.0025149201 0)
(1.0006003 0.0024918838 0)
(1.0005947 0.0024679043 0)
(1.0005525 0.002443176 0)
(1.0004476 0.0024180244 0)
(1.0002396 0.0023923268 0)
(0.99986637 0.0023645588 0)
(0.99925441 0.002334641 0)
(0.99825177 0.0023026521 0)
(0.9967231 0.0022655023 0)
(0.99455093 0.0022205984 0)
(0.99165444 0.0021677725 0)
(0.98799852 0.0021053013 0)
(0.98362546 0.0020259881 0)
(0.97866018 0.0019315436 0)
(0.97325181 0.0018301669 0)
(0.96755373 0.0017255004 0)
(0.96170464 0.0016217615 0)
(0.95581215 0.0015243615 0)
(0.94993884 0.0014355763 0)
(0.94411213 0.0013551624 0)
(0.93834484 0.0012831306 0)
(0.93264975 0.0012195072 0)
(0.9270443 0.0011637938 0)
(0.92154592 0.0011133707 0)
(0.91616386 0.0010638976 0)
(0.91089679 0.0010127595 0)
(0.90573787 0.00096097246 0)
(0.90067909 0.00091071212 0)
(0.89571417 0.00086333431 0)
(0.89083905 0.0008192029 0)
(0.88605384 0.0007786698 0)
(0.88135831 0.00074050974 0)
(0.87674881 0.00070370118 0)
(0.8722231 0.00066877228 0)
(0.86778206 0.00063585732 0)
(0.86342625 0.00060502092 0)
(0.85915504 0.00057604514 0)
(0.85496736 0.00054878686 0)
(0.85086199 0.00052319646 0)
(0.84683726 0.00049901919 0)
(0.84289106 0.00047605916 0)
(0.83902145 0.00045430961 0)
(0.83522651 0.00043373209 0)
(0.8315044 0.00041423068 0)
(0.82785342 0.00039575066 0)
(0.82427179 0.00037823206 0)
(0.82075776 0.00036159561 0)
(0.81730969 0.000345809 0)
(0.81392587 0.00033081794 0)
(0.81060472 0.00031656628 0)
(0.80734472 0.00030303638 0)
(0.80414428 0.00029017536 0)
(0.80100201 0.00027793972 0)
(0.7979164 0.00026632632 0)
(0.79488597 0.00025523935 0)
(0.79190961 0.00024465364 0)
(0.78898573 0.00023461962 0)
(0.78611192 0.00022461654 0)
(0.78327396 0.00020882398 0)
(0.78035396 0.00014574726 0)
(0.77700229 9.1656287e-05 0)
(0.77385464 9.5519881e-05 0)
(0.7709124 0.00010934321 0)
(0.76817853 0.0001237718 0)
(0.7655671 0.00013265633 0)
(0.76302025 0.00013656527 0)
(0.76050909 0.0001368492 0)
(0.7580232 0.00013489574 0)
(0.75556553 0.00013200665 0)
(0.75312029 0.00012801483 0)
(0.75073117 0.00012624043 0)
(0.74824029 0.00012084332 4.9925679e-20)
(0.74609728 0.00013670668 0)
(0.74231369 0.00011087845 0)
(0.99672898 0.0019374371 0)
(0.99693659 0.0024695989 0)
(0.99732022 0.0028117659 0)
(0.99769426 0.0029725221 0)
(0.99798446 0.0030716239 0)
(0.99822682 0.0031569267 0)
(0.99845959 0.0032254352 0)
(0.99868705 0.0032756694 0)
(0.99890432 0.0033102995 0)
(0.99911343 0.0033371968 0)
(0.99931825 0.0033350637 0)
(0.99951854 0.0033179479 0)
(0.99970965 0.0032744149 0)
(0.99988406 0.0032058735 0)
(1.0000336 0.0031171693 0)
(1.0001528 0.0030173591 0)
(1.0002427 0.0029177312 0)
(1.0003059 0.0028231574 0)
(1.00035 0.0027434335 0)
(1.0003889 0.0026789161 0)
(1.0004254 0.0026180937 0)
(1.0004594 0.0025685577 0)
(1.000496 0.0025281583 0)
(1.0005346 0.0024934037 0)
(1.0005746 0.0024639904 0)
(1.0006157 0.0024378614 0)
(1.0006575 0.0024137879 0)
(1.0006985 0.0023904324 0)
(1.0007376 0.002368423 0)
(1.0007741 0.0023480639 0)
(1.000807 0.0023295024 0)
(1.0008344 0.0023136434 0)
(1.000853 0.0023010106 0)
(1.0008551 0.0022906632 0)
(1.0008258 0.002280867 0)
(1.0007378 0.0022695482 0)
(1.0005458 0.002254867 0)
(1.0001856 0.0022351799 0)
(0.99955063 0.0022106262 0)
(0.99849459 0.0021807946 0)
(0.99688673 0.0021438827 0)
(0.99462639 0.0021000763 0)
(0.99165537 0.0020476448 0)
(0.98799543 0.0019808469 0)
(0.98374806 0.0019013615 0)
(0.9790439 0.0018153379 0)
(0.97402174 0.0017259251 0)
(0.9688073 0.0016389077 0)
(0.96349655 0.0015596354 0)
(0.95815012 0.0014872028 0)
(0.95279879 0.00141833 0)
(0.9474591 0.0013505966 0)
(0.94214404 0.0012841703 0)
(0.93686781 0.0012202286 0)
(0.93164345 0.001159612 0)
(0.92647919 0.0011024851 0)
(0.92138127 0.0010490973 0)
(0.91635431 0.00099844179 0)
(0.91139996 0.00094967406 0)
(0.906519 0.00090322815 0)
(0.90171342 0.00085916934 0)
(0.89698542 0.00081760276 0)
(0.89233661 0.00077834698 0)
(0.88776774 0.00074126402 0)
(0.88327997 0.00070630783 0)
(0.87887295 0.0006732238 0)
(0.87454483 0.00064180839 0)
(0.8702951 0.00061203067 0)
(0.86612286 0.00058382187 0)
(0.86202699 0.00055706409 0)
(0.85800634 0.00053168947 0)
(0.85405958 0.000507622 0)
(0.85018536 0.00048476198 0)
(0.84638234 0.00046306417 0)
(0.84264905 0.00044245752 0)
(0.83898412 0.00042286866 0)
(0.83538615 0.00040426733 0)
(0.83185368 0.0003865839 0)
(0.82838537 0.00036976411 0)
(0.82497976 0.0003537987 0)
(0.82163542 0.00033857027 0)
(0.81835125 0.00032404737 0)
(0.81512575 0.00031031092 0)
(0.81195735 0.00029698304 0)
(0.80883773 0.00027880504 0)
(0.80570354 0.00021892661 0)
(0.80240519 0.00016525693 0)
(0.79919172 0.00016179264 0)
(0.79610294 0.00016937841 0)
(0.79315941 0.00017887247 0)
(0.7903216 0.00018437045 0)
(0.78755103 0.00018584352 0)
(0.7848235 0.000184185 0)
(0.78212724 0.00018042454 0)
(0.77946347 0.00017584784 0)
(0.77681584 0.00017005802 0)
(0.77422788 0.00016734116 0)
(0.77153941 0.00015927487 0)
(0.76922284 0.00018211708 3.5545648e-20)
(0.76514887 0.00014270776 0)
(0.9968891 0.0018995653 0)
(0.99706441 0.002381741 0)
(0.99739504 0.0027143162 0)
(0.99773443 0.0028930284 0)
(0.99801253 0.0030081499 0)
(0.99824896 0.0031033084 0)
(0.99847507 0.0031759927 0)
(0.99869652 0.0032239964 0)
(0.99890871 0.0032531059 0)
(0.99911335 0.003265606 0)
(0.99931373 0.0032614337 0)
(0.99950885 0.0032363194 0)
(0.99969499 0.0031880001 0)
(0.99986529 0.0031173318 0)
(1.0000123 0.0030285852 0)
(1.000131 0.0029303028 0)
(1.0002221 0.0028330372 0)
(1.000288 0.0027427415 0)
(1.0003356 0.0026692865 0)
(1.0003771 0.0026137448 0)
(1.0004156 0.0025668374 0)
(1.0004517 0.0025324573 0)
(1.0004894 0.002506715 0)
(1.0005289 0.0024849907 0)
(1.0005695 0.002466056 0)
(1.0006115 0.0024480269 0)
(1.0006543 0.0024298541 0)
(1.000697 0.0024107551 0)
(1.0007389 0.0023914296 0)
(1.0007796 0.0023721708 0)
(1.0008188 0.0023532752 0)
(1.0008568 0.0023356204 0)
(1.0008944 0.0023191928 0)
(1.000932 0.0023032839 0)
(1.0009694 0.0022875036 0)
(1.0010063 0.0022712532 0)
(1.0010408 0.0022544156 0)
(1.0010699 0.0022376438 0)
(1.001087 0.0022212869 0)
(1.0010799 0.0022050344 0)
(1.0010253 0.002188402 0)
(1.0008829 0.0021704159 0)
(1.0005921 0.0021500033 0)
(1.0000464 0.0021270089 0)
(0.99910202 0.0021005021 0)
(0.99762683 0.0020686041 0)
(0.99552129 0.0020318976 0)
(0.99273046 0.0019852442 0)
(0.98931189 0.0019259917 0)
(0.98536873 0.0018588402 0)
(0.98102814 0.0017834824 0)
(0.97641401 0.0017023801 0)
(0.97162451 0.0016213562 0)
(0.96672438 0.0015436349 0)
(0.96175179 0.0014705815 0)
(0.95673185 0.0014022129 0)
(0.95168809 0.0013380215 0)
(0.94664334 0.0012764697 0)
(0.94161508 0.0012167286 0)
(0.93661488 0.0011593094 0)
(0.93165159 0.0011043562 0)
(0.9267333 0.0010520797 0)
(0.92186728 0.0010023756 0)
(0.91705916 0.00095513132 0)
(0.9123139 0.00091034537 0)
(0.90763498 0.00086782703 0)
(0.90302398 0.0008273779 0)
(0.89848256 0.00078893966 0)
(0.89401193 0.00075243923 0)
(0.8896129 0.00071774964 0)
(0.88528591 0.00068479841 0)
(0.881031 0.00065350017 0)
(0.87684796 0.00062373984 0)
(0.87273639 0.00059546368 0)
(0.86869568 0.00056858721 0)
(0.86472512 0.00054302232 0)
(0.86082391 0.00051872985 0)
(0.85699107 0.00049562546 0)
(0.85322569 0.00047364288 0)
(0.84952665 0.00045276684 0)
(0.8458928 0.00043285813 0)
(0.84232331 0.00041387823 0)
(0.83881693 0.0003959261 0)
(0.8353728 0.00037870226 0)
(0.83198604 0.00035714976 0)
(0.82862017 0.00029704051 0)
(0.82521069 0.00024190037 0)
(0.82185615 0.0002333597 0)
(0.81858945 0.0002358336 0)
(0.81543137 0.00024074979 0)
(0.81236647 0.00024262216 0)
(0.80937091 0.00024124369 0)
(0.8064258 0.00023722422 0)
(0.80351903 0.00023130843 0)
(0.80065023 0.00022476634 0)
(0.79780211 0.00021692487 0)
(0.79501771 0.0002130778 0)
(0.79213419 0.00020189239 0)
(0.78964644 0.00023269212 3.4331772e-20)
(0.78528615 0.00017763911 0)
(0.99703742 0.0018684059 0)
(0.99718725 0.0023054963 0)
(0.9974728 0.0026268519 0)
(0.99777917 0.0028163263 0)
(0.99804292 0.002939199 0)
(0.99827193 0.0030371069 0)
(0.99849107 0.0031124959 0)
(0.99870657 0.0031642832 0)
(0.99891451 0.0031974074 0)
(0.99911538 0.003216494 0)
(0.99931154 0.0032179825 0)
(0.99950216 0.003200117 0)
(0.99968382 0.0031606966 0)
(0.99985036 0.0031000805 0)
(0.99999502 0.0030220791 0)
(1.0001134 0.0029344423 0)
(1.0002056 0.0028465176 0)
(1.0002739 0.0027641923 0)
(1.0003248 0.0026959604 0)
(1.0003686 0.0026423765 0)
(1.0004087 0.0025957231 0)
(1.0004461 0.0025584672 0)
(1.0004845 0.0025275805 0)
(1.0005242 0.0024997173 0)
(1.0005649 0.0024744235 0)
(1.0006068 0.0024504775 0)
(1.0006494 0.002427175 0)
(1.0006918 0.0024039711 0)
(1.0007335 0.0023813622 0)
(1.000774 0.0023596347 0)
(1.0008135 0.0023390692 0)
(1.0008522 0.0023203063 0)
(1.0008908 0.0023032869 0)
(1.00093 0.0022875182 0)
(1.0009703 0.0022726481 0)
(1.0010114 0.0022578385 0)
(1.0010525 0.0022425974 0)
(1.0010928 0.0022268601 0)
(1.0011321 0.0022103069 0)
(1.0011695 0.0021930689 0)
(1.0012044 0.0021758119 0)
(1.001236 0.002159175 0)
(1.0012622 0.0021438746 0)
(1.001277 0.0021300613 0)
(1.0012676 0.0021171872 0)
(1.0012081 0.0021044649 0)
(1.0010509 0.0020905818 0)
(1.000728 0.0020757721 0)
(1.0001005 0.0020600901 0)
(0.99902855 0.0020402172 0)
(0.99739208 0.0020128266 0)
(0.99510942 0.0019721466 0)
(0.99219814 0.001915638 0)
(0.98874305 0.0018485116 0)
(0.98486132 0.0017749703 0)
(0.9806719 0.0016995922 0)
(0.97627034 0.0016267378 0)
(0.97171988 0.0015564103 0)
(0.96705895 0.0014883404 0)
(0.96231621 0.0014229148 0)
(0.95751894 0.0013598075 0)
(0.95269203 0.0012989448 0)
(0.94785519 0.001240328 0)
(0.94302339 0.0011839791 0)
(0.93820938 0.0011300452 0)
(0.93342413 0.0010784773 0)
(0.9286761 0.0010291487 0)
(0.92397197 0.00098204364 0)
(0.91931718 0.00093711976 0)
(0.91471631 0.00089426531 0)
(0.91017306 0.0008534268 0)
(0.9056902 0.00081452865 0)
(0.90126989 0.00077745521 0)
(0.89691377 0.0007421565 0)
(0.89262294 0.00070854414 0)
(0.88839818 0.00067652317 0)
(0.88423997 0.00064605232 0)
(0.88014842 0.00061703762 0)
(0.87612355 0.0005894046 0)
(0.87216507 0.00056313541 0)
(0.8682725 0.0005380712 0)
(0.86444562 0.00051416811 0)
(0.86068373 0.00049153781 0)
(0.85698672 0.00046992426 0)
(0.85335182 0.00044427535 0)
(0.84975541 0.00038184434 0)
(0.8461696 0.00032421402 0)
(0.84263661 0.00031136621 0)
(0.83917641 0.00030929616 0)
(0.83580435 0.00030982299 0)
(0.83251625 0.00030787196 0)
(0.82929867 0.00030325273 0)
(0.82613793 0.00029644172 0)
(0.82302266 0.0002879909 0)
(0.81995132 0.00027916756 0)
(0.81690565 0.00026898009 0)
(0.81392804 0.00026378121 0)
(0.81085275 0.00024903989 -2.064974e-20)
(0.80819664 0.00028873158 0)
(0.80355497 0.00021596971 1.0818197e-20)
(0.99717524 0.0018416074 0)
(0.99730484 0.0022381549 0)
(0.99755199 0.0025452841 0)
(0.99782743 0.0027403852 0)
(0.99807591 0.0028700588 0)
(0.99829704 0.0029724038 0)
(0.99850929 0.0030529888 0)
(0.99871865 0.0031103241 0)
(0.99892184 0.0031479864 0)
(0.99911833 0.0031699158 0)
(0.99930978 0.003173563 0)
(0.99949559 0.0031578745 0)
(0.99967255 0.0031211527 0)
(0.99983512 0.0030639112 0)
(0.99997726 0.0029898777 0)
(1.0000949 0.002906208 0)
(1.0001881 0.0028213342 0)
(1.0002587 0.0027411748 0)
(1.0003125 0.0026733611 0)
(1.0003586 0.002618689 0)
(1.0004005 0.0025714529 0)
(1.0004396 0.0025335393 0)
(1.0004792 0.0025026049 0)
(1.0005197 0.0024757968 0)
(1.0005611 0.0024523845 0)
(1.0006034 0.0024309163 0)
(1.0006463 0.0024104182 0)
(1.0006889 0.0023901629 0)
(1.0007306 0.0023703445 0)
(1.0007713 0.0023511804 0)
(1.0008109 0.0023328821 0)
(1.0008497 0.002315952 0)
(1.0008884 0.0023003947 0)
(1.0009275 0.0022857842 0)
(1.0009673 0.002271691 0)
(1.0010079 0.0022573085 0)
(1.0010488 0.0022421619 0)
(1.0010895 0.0022262087 0)
(1.0011296 0.0022093646 0)
(1.0011688 0.0021920231 0)
(1.001207 0.0021748412 0)
(1.001244 0.0021581908 0)
(1.0012797 0.0021422841 0)
(1.0013143 0.0021269057 0)
(1.0013476 0.0021120912 0)
(1.0013788 0.0020982381 0)
(1.001407 0.0020860718 0)
(1.0014297 0.002076512 0)
(1.0014388 0.002069624 0)
(1.001416 0.0020634762 0)
(1.0013213 0.0020540593 0)
(1.0010894 0.0020389597 0)
(1.0005919 0.0020186446 0)
(0.99968205 0.0019932431 0)
(0.99823324 0.0019632227 0)
(0.99615994 0.0019240951 0)
(0.99348447 0.0018730368 0)
(0.9902874 0.0018128622 0)
(0.98667975 0.0017458069 0)
(0.98276941 0.0016766008 0)
(0.97863827 0.001608464 0)
(0.97433903 0.0015422631 0)
(0.9699078 0.0014782456 0)
(0.96537647 0.001416134 0)
(0.96077527 0.0013557927 0)
(0.95612964 0.0012972629 0)
(0.95145929 0.0012405934 0)
(0.94678029 0.0011859365 0)
(0.94210635 0.0011333747 0)
(0.93744899 0.001082881 0)
(0.93281766 0.0010344762 0)
(0.92822009 0.00098813657 0)
(0.92366278 0.00094377928 0)
(0.91915103 0.00090138592 0)
(0.91468909 0.00086088526 0)
(0.91028045 0.00082219269 0)
(0.90592792 0.00078527911 0)
(0.90163362 0.00075005201 0)
(0.89739932 0.00071643833 0)
(0.8932262 0.00068442578 0)
(0.88911511 0.00065384179 0)
(0.88506693 0.00062464253 0)
(0.88108195 0.00059695291 0)
(0.87716109 0.00057054266 0)
(0.87330319 0.00054028248 0)
(0.869491 0.00047441616 0)
(0.86571285 0.00041350738 0)
(0.86199135 0.00039636271 0)
(0.85833718 0.00038990743 0)
(0.85475954 0.0003861049 0)
(0.85125861 0.00038016627 0)
(0.84782777 0.00037198432 0)
(0.84445814 0.00036200528 0)
(0.84113994 0.00035065998 0)
(0.83787124 0.00033923605 0)
(0.83463305 0.00032640609 0)
(0.83146716 0.00031963497 0)
(0.82820481 0.00030089716 0)
(0.82538435 0.00035043792 3.4096145e-20)
(0.82046773 0.00025787392 0)
(0.99730381 0.0018182093 0)
(0.99741719 0.0021785471 0)
(0.99763179 0.0024698833 0)
(0.99787884 0.002667413 0)
(0.99811166 0.0028030898 0)
(0.9983243 0.0029095306 0)
(0.99852933 0.002994 0)
(0.99873208 0.0030552054 0)
(0.99892994 0.0030958575 0)
(0.99912172 0.0031197005 0)
(0.99930843 0.0031257904 0)
(0.99948952 0.0031131581 0)
(0.99966195 0.0030806106 0)
(0.99982073 0.0030288146 0)
(0.99996046 0.0029612455 0)
(1.0000775 0.002884343 0)
(1.0001714 0.0028056411 0)
(1.0002441 0.0027309092 0)
(1.0003007 0.0026669405 0)
(1.0003491 0.0026146843 0)
(1.0003928 0.0025698507 0)
(1.0004336 0.0025335869 0)
(1.0004743 0.002503768 0)
(1.0005156 0.0024777693 0)
(1.0005574 0.0024546801 0)
(1.0006 0.0024331192 0)
(1.0006429 0.0024122101 0)
(1.0006857 0.0023913774 0)
(1.0007275 0.0023708217 0)
(1.0007684 0.0023508499 0)
(1.0008082 0.0023317235 0)
(1.0008472 0.0023139138 0)
(1.0008861 0.0022974884 0)
(1.0009253 0.0022820687 0)
(1.0009652 0.002267227 0)
(1.0010057 0.0022522655 0)
(1.0010464 0.0022367525 0)
(1.001087 0.0022206545 0)
(1.0011269 0.002203937 0)
(1.0011659 0.0021869002 0)
(1.0012037 0.0021700327 0)
(1.0012405 0.0021536165 0)
(1.0012766 0.0021378242 0)
(1.0013122 0.002122574 0)
(1.0013472 0.0021080519 0)
(1.001382 0.0020946098 0)
(1.0014162 0.0020826294 0)
(1.0014501 0.0020723871 0)
(1.0014849 0.002063966 0)
(1.0015212 0.0020565151 0)
(1.001558 0.0020478883 0)
(1.0015911 0.0020369855 0)
(1.0016107 0.0020245686 0)
(1.0015976 0.0020114894 0)
(1.0015121 0.001997343 0)
(1.00129 0.0019817093 0)
(1.0007961 0.0019640751 0)
(0.99988433 0.0019419388 0)
(0.99842882 0.0019130248 0)
(0.99636608 0.0018734056 0)
(0.99373673 0.0018223075 0)
(0.99063015 0.0017632023 0)
(0.98715333 0.0016998613 0)
(0.98339827 0.0016360112 0)
(0.97942827 0.0015729209 0)
(0.97528602 0.0015111642 0)
(0.9710074 0.0014506952 0)
(0.96662617 0.0013914894 0)
(0.96217125 0.0013336642 0)
(0.95766567 0.0012773588 0)
(0.95312854 0.001222775 0)
(0.94857628 0.0011700286 0)
(0.94402273 0.0011191415 0)
(0.93947939 0.0010701849 0)
(0.93495582 0.0010231476 0)
(0.93046012 0.00097799079 0)
(0.92599903 0.00093472672 0)
(0.92157806 0.00089328583 0)
(0.91720191 0.00085361496 0)
(0.9128743 0.00081572313 0)
(0.90859825 0.00077943572 0)
(0.90437653 0.00074471965 0)
(0.9002111 0.00071171959 0)
(0.89610441 0.00068022454 0)
(0.89205698 0.00064500678 0)
(0.88805523 0.00057509012 0)
(0.88409517 0.0005103055 0)
(0.88019385 0.00048863187 0)
(0.87635729 0.00047774097 0)
(0.87258982 0.00046957352 0)
(0.86889254 0.0004594978 0)
(0.86526296 0.00044748756 0)
(0.8616963 0.00043401492 0)
(0.85818497 0.00041944384 0)
(0.8547274 0.00040511143 0)
(0.85130436 0.00038934942 0)
(0.84795732 0.00038079125 0)
(0.84451451 0.00035760916 0)
(0.84153528 0.00041781039 0)
(0.83635215 0.00030350207 0)
(0.99742419 0.0017973538 0)
(0.99752442 0.0021254743 0)
(0.99771151 0.0024003793 0)
(0.99793285 0.0025975779 0)
(0.99814992 0.002737691 0)
(0.99835346 0.0028473335 0)
(0.99855098 0.0029347389 0)
(0.99874686 0.0029993354 0)
(0.99893906 0.0030431717 0)
(0.99912596 0.0030696731 0)
(0.9993079 0.0030788095 0)
(0.99948425 0.0030696211 0)
(0.99965217 0.0030412898 0)
(0.99980718 0.0029945921 0)
(0.99994443 0.0029327416 0)
(1.0000606 0.0028615463 0)
(1.0001551 0.0027878035 0)
(1.0002296 0.002717107 0)
(1.0002888 0.0026555505 0)
(1.0003393 0.0026042696 0)
(1.0003847 0.0025601452 0)
(1.0004271 0.0025238594 0)
(1.0004689 0.0024936089 0)
(1.0005109 0.0024671591 0)
(1.0005532 0.002443629 0)
(1.0005961 0.0024217981 0)
(1.0006393 0.0024008669 0)
(1.0006822 0.0023803099 0)
(1.0007243 0.0023602273 0)
(1.0007653 0.0023408698 0)
(1.0008054 0.0023224434 0)
(1.0008447 0.0023053109 0)
(1.0008839 0.0022895173 0)
(1.0009233 0.0022746934 0)
(1.0009632 0.002260405 0)
(1.0010037 0.0022460145 0)
(1.0010445 0.0022310877 0)
(1.001085 0.0022155542 0)
(1.0011249 0.0021993763 0)