/*--------------------------------*- C++ -*----------------------------------*\
  =========                 |
  \\      /  F ield         | OpenFOAM: The Open Source CFD Toolbox
   \\    /   O peration     | Website:  https://openfoam.org
    \\  /    A nd           | Version:  12
     \\/     M anipulation  |
\*---------------------------------------------------------------------------*/
FoamFile
{
    format      ascii;
    class       volScalarField;
    location    "1900";
    object      yPlus;
}
// * * * * * * * * * * * * * * * * * * * * * * * * * * * * * * * * * * * * * //

dimensions      [];

internalField   uniform 0;

boundaryField
{
    inlet
    {
        type            calculated;
        value           uniform 0;
    }
    top
    {
        type            calculated;
        value           uniform 0;
    }
    outlet
    {
        type            calculated;
        value           uniform 0;
    }
    slipsurface
    {
        type            calculated;
        value           uniform 0;
    }
    bottom
    {
        type            calculated;
        value           nonuniform List<scalar> 
100
(
116.32487
115.15008
113.84569
112.43921
110.95398
109.41053
107.81648
106.17411
104.48757
102.76963
101.04012
99.328108
97.673427
96.124379
94.727111
93.506559
92.466042
91.59034
90.851707
90.214601
89.662526
89.174235
88.724529
88.298659
87.889358
87.49193
87.104786
86.727748
86.36133
86.00654
85.663811
85.332224
85.009938
84.690264
84.368722
84.044768
83.720325
83.399189
83.085256
82.781268
82.488418
82.206765
81.935738
81.674138
81.420777
81.170427
80.914718
80.639503
80.321988
79.94095
79.518533
79.106104
78.733037
78.405381
78.112993
77.844273
77.590077
77.34253
77.102932
76.869781
76.642118
76.418733
76.198521
75.980724
75.764739
75.550085
75.336563
75.12407
74.912431
74.701429
74.490863
74.280545
74.070313
73.860018
73.649506
73.43863
73.227244
73.015195
72.802357
72.588592
72.373788
72.157913
71.941075
71.724935
71.526008
71.469081
72.634267
73.226967
73.583286
73.717313
73.736271
73.691129
73.609984
73.5068
73.390116
73.263139
73.133215
72.988218
72.863986
72.616408
)
;
    }
    frontandback
    {
        type            empty;
    }
}


// ************************************************************************* //
