#      distance             U_x             U_y             U_z wallShearStr... wallShearStr... wallShearStr...               p             nut         nuTilda
              0      0.99945855               0               0               0               0               0    0.0046995422   1.4770089e-06   2.0031531e-06
   0.0021021021      0.99944291               0               0               0               0               0     0.004717575   1.4771514e-06   2.0032612e-06
   0.0042042042      0.99942727               0               0               0               0               0    0.0047356078   1.4772939e-06   2.0033692e-06
   0.0063063063      0.99941162               0               0               0               0               0    0.0047536407   1.4774364e-06   2.0034773e-06
   0.0084084084      0.99939598               0               0               0               0               0    0.0047716735   1.4775789e-06   2.0035854e-06
    0.010510511      0.99937818               0               0               0               0               0    0.0047921068    1.477736e-06   2.0037045e-06
    0.012612613      0.99935903               0               0               0               0               0     0.004814031   1.4779022e-06   2.0038306e-06
    0.014714715      0.99933988               0               0               0               0               0    0.0048359553   1.4780684e-06   2.0039567e-06
    0.016816817      0.99932073               0               0               0               0               0    0.0048578795   1.4782346e-06   2.0040827e-06
    0.018918919      0.99930158               0               0               0               0               0    0.0048798037   1.4784009e-06   2.0042088e-06
    0.021021021      0.99928188               0               0               0               0               0    0.0049023382   1.4785704e-06   2.0043374e-06
    0.023123123       0.9992584               0               0               0               0               0    0.0049289748   1.4787619e-06   2.0044827e-06
    0.025225225      0.99923493               0               0               0               0               0    0.0049556115   1.4789535e-06    2.004628e-06
    0.027327327      0.99921146               0               0               0               0               0    0.0049822482   1.4791451e-06   2.0047733e-06
    0.029429429      0.99918799               0               0               0               0               0    0.0050088849   1.4793366e-06   2.0049186e-06
    0.031531532      0.99916315               0               0               0               0               0    0.0050369932   1.4795351e-06   2.0050692e-06
    0.033633634       0.9991343               0               0               0               0               0    0.0050693995   1.4797538e-06   2.0052351e-06
    0.035735736      0.99910544               0               0               0               0               0    0.0051018058   1.4799725e-06    2.005401e-06
    0.037837838      0.99907659               0               0               0               0               0    0.0051342122   1.4801913e-06   2.0055669e-06
     0.03993994      0.99904774               0               0               0               0               0    0.0051666185     1.48041e-06   2.0057328e-06
    0.042042042      0.99901268               0               0               0               0               0    0.0052055706   1.4806553e-06   2.0059189e-06
    0.044144144      0.99897705               0               0               0               0               0    0.0052451361    1.480903e-06   2.0061068e-06
    0.046246246      0.99894141               0               0               0               0               0    0.0052847016   1.4811508e-06   2.0062948e-06
    0.048348348      0.99890545               0               0               0               0               0     0.005324599   1.4813997e-06   2.0064836e-06
     0.05045045      0.99886114               0               0               0               0               0    0.0053732063   1.4816788e-06   2.0066953e-06
    0.052552553      0.99881683               0               0               0               0               0    0.0054218135   1.4819578e-06    2.006907e-06
    0.054654655      0.99877251               0               0               0               0               0    0.0054704208   1.4822368e-06   2.0071187e-06
    0.056756757       0.9987218               0               0               0               0               0    0.0055255452   1.4825347e-06   2.0073447e-06
    0.058858859      0.99866604               0               0               0               0               0    0.0055858076   1.4828475e-06    2.007582e-06
    0.060960961      0.99861028               0               0               0               0               0    0.0056460699   1.4831602e-06   2.0078193e-06
    0.063063063       0.9985481               0               0               0               0               0    0.0057129385   1.4834886e-06   2.0080684e-06
    0.065165165      0.99847725               0               0               0               0               0    0.0057887385    1.483838e-06   2.0083335e-06
    0.067267267       0.9984064               0               0               0               0               0    0.0058645384   1.4841874e-06   2.0085987e-06
    0.069369369      0.99832242               0               0               0               0               0     0.005952754     1.48456e-06   2.0088814e-06
    0.071471471       0.9982291               0               0               0               0               0    0.0060498217   1.4849491e-06   2.0091766e-06
    0.073573574      0.99813578               0               0               0               0               0    0.0061468894   1.4853382e-06   2.0094719e-06
    0.075675676      0.99801401               0               0               0               0               0    0.0062753922   1.4857729e-06   2.0098017e-06
    0.077777778      0.99789192               0               0               0               0               0     0.006404252   1.4862081e-06    2.010132e-06
     0.07987988      0.99773261               0               0               0               0               0    0.0065609972   1.4866671e-06   2.0104803e-06
    0.081981982      0.99754828               0               0               0               0               0      0.00673649    1.487142e-06   2.0108407e-06
    0.084084084        0.997342               0               0               0               0               0    0.0069473875   1.4876513e-06   2.0112272e-06
    0.086186186      0.99709875               0               0               0               0               0    0.0072179238   1.4882186e-06   2.0116577e-06
    0.088288288      0.99673399               0  -1.7899733e-22               0               0               0    0.0075228404   1.4887516e-06   2.0120621e-06
     0.09039039       0.9960508               0  -8.2706683e-22               0               0               0    0.0079178525   1.4891944e-06   2.0123982e-06
    0.092492492       0.9953965               0   1.9822208e-17               0               0               0    0.0085463528   1.4894812e-06   2.0126157e-06
    0.094594595      0.99481835               0   9.1917506e-17               0               0               0    0.0097905288   1.4893562e-06   2.0125201e-06
    0.096696697      0.90679145               0   1.3977032e-16  -0.00050246102  -3.0969949e-06               0     0.010657676   1.3579787e-06   1.8350622e-06
    0.098798799      0.64614984               0   1.3977099e-16   -0.0019967277  -1.2307135e-05               0     0.010780606   9.6752241e-07   1.3075096e-06
      0.1009009      0.38555896               0   1.0838461e-16   -0.0031736845  -1.7613156e-05  -2.0830916e-18    0.0098914887   5.7724284e-07    7.801343e-07
       0.103003      0.12503573               0   3.5148837e-17   -0.0039275616  -1.7713685e-05  -6.9436385e-18    0.0076529735   1.8719891e-07   2.5299545e-07
     0.10510511               0               0               0   -0.0038668359   -1.302385e-05  -9.3459243e-18    0.0058800009   7.8338288e-13               0
     0.10720721               0               0               0   -0.0030543476  -3.9131896e-06  -9.4795839e-18     0.004536658   5.3911468e-13               0
     0.10930931               0               0               0   -0.0026644628  -1.7745418e-07  -6.8346146e-18    0.0040483114   4.2555212e-13               0
     0.11141141               0               0               0   -0.0025608988   -8.331611e-08  -2.3070799e-18    0.0041392383    4.005447e-13               0
     0.11351351               0               0               0   -0.0024981302  -3.9149656e-08  -6.6403451e-19    0.0042660377   3.8562115e-13               0
     0.11561562               0               0               0   -0.0024567406  -2.1170877e-08  -5.3260874e-19    0.0044116362   3.7598206e-13               0
     0.11771772               0               0               0   -0.0024238283  -1.4462797e-08  -3.1836791e-19    0.0044679304   3.6839222e-13               0
     0.11981982               0               0               0   -0.0023945574  -1.2596178e-08   -6.855291e-20     0.004485863   3.6168266e-13               0
     0.12192192               0               0               0   -0.0023684945  -1.1475532e-08               0    0.0044681068   3.5575663e-13               0
     0.12402402               0               0               0   -0.0023436449  -1.0637012e-08               0    0.0044368531   3.5012693e-13               0
     0.12612613               0               0               0   -0.0023210501   -9.961382e-09               0    0.0044027157   3.4504515e-13               0
     0.12822823               0               0               0   -0.0022992737  -9.3448756e-09               0    0.0043675317   3.4016224e-13               0
     0.13033033               0               0               0   -0.0022792903  -8.8159485e-09               0    0.0043334337   3.3571041e-13               0
     0.13243243               0               0               0   -0.0022599932  -8.3205471e-09               0    0.0042997513    3.314236e-13               0
     0.13453453               0               0               0   -0.0022420976  -7.8906313e-09  -1.2575178e-19    0.0042661474   3.2747069e-13               0
     0.13663664               0               0               0   -0.0022248218  -7.4896851e-09   -3.071338e-19    0.0042325782   3.2366549e-13               0
     0.13873874               0               0               0   -0.0022086131  -7.1349609e-09   -3.718211e-19    0.0041993492   3.2011264e-13               0
     0.14084084               0               0               0   -0.0021929958  -6.8058589e-09  -3.7182113e-19    0.0041663087   3.1669967e-13               0
     0.14294294               0               0               0   -0.0021781762  -6.5070242e-09  -3.5495483e-19    0.0041340284   3.1347398e-13               0
     0.14504505               0               0               0    -0.002163952  -6.2307796e-09  -3.2550023e-19    0.0041023155   3.1038806e-13               0
     0.14714715               0               0               0   -0.0021503017  -5.9739027e-09  -2.4535761e-19    0.0040714621    3.074359e-13               0
     0.14924925               0               0               0   -0.0021372723  -5.7379826e-09  -1.1036827e-19    0.0040415387   3.0462847e-13               0
     0.15135135               0               0               0   -0.0021246228  -5.5138614e-09  -1.6794489e-20    0.0040122904   3.0190891e-13               0
     0.15345345               0               0               0   -0.0021126321  -5.3102142e-09   4.9126587e-21    0.0039842137   2.9934181e-13               0
     0.15555556               0               0               0   -0.0021008488  -5.1126029e-09  -8.3877182e-21    0.0039565219   2.9682235e-13               0
     0.15765766               0               0               0   -0.0020897686  -4.9354638e-09  -1.4042694e-19    0.0039301358   2.9446449e-13               0
     0.15975976               0               0               0   -0.0020787413  -4.7597679e-09  -2.4901176e-19    0.0039038517    2.921187e-13               0
     0.16186186               0               0               0   -0.0020684651  -4.6045804e-09  -2.4309908e-20    0.0038790185   2.8994444e-13               0
     0.16396396               0               0               0    -0.002058189  -4.4493928e-09   2.0039194e-19    0.0038541853   2.8777018e-13               0
     0.16606607               0               0               0   -0.0020485415  -4.3103304e-09   2.2761126e-19     0.003830623   2.8573858e-13               0
     0.16816817               0               0               0   -0.0020389807  -4.1734905e-09   2.2761129e-19     0.003807236   2.8372665e-13               0
     0.17027027               0               0               0   -0.0020298464  -4.0470086e-09   1.3036332e-19    0.0037847503   2.8181094e-13               0
     0.17237237               0               0               0   -0.0020209259  -3.9257179e-09  -1.5623936e-20    0.0037627163   2.7994346e-13               0
     0.17447447               0               0               0    -0.002012251  -3.8101247e-09  -9.9329057e-20    0.0037412047   2.7813108e-13               0
     0.17657658               0               0               0   -0.0020039062  -3.7021889e-09  -9.9329069e-20    0.0037203952   2.7639276e-13               0
     0.17867868               0               0               0   -0.0019956443  -3.5960889e-09  -1.0458498e-19    0.0036997665   2.7467293e-13               0
     0.18078078               0               0               0   -0.0019878194  -3.4996738e-09  -1.3756912e-19    0.0036800913   2.7305059e-13               0
     0.18288288               0               0               0   -0.0019799945  -3.4032588e-09  -1.7055325e-19    0.0036604162   2.7142826e-13               0
     0.18498498               0               0               0   -0.0019725764  -3.3154657e-09  -1.1387478e-19     0.003641632   2.6989624e-13               0
     0.18708709               0               0               0   -0.0019652228   -3.229038e-09  -4.2996395e-20     0.003622989   2.6837853e-13               0
     0.18918919               0               0               0   -0.0019580995  -3.1472739e-09    2.970926e-20    0.0036048494   2.6691172e-13               0
     0.19129129               0               0               0   -0.0019511745  -3.0695246e-09   1.0398799e-19    0.0035871434   2.6548871e-13               0
     0.19339339               0               0               0   -0.0019443203  -2.9931341e-09    1.523975e-19    0.0035696002   2.6408126e-13               0
      0.1954955               0               0               0    -0.001937787  -2.9229109e-09   8.3388446e-20    0.0035527956   2.6274438e-13               0
      0.1975976               0               0               0   -0.0019312538  -2.8526877e-09   1.4379391e-20     0.003535991   2.6140751e-13               0
      0.1996997               0               0               0    -0.001925005   -2.787742e-09               0    0.0035198014   2.6013289e-13               0
      0.2018018               0               0               0    -0.001918831  -2.7241855e-09               0    0.0035037737   2.5887466e-13               0
      0.2039039               0               0               0    -0.001912779  -2.6628102e-09  -1.9833821e-20    0.0034880131   2.5764299e-13               0
     0.20600601               0               0               0    -0.001906935  -2.6051572e-09  -7.3516353e-20    0.0034727084   2.5645665e-13               0
     0.20810811               0               0               0    -0.001901091  -2.5475043e-09  -1.2719889e-19    0.0034574037   2.5527032e-13               0
     0.21021021               0               0               0   -0.0018955247  -2.4945534e-09   -1.318793e-19    0.0034427593   2.5414425e-13               0
     0.21231231               0               0               0   -0.0018899849  -2.4420517e-09  -1.3187932e-19    0.0034281779   2.5302393e-13               0
     0.21441441               0               0               0   -0.0018845635  -2.3914956e-09  -1.0996164e-19    0.0034138532    2.519292e-13               0
     0.21651652               0               0               0   -0.0018793053  -2.3436221e-09  -5.7825561e-20    0.0033998824   2.5086974e-13               0
     0.21861862               0               0               0   -0.0018740471  -2.2957486e-09   -5.689481e-21    0.0033859116   2.4981027e-13               0
     0.22072072               0               0               0    -0.001869021  -2.2515985e-09               0    0.0033724385   2.4880078e-13               0
     0.22282282               0               0               0   -0.0018640234  -2.2079045e-09               0    0.0033590264   2.4779741e-13               0
     0.22492492               0               0               0   -0.0018591038  -2.1653955e-09               0    0.0033457991   2.4681078e-13               0
     0.22702703               0               0               0    -0.001854348   -2.125372e-09               0    0.0033329596   2.4585928e-13               0
     0.22912913               0               0               0   -0.0018495922  -2.0853486e-09               0      0.00332012   2.4490777e-13               0
     0.23123123               0               0               0   -0.0018449976  -2.0476731e-09  -2.7749735e-20    0.0033076465    2.439907e-13               0
     0.23333333               0               0               0   -0.0018404673  -2.0109339e-09  -6.6565944e-20     0.003295319   2.4308737e-13               0
     0.23543544               0               0               0   -0.0018359508  -1.9743929e-09  -1.0045243e-19      0.00328302   2.4218697e-13               0
     0.23753754               0               0               0   -0.0018316308  -1.9406796e-09  -6.3990909e-20    0.0032711287    2.413284e-13               0
     0.23963964               0               0               0   -0.0018273107  -1.9069663e-09  -2.7529392e-20    0.0032592374   2.4046983e-13               0
     0.24174174               0               0               0   -0.0018230639   -1.874265e-09   9.3464663e-21    0.0032475115   2.3962678e-13               0
     0.24384384               0               0               0     -0.00181894  -1.8432644e-09   4.6918704e-20    0.0032360634   2.3880983e-13               0
     0.24594595               0               0               0   -0.0018148161  -1.8122638e-09   8.4490942e-20    0.0032246154   2.3799287e-13               0
     0.24804805               0               0               0    -0.001810809  -1.7827802e-09   7.5743698e-20    0.0032134521   2.3720062e-13               0
     0.25015015               0               0               0   -0.0018068689  -1.7541653e-09   4.0475416e-20    0.0032024519   2.3642252e-13               0
     0.25225225               0               0               0   -0.0018029288  -1.7255504e-09   5.2071348e-21    0.0031914518   2.3564442e-13               0
     0.25435435               0               0               0    -0.001799136  -1.6988071e-09               0    0.0031807669   2.3489735e-13               0
     0.25645646               0               0               0   -0.0017953687  -1.6723881e-09               0    0.0031701367   2.3415566e-13               0
     0.25855856               0               0               0   -0.0017916047  -1.6460113e-09   5.8740513e-22    0.0031595133   2.3341467e-13               0
     0.26066066               0               0               0   -0.0017879995   -1.621645e-09   2.9109294e-20    0.0031492098   2.3270703e-13               0
     0.26276276               0               0               0   -0.0017843943  -1.5972787e-09   5.7631183e-20    0.0031389064   2.3199939e-13               0
     0.26486486               0               0               0   -0.0017808103  -1.5731665e-09   8.2196245e-20    0.0031286524   2.3129617e-13               0
     0.26696697               0               0               0   -0.0017773574  -1.5506317e-09   8.2196264e-20    0.0031187048   2.3062042e-13               0
     0.26906907               0               0               0   -0.0017739045  -1.5280969e-09   8.2196284e-20    0.0031087572   2.2994467e-13               0
     0.27117117               0               0               0    -0.001770481  -1.5058937e-09   7.6563161e-20    0.0030988815   2.2927506e-13               0
     0.27327327               0               0               0   -0.0017671719  -1.4849781e-09   4.9055291e-20    0.0030892853   2.2862931e-13               0
     0.27537538               0               0               0   -0.0017638628  -1.4640626e-09   2.1547421e-20    0.0030796892   2.2798355e-13               0
     0.27747748               0               0               0   -0.0017605831  -1.4434746e-09  -5.1584674e-21    0.0030701551   2.2734394e-13               0
     0.27957958               0               0               0     -0.00175741  -1.4240709e-09  -2.8965136e-20    0.0030608458   2.2672649e-13               0
     0.28168168               0               0               0   -0.0017542369  -1.4046673e-09  -5.2771805e-20    0.0030515364   2.2610904e-13               0
     0.28378378               0               0               0   -0.0017510859  -1.3855104e-09  -7.2477719e-20    0.0030422706   2.2549618e-13               0
     0.28588589               0               0               0   -0.0017480412  -1.3675393e-09  -7.2477739e-20    0.0030332141   2.2490537e-13               0
     0.28798799               0               0               0   -0.0017449966  -1.3495683e-09  -7.2477758e-20    0.0030241575   2.2431457e-13               0
     0.29009009               0               0               0   -0.0017419603  -1.3316863e-09  -7.0892307e-20    0.0030151205    2.237255e-13               0
     0.29219219               0               0               0   -0.0017390369  -1.3150014e-09  -4.7985609e-20    0.0030063468   2.2315979e-13               0
     0.29429429               0               0               0   -0.0017361135  -1.2983165e-09  -2.5078911e-20    0.0029975731   2.2259407e-13               0
      0.2963964               0               0               0   -0.0017331901  -1.2816316e-09  -2.1722124e-21    0.0029887993   2.2202835e-13               0
      0.2984985               0               0               0   -0.0017303709  -1.2659739e-09               0    0.0029802875   2.2148412e-13               0
      0.3006006               0               0               0   -0.0017275625  -1.2504239e-09               0    0.0029718031   2.2094214e-13               0
      0.3027027               0               0               0   -0.0017247542  -1.2348739e-09               0    0.0029633187   2.2040017e-13               0
      0.3048048               0               0               0   -0.0017220202  -1.2200452e-09   1.2706668e-20    0.0029549913   2.1987346e-13               0
     0.30690691               0               0               0   -0.0017193215  -1.2055596e-09   3.1458951e-20    0.0029467384   2.1935402e-13               0
     0.30900901               0               0               0   -0.0017166228  -1.1910739e-09   5.0211235e-20    0.0029384856   2.1883457e-13               0
     0.31111111               0               0               0    -0.001713964  -1.1769796e-09   5.8373769e-20    0.0029303101   2.1832332e-13               0
     0.31321321               0               0               0   -0.0017113693  -1.1635131e-09   4.9539398e-20    0.0029222585   2.1782521e-13               0
     0.31531532               0               0               0   -0.0017087746  -1.1500467e-09   4.0705027e-20     0.002914207    2.173271e-13               0
     0.31741742               0               0               0    -0.001706182  -1.1365999e-09   3.2029485e-20    0.0029061601   2.1682942e-13               0
     0.31951952               0               0               0    -0.001703686  -1.1240651e-09   3.0693275e-20    0.0028983296   2.1635151e-13               0
     0.32162162               0               0               0     -0.00170119  -1.1115302e-09   2.9357065e-20    0.0028904991   2.1587359e-13               0
     0.32372372               0               0               0   -0.0016986941  -1.0989953e-09   2.8020855e-20    0.0028826686   2.1539567e-13               0
     0.32582583               0               0               0   -0.0016962533  -1.0869468e-09   3.2433893e-20    0.0028749747   2.1492901e-13               0
     0.32792793               0               0               0   -0.0016938514   -1.075241e-09   4.0898601e-20    0.0028673772   2.1447028e-13               0
     0.33003003               0               0               0   -0.0016914494  -1.0635353e-09   4.9363308e-20    0.0028597796   2.1401155e-13               0
     0.33213213               0               0               0   -0.0016890544  -1.0518882e-09   5.5948144e-20    0.0028521979   2.1355422e-13               0
     0.33423423               0               0               0   -0.0016867424  -1.0409444e-09   4.0011976e-20    0.0028448066   2.1311377e-13               0
     0.33633634               0               0               0   -0.0016844304  -1.0300005e-09   2.4075807e-20    0.0028374152   2.1267333e-13               0
     0.33843844               0               0               0   -0.0016821183  -1.0190566e-09   8.1396391e-21    0.0028300239   2.1223288e-13               0
     0.34054054               0               0               0   -0.0016798483  -1.0084694e-09  -1.0207451e-20    0.0028227165   2.1180095e-13               0
     0.34264264               0               0               0   -0.0016776222  -9.9825444e-10  -3.1071562e-20    0.0028154968   2.1137793e-13               0
     0.34474474               0               0               0    -0.001675396  -9.8803952e-10  -5.1935672e-20    0.0028082771    2.109549e-13               0
     0.34684685               0               0               0   -0.0016731699  -9.7782459e-10  -7.2799783e-20    0.0028010573   2.1053188e-13               0
     0.34894895               0               0               0   -0.0016710109  -9.6817661e-10  -7.6560766e-20    0.0027939741   2.1012244e-13               0
     0.35105105               0               0               0   -0.0016688667  -9.5865329e-10  -7.6560795e-20    0.0027869208     2.09716e-13               0
     0.35315315               0               0               0   -0.0016667225  -9.4912998e-10  -7.6560825e-20    0.0027798676   2.0930955e-13               0
     0.35525526               0               0               0   -0.0016645833   -9.396472e-10  -7.4467435e-20    0.0027728265   2.0890413e-13               0
     0.35735736               0               0               0   -0.0016625173  -9.3074831e-10  -4.2221021e-20    0.0027659601   2.0851346e-13               0
     0.35945946               0               0               0   -0.0016604513  -9.2184941e-10  -9.9746061e-21    0.0027590937    2.081228e-13               0
     0.36156156               0               0               0   -0.0016583852  -9.1295052e-10   2.2271808e-20    0.0027522273   2.0773213e-13               0
     0.36366366               0               0               0   -0.0016563358  -9.0417478e-10   4.7394187e-20     0.002745403    2.073448e-13               0
     0.36576577               0               0               0   -0.0016543447  -8.9583337e-10   4.7394207e-20    0.0027387272   2.0696923e-13               0
     0.36786787               0               0               0   -0.0016523537  -8.8749195e-10   4.7394227e-20    0.0027320514   2.0659366e-13               0
     0.36996997               0               0               0   -0.0016503626  -8.7915054e-10   4.7394247e-20    0.0027253756   2.0621809e-13               0
     0.37207207               0               0               0    -0.001648392  -8.7095935e-10   4.4061976e-20    0.0027187425   2.0584662e-13               0
     0.37417417               0               0               0    -0.001646473  -8.6314748e-10   3.2315591e-20    0.0027122175   2.0548551e-13               0
     0.37627628               0               0               0    -0.001644554  -8.5533561e-10   2.0569207e-20    0.0027056925    2.051244e-13               0
     0.37837838               0               0               0    -0.001642635  -8.4752374e-10   8.8228224e-21    0.0026991674    2.047633e-13               0
     0.38048048               0               0               0   -0.0016407332  -8.3983949e-10  -1.2772642e-21    0.0026926755   2.0440563e-13               0
     0.38258258               0               0               0   -0.0016388833  -8.3254036e-10  -6.4090986e-21    0.0026862837   2.0405835e-13               0
     0.38468468               0               0               0   -0.0016370333  -8.2524123e-10  -1.1540933e-20    0.0026798919   2.0371107e-13               0
     0.38678679               0               0               0   -0.0016351834   -8.179421e-10  -1.6672767e-20    0.0026735001    2.033638e-13               0
     0.38888889               0               0               0   -0.0016333409  -8.1069635e-10  -2.1770177e-20    0.0026671246     2.03018e-13               0