#      distance           pMean         UMean_x         UMean_y         UMean_z         nutMean wallShearStr... wallShearStr... wallShearStr...
  3.0219182e-06   2.1311931e-05    0.0070631691  -5.4983483e-12   3.6513027e-39   9.3089161e-35               0               0               0
  5.0865428e-06   2.1311931e-05       0.0118388  -1.3351304e-11  -1.2632228e-39   2.2533029e-35               0               0               0
  7.2269684e-06    2.131193e-05     0.016735504  -2.5459472e-11  -3.9746485e-39   3.4806937e-36               0               0               0
  9.4750924e-06    2.131193e-05     0.021811927  -4.2482579e-11  -2.8171256e-39   3.4923676e-37               0               0               0
  1.1864417e-05    2.131193e-05     0.027128779   -6.535562e-11               0    3.631027e-37               0               0               0
  1.4430548e-05   2.1311929e-05     0.032749385  -9.5355994e-11               0   5.9652711e-37               0               0               0
  1.7211727e-05   2.1311929e-05      0.03874035  -1.3414203e-10   9.1043173e-38    1.278508e-36               0               0               0
  2.0249401e-05   2.1311928e-05     0.045172303  -1.8381471e-10   8.2748374e-38   3.7677169e-36               0               0               0
  2.3588836e-05   2.1311928e-05     0.052120679   -2.469975e-10   7.0581617e-38   1.5298887e-35               0               0               0
  2.7279799e-05   2.1311927e-05     0.059666521   -3.269223e-10   -7.472271e-39   8.7672134e-35               0               0               0
  3.1377293e-05   2.1311927e-05     0.067897261    -4.27514e-10  -2.0523582e-37   6.8142398e-34               0               0               0
  3.5942381e-05   2.1311926e-05     0.076907469  -5.5346207e-10  -1.1888713e-37   6.6845595e-33               0               0               0
  4.1043091e-05   2.1311925e-05     0.086799506  -7.1026125e-10   9.9379342e-38   7.9757339e-32               0               0               0
  4.6755437e-05   2.1311925e-05     0.097684066  -9.0419687e-10   2.6609155e-37     1.16044e-30               0               0               0
  5.3164546e-05   2.1311924e-05      0.10968053  -1.1422423e-09   3.7616308e-38   2.0994236e-29               0               0               0
  6.0365928e-05   2.1311924e-05       0.1229171  -1.4318315e-09  -3.0809886e-37   4.6589655e-28               0               0               0
    6.84669e-05   2.1311924e-05      0.13753057   -1.780468e-09  -1.7900296e-37   3.2711639e-27               0               0               0
  7.7588184e-05   2.1311924e-05      0.15366569  -2.1951391e-09               0   7.9222624e-27               0               0               0
   8.786571e-05   2.1311924e-05      0.17147401   -2.681518e-09   -1.466343e-37   7.9147006e-27               0               0               0
  9.9452634e-05   2.1311925e-05      0.19111197   -3.242955e-09   4.2087827e-39   3.3367792e-27               0               0               0
  0.00011252163   2.1311926e-05      0.21273814  -3.8792869e-09   1.5084308e-37   6.0195732e-28               0               0               0
  0.00012726745   2.1311928e-05      0.23650932  -4.5855156e-09   1.2249895e-36   2.1524827e-28               0               0               0
  0.00014390985   2.1311931e-05      0.26257536  -5.3504366e-09   1.6999791e-38   3.7853316e-28               0               0               0
  0.00016269684   2.1311935e-05      0.29107232  -6.1553386e-09  -3.3397532e-38   7.1266554e-28               0               0               0
  0.00018390838   2.1311942e-05      0.32211376  -6.9729717e-09   4.7648095e-38   1.1142088e-27               0               0               0
  0.00020786057   2.1311951e-05      0.35577987  -7.7670974e-09  -1.1269441e-36   2.3656807e-27               0               0               0
  0.00023491035   2.1311963e-05      0.39210425  -8.4930757e-09               0   1.0412562e-26               0               0               0
  0.00026546084   2.1311979e-05      0.43105828   -9.100051e-09               0   3.8255967e-26               0               0               0
   0.0002999673   2.1312001e-05      0.47253315   -9.535222e-09               0   1.4475282e-25               0               0               0
  0.00033894396   2.1312031e-05      0.51632021  -9.7502302e-09               0   5.1705191e-25               0               0               0
  0.00038297165   2.1312069e-05      0.56209064  -9.7087277e-09               0   1.9214491e-24               0               0               0
  0.00043270649    2.131212e-05       0.6093765  -9.3926995e-09               0   9.3625415e-24               0               0               0
  0.00048888965   2.1312185e-05       0.6575559  -8.8036809e-09               0   3.6379589e-23               0               0               0
  0.00055235838   2.1312267e-05      0.70584674  -7.9547946e-09               0   1.0803834e-22               0               0               0
   0.0006240585   2.1312372e-05      0.75331454  -6.8521334e-09               0   2.6392552e-22               0               0               0
  0.00070505852   2.1312503e-05      0.79890083  -5.4694147e-09               0   5.6355369e-22               0               0               0
  0.00079656552   2.1312665e-05      0.84147859  -3.7253557e-09               0   1.0989849e-21               0               0               0
  0.00089994316   2.1312863e-05      0.87993923  -1.4744472e-09               0   2.0135887e-21               0               0               0
    0.001016732   2.1313102e-05       0.9133099   1.4851962e-09               0   3.5132145e-21               0               0               0
   0.0011486725   2.1313389e-05      0.94089011   5.3936574e-09               0    5.812535e-21               0               0               0
   0.0012977308   2.1313727e-05      0.96238286   1.0509943e-08               0   8.8891605e-21               0               0               0
   0.0014661282   2.1314123e-05      0.97798202   1.7093118e-08               0   1.2022474e-20               0               0               0
   0.0016563743   2.1314581e-05      0.98837249   2.5380179e-08               0   1.3784491e-20               0               0               0
   0.0018713042   2.1315104e-05      0.99461547   3.5561526e-08               0   1.3325825e-20               0               0               0
   0.0021141207     2.13157e-05       0.9979327   4.7768358e-08               0   1.1323248e-20               0               0               0
   0.0023884425   2.1316373e-05      0.99945758   6.2084843e-08               0   9.0590767e-21               0               0               0
   0.0026983575   2.1317132e-05       1.0000499   7.8593182e-08               0   7.4716953e-21               0               0               0
   0.0030484842   2.1317986e-05       1.0002397   9.7421888e-08    5.844141e-37   6.8748925e-21               0               0               0
   0.0034440402   2.1318946e-05       1.0002887   1.1878168e-07    8.766249e-37    5.944401e-21               0               0               0
   0.0038909203   2.1320025e-05       1.0002987   1.4295741e-07  -1.6593426e-37   3.2570179e-21               0               0               0
    0.004395784   2.1321237e-05       1.0003003   1.7030697e-07  -6.8716848e-37   8.3586254e-22               0               0               0
   0.0049661549   2.1322596e-05       1.0003005   2.0123435e-07   3.7985348e-37   3.1085705e-22               0               0               0
   0.0056105328    2.132412e-05       1.0003005   2.3621538e-07   9.9695813e-37   4.2587909e-22               0               0               0
   0.0063385204   2.1325825e-05       1.0003005    2.757662e-07   -2.735529e-37   4.9616684e-22               0               0               0
   0.0071609664   2.1327733e-05       1.0003005   3.2050279e-07   -8.024309e-37   5.6572169e-22               0               0               0
   0.0080901272   2.1329864e-05       1.0003005   3.7107819e-07  -1.4079673e-37   6.4304865e-22               0               0               0
   0.0091398493   2.1332242e-05       1.0003005    4.282927e-07               0   7.3003883e-22               0               0               0
    0.010325776   2.1334889e-05       1.0003005   4.9296942e-07               0   8.2786881e-22               0               0               0
     0.01166558   2.1337833e-05       1.0003005   5.6615245e-07               0   9.3823951e-22               0               0               0
    0.013179228   2.1341099e-05       1.0003005   6.4887373e-07               0   1.0625608e-21               0               0               0
    0.014889277   2.1344718e-05       1.0003005   7.4250307e-07               0   1.2031622e-21               0               0               0
    0.016821209   2.1348713e-05       1.0003005   8.4832372e-07               0    1.361688e-21               0               0               0
    0.019003816   2.1353118e-05       1.0003005   9.6814096e-07               0   1.5412856e-21               0               0               0
    0.021469624   2.1357954e-05       1.0003005   1.1035337e-06               0     1.74373e-21               0               0               0
    0.024255377   2.1363259e-05       1.0003004   1.2568901e-06               0   1.9732647e-21               0               0               0
    0.027402591    2.136904e-05       1.0003004   1.4301249e-06               0   2.2316084e-21               0               0               0
    0.030958166   2.1375346e-05       1.0003004   1.6264059e-06   1.5648601e-36   2.5244762e-21               0               0               0
    0.034975088   2.1382159e-05       1.0003004   1.8480083e-06   1.7445859e-36   2.8531695e-21               0               0               0
    0.039513219    2.138955e-05       1.0003004   2.0991357e-06  -1.2054159e-36   3.2253012e-21               0               0               0
    0.044640187   2.1397456e-05       1.0003003   2.3824162e-06  -1.3851417e-36   3.6410747e-21               0               0               0
    0.050432395   2.1405992e-05       1.0003003     2.70341e-06   5.7392627e-37   4.1103884e-21               0               0               0
    0.056976161   2.1415028e-05       1.0003002   3.0650283e-06    3.527903e-37   4.6311215e-21               0               0               0
    0.064369002   2.1424767e-05       1.0003002   3.4745658e-06   2.7858659e-37   5.2156409e-21               0               0               0
    0.072721087   2.1434973e-05       1.0003001   3.9350415e-06   5.8629145e-37   5.8573898e-21               0               0               0
    0.082156882   2.1446014e-05          1.0003   4.4558742e-06  -5.8053681e-37   6.5708427e-21               0               0               0
    0.092817002   2.1457514e-05       1.0002999   5.0398465e-06  -6.6710207e-37   7.3416202e-21               0               0               0
