/*--------------------------------*- C++ -*----------------------------------*\
  =========                 |
  \\      /  F ield         | OpenFOAM: The Open Source CFD Toolbox
   \\    /   O peration     | Website:  https://openfoam.org
    \\  /    A nd           | Version:  12
     \\/     M anipulation  |
\*---------------------------------------------------------------------------*/
FoamFile
{
    format      ascii;
    class       volScalarField;
    location    "1200";
    object      k;
}
// * * * * * * * * * * * * * * * * * * * * * * * * * * * * * * * * * * * * * //

dimensions      [0 2 -2 0 0 0 0];

internalField   nonuniform List<scalar> 
7480
(
0.00019555203
0.00028361609
0.00041665233
0.00060432613
0.00086048921
0.0011989997
0.0016300913
0.0021564156
0.0027695993
0.0034478708
0.004156763
0.0048550665
0.0055015966
0.0060621028
0.0065136835
0.0068483632
0.0070609743
0.0072073228
0.0072021241
0.0071604658
0.0070695736
0.0069438598
0.0067968211
0.0066400018
0.0064830687
0.0063340651
0.0061995982
0.0060847789
0.0059931517
0.0059261866
0.0058825067
0.0058576403
0.0058446554
0.0058358943
0.005825137
0.0058089648
0.0057868026
0.0057599481
0.0057302354
0.0056990339
0.0056669379
0.00563401
0.0056002241
0.0055657594
0.0055309985
0.0054963477
0.0054620749
0.0054282784
0.005394963
0.0053621233
0.0053297687
0.0052979041
0.0052665309
0.0052356394
0.0052052155
0.0051752482
0.0051457285
0.0051166433
0.0050879787
0.0050597309
0.0050318881
0.0050044317
0.004977347
0.0049506231
0.0049242505
0.0048982214
0.004872528
0.0048471616
0.004822114
0.0047973774
0.0047729432
0.004748804
0.004724953
0.0047013827
0.004678086
0.0046550564
0.0046322878
0.0046097744
0.0045875101
0.0045654895
0.004543707
0.0045221572
0.0045008349
0.0044797349
0.0044588521
0.0044381814
0.0044177179
0.0043974563
0.0043773917
0.0043575174
0.0043378295
0.0043183163
0.0042989817
0.0042797843
0.0042607788
0.0042417715
0.0042231087
0.0042036137
0.0041871501
0.0041567949
0.00014812068
0.0001507529
0.00015486992
0.00016082919
0.00016938167
0.00018176698
0.0001997547
0.00022560352
0.00026172156
0.00031057612
0.00037467091
0.00045463877
0.00054880557
0.00065368196
0.0007647998
0.00087810965
0.00098947556
0.0011013921
0.0012116538
0.0013276878
0.0014599655
0.0016291136
0.0018427794
0.0020808641
0.0023437056
0.0026347491
0.002953985
0.0032978428
0.0036572725
0.0040156708
0.0043509894
0.0046413192
0.0048702848
0.0050332649
0.005138207
0.0052005313
0.0052368143
0.0052598325
0.0052762302
0.0052876009
0.0052933496
0.0052931128
0.0052878132
0.0052792556
0.0052691232
0.0052583455
0.0052471091
0.0052352698
0.0052227581
0.0052096683
0.0051961255
0.0051821904
0.0051678575
0.0051531254
0.0051380227
0.005122583
0.0051068238
0.0050907555
0.0050744055
0.0050578247
0.0050410058
0.0050239488
0.0050066701
0.0049891922
0.0049715384
0.004953729
0.0049357814
0.004917712
0.0048995363
0.0048812677
0.0048629204
0.0048445077
0.0048260406
0.004807532
0.0047889942
0.0047704383
0.0047518742
0.0047333111
0.0047147575
0.0046962214
0.0046777101
0.0046592303
0.004640788
0.0046223889
0.0046040378
0.0045857394
0.0045674977
0.0045493164
0.0045311988
0.0045131466
0.0044951624
0.0044772496
0.0044594057
0.0044416364
0.0044239246
0.0044062935
0.004388698
0.0043709045
0.0043549939
0.0043269149
0.00014689009
0.00014717426
0.0001475922
0.0001481283
0.00014878062
0.00014955403
0.00015045526
0.00015148917
0.00015265213
0.00015393344
0.00015533668
0.00015686805
0.00015852201
0.00016028654
0.00016215262
0.00016412576
0.00016622703
0.00016855968
0.00017127378
0.00017470305
0.00017935499
0.0001865322
0.00019703808
0.00021681941
0.00024947355
0.00029817341
0.00036720822
0.00046176004
0.00058971968
0.00076317928
0.0010106716
0.0013138015
0.0016594422
0.0020319974
0.0024115192
0.0027749154
0.0031000814
0.0033717392
0.0035853865
0.0037467041
0.003867789
0.0039620726
0.004040256
0.0041083637
0.0041684758
0.0042207983
0.0042655016
0.0043035028
0.0043361587
0.0043646486
0.0043896618
0.0044115271
0.0044304837
0.0044468143
0.0044608089
0.0044726991
0.0044826559
0.0044908264
0.0044973456
0.0045023211
0.0045058778
0.0045081224
0.0045091498
0.0045090467
0.0045078926
0.0045057607
0.004502718
0.0044988264
0.0044941429
0.0044887203
0.0044826087
0.0044758554
0.0044685044
0.0044605972
0.0044521737
0.0044432711
0.0044339243
0.0044241656
0.0044140257
0.0044035331
0.0043927146
0.0043815951
0.004370198
0.004358545
0.0043466565
0.0043345514
0.0043222476
0.0043097618
0.0042971096
0.0042843071
0.0042713663
0.004258302
0.0042451192
0.0042318438
0.0042184492
0.0042050247
0.004191421
0.0041777777
0.0041651645
0.0041431909
0.00014676095
0.000146807
0.00014688482
0.00014698629
0.00014710447
0.00014723281
0.00014736455
0.00014749221
0.00014760697
0.00014769847
0.00014775649
0.00014777092
0.00014773078
0.00014762375
0.00014743721
0.00014715531
0.00014676359
0.00014625285
0.00014562038
0.00014486908
0.0001440042
0.00014305755
0.00014204546
0.00014108272
0.00014032865
0.00014004922
0.00014050798
0.0001420886
0.00014556879
0.00015194403
0.00016396305
0.0001843334
0.00022231381
0.00028592967
0.0003828223
0.00052089271
0.00071946384
0.00097880406
0.001277024
0.0015954519
0.0019141762
0.002213093
0.0024767533
0.0026981606
0.002879054
0.0030271887
0.0031520775
0.0032613401
0.0033591769
0.003447128
0.0035257252
0.0035957115
0.0036582495
0.0037145281
0.0037654173
0.0038114717
0.003853117
0.0038907638
0.0039247971
0.0039555348
0.0039832469
0.0040081745
0.004030536
0.0040505273
0.004068323
0.0040840807
0.0040979439
0.0041100429
0.0041204967
0.0041294147
0.0041368985
0.0041430424
0.0041479339
0.0041516545
0.0041542805
0.0041558832
0.0041565294
0.0041562812
0.004155197
0.0041533311
0.0041507343
0.0041474543
0.0041435352
0.0041390188
0.0041339437
0.0041283466
0.0041222616
0.0041157209
0.0041087544
0.0041013917
0.0040936583
0.0040855819
0.0040771787
0.0040684887
0.0040594911
0.0040503041
0.0040407443
0.0040311482
0.0040219164
0.004005773
0.00014673702
0.00014673393
0.00014674084
0.00014675639
0.0001467775
0.00014680065
0.00014682218
0.00014683829
0.00014684495
0.00014683782
0.00014681249
0.00014676462
0.00014668986
0.00014658366
0.00014644166
0.00014625963
0.00014603196
0.00014575236
0.00014541277
0.00014500879
0.00014453735
0.00014399802
0.00014339152
0.0001427249
0.00014201386
0.00014128392
0.00014056142
0.00013987556
0.00013925758
0.00013876426
0.00013840291
0.00013853905
0.00013919107
0.00014103656
0.00014481085
0.00015154627
0.00016380492
0.00018484003
0.00022440373
0.00029078398
0.00039175341
0.00053829874
0.0007414122
0.00098264595
0.001246061
0.0015143508
0.0017706173
0.0020024637
0.002204605
0.002378366
0.0025290595
0.0026625788
0.0027830451
0.0028924772
0.0029917728
0.003081742
0.0031634333
0.0032379082
0.0033060022
0.0033683213
0.0034253689
0.0034776127
0.0035254768
0.0035693279
0.0036094841
0.0036462297
0.0036798213
0.0037104887
0.0037384394
0.0037638624
0.0037869305
0.0038078024
0.0038266237
0.0038435292
0.0038586432
0.0038720816
0.0038839521
0.0038943547
0.0039033826
0.0039111227
0.0039176559
0.0039230577
0.0039273984
0.0039307438
0.0039331555
0.0039346911
0.0039354046
0.0039353469
0.0039345654
0.0039331056
0.0039310087
0.0039283173
0.0039250613
0.0039212943
0.0039170077
0.0039123369
0.0039070895
0.0039017394
0.0038961103
0.0038860126
0.00014674144
0.00014672097
0.00014670484
0.00014669278
0.00014668362
0.00014667556
0.00014666656
0.00014665451
0.00014663723
0.00014661243
0.00014657776
0.00014653092
0.00014646964
0.00014639166
0.00014629455
0.00014617533
0.00014603226
0.00014586307
0.00014566463
0.00014543391
0.00014516816
0.0001448651
0.00014452286
0.00014414028
0.00014371749
0.00014325641
0.00014276035
0.00014223285
0.00014167997
0.00014112316
0.00014056986
0.00014005103
0.00013958049
0.00013922534
0.00013895588
0.00013902531
0.00013937932
0.00014026874
0.00014218922
0.00014590868
0.00015245045
0.00016384065
0.00018333821
0.00021925993
0.00027974354
0.00037212261
0.00050946777
0.00068978534
0.00090001036
0.0011267669
0.0013553163
0.0015728979
0.0017716815
0.0019494614
0.0021082786
0.0022517137
0.0023826738
0.0025027562
0.0026128182
0.002713658
0.002806199
0.002891323
0.0029697424
0.0030420318
0.0031086999
0.0031702125
0.0032269847
0.003279381
0.0033277275
0.00337232
0.0034134265
0.0034512901
0.0034861328
0.0035181581
0.0035475527
0.0035744892
0.0035991271
0.0036216142
0.0036420876
0.0036606742
0.0036774923
0.0036926517
0.0037062549
0.0037183974
0.0037291681
0.0037386506
0.0037469228
0.0037540579
0.0037601243
0.0037651869
0.0037693054
0.0037725395
0.0037749362
0.0037765632
0.0037774286
0.0037776809
0.00377713
0.0037763677
0.0037746495
0.0037710152
0.00014675352
0.00014672747
0.00014670241
0.000146679
0.00014665715
0.0001466361
0.00014661471
0.00014659175
0.00014656587
0.00014653569
0.00014649974
0.00014645657
0.00014640471
0.00014634273
0.00014626922
0.00014618255
0.00014608133
0.00014596419
0.00014582957
0.0001456758
0.0001455012
0.00014530411
0.000145083
0.00014483645
0.00014456335
0.00014426304
0.00014393542
0.0001435808
0.00014319975
0.00014279598
0.00014237281
0.00014193675
0.00014148927
0.00014104619
0.00014061363
0.00014022664
0.00013989381
0.00013964349
0.00013948985
0.00013957524
0.00013991208
0.00014070594
0.00014217011
0.00014488654
0.00014975559
0.00015803915
0.00017223679
0.00019698351
0.00024022816
0.00030916147
0.0004133921
0.00055719837
0.00073101893
0.00092463119
0.0011258853
0.0013233885
0.0015093005
0.0016803781
0.0018370377
0.0019811639
0.0021143827
0.0022376303
0.0023515486
0.0024568385
0.0025542595
0.0026444989
0.0027281327
0.0028056667
0.0028775666
0.0029442569
0.0030061183
0.0030634947
0.0031167
0.0031660208
0.0032117196
0.0032540376
0.0032931971
0.0033294033
0.0033628461
0.003393701
0.0034221309
0.0034482872
0.0034723104
0.0034943316
0.003514473
0.0035328483
0.0035495643
0.0035647206
0.0035784104
0.0035907218
0.0036017361
0.0036115332
0.0036201797
0.0036277599
0.0036343017
0.003639967
0.0036445716
0.0036488255
0.0036513857
0.0036547578
0.0001467691
0.0001467414
0.00014671311
0.0001466849
0.00014665717
0.00014662978
0.00014660221
0.00014657378
0.00014654366
0.00014651093
0.00014647464
0.00014643377
0.00014638731
0.00014633423
0.00014627355
0.00014620419
0.00014612516
0.00014603545
0.00014593406
0.00014581991
0.00014569191
0.00014554893
0.00014538983
0.00014521352
0.00014501894
0.00014480519
0.00014457156
0.00014431756
0.00014404282
0.00014374771
0.00014343299
0.00014310046
0.00014275118
0.00014238881
0.00014201634
0.00014164186
0.0001412719
0.00014091414
0.00014057494
0.0001402812
0.00014005296
0.00013987096
0.00013988103
0.00014000843
0.00014042067
0.00014127136
0.00014278418
0.00014535499
0.00014983321
0.00015740239
0.00017016659
0.00019184332
0.00022948443
0.00028966413
0.00038178059
0.00050719542
0.00065982011
0.00083135965
0.0010115707
0.0011907593
0.001362181
0.0015229455
0.0016729122
0.0018128904
0.0019435551
0.0020653509
0.0021787436
0.0022842977
0.0023825847
0.002474118
0.0025593611
0.002638748
0.0027126822
0.0027815335
0.0028456423
0.0029053231
0.0029608664
0.0030125405
0.003060594
0.003105257
0.0031467431
0.0031852506
0.003220964
0.003254055
0.0032846836
0.0033129993
0.0033391413
0.0033632402
0.0033854179
0.0034057891
0.0034244604
0.0034415346
0.0034571013
0.0034712639
0.0034840727
0.003495705
0.003505984
0.0035157458
0.0035230014
0.0035340162
0.00014678737
0.00014675919
0.0001467299
0.00014669988
0.00014666956
0.00014663906
0.00014660822
0.00014657672
0.00014654411
0.00014650979
0.00014647313
0.00014643341
0.0001463899
0.00014634183
0.00014628846
0.00014622901
0.00014616273
0.00014608886
0.00014600663
0.00014591529
0.00014581404
0.00014570207
0.00014557855
0.00014544263
0.00014529347
0.00014513027
0.00014495228
0.00014475887
0.00014454945
0.00014432366
0.00014408136
0.00014382285
0.00014354841
0.00014325903
0.00014295582
0.00014264124
0.00014231829
0.00014199054
0.00014166086
0.00014133615
0.00014102519
0.00014072526
0.00014046999
0.00014025695
0.00014010808
0.00014005543
0.00014013263
0.00014039328
0.00014096562
0.00014201036
0.00014377471
0.00014665026
0.00015152158
0.00015962738
0.00017315415
0.00019608437
0.00023459977
0.00029522365
0.00038604929
0.00050461815
0.00064667246
0.00080483152
0.0009700106
0.0011342108
0.0012924166
0.0014426183
0.0015844922
0.0017181641
0.0018437757
0.0019615478
0.0020718351
0.0021750543
0.0022716149
0.0023619099
0.0024463205
0.0025252111
0.0025989248
0.0026677832
0.0027320883
0.0027921221
0.0028481484
0.0029004135
0.0029491473
0.0029945648
0.0030368668
0.0030762408
0.0031128626
0.0031468965
0.0031784963
0.0032078066
0.0032349622
0.003260092
0.0032833112
0.0033047446
0.003324468
0.0033426764
0.0033592007
0.0033750153
0.0033874269
0.0034067992
0.00014680825
0.00014677988
0.00014675034
0.00014671979
0.0001466885
0.00014665662
0.00014662415
0.00014659097
0.00014655687
0.00014652149
0.00014648441
0.00014644515
0.00014640317
0.00014635792
0.00014630882
0.00014625528
0.0001461967
0.00014613249
0.00014606206
0.0001459848
0.00014590012
0.00014580739
0.00014570597
0.0001455952
0.00014547442
0.00014534295
0.00014520015
0.0001450454
0.00014487812
0.0001446978
0.00014450403
0.00014429657
0.0001440753
0.00014384032
0.00014359191
0.0001433308
0.00014305815
0.00014277561
0.00014248475
0.00014218801
0.00014188953
0.00014158984
0.00014129776
0.00014101779
0.00014075513
0.00014052207
0.00014033009
0.00014019237
0.00014013039
0.00014019007
0.00014040424
0.00014085659
0.00014167977
0.00014306558
0.00014531183
0.00014895135
0.00015496204
0.00016483943
0.00018106746
0.00020860266
0.00025282184
0.00032157168
0.00041605562
0.00053472639
0.00067280971
0.00082276088
0.00097669933
0.0011287147
0.0012756079
0.0014160921
0.001549692
0.0016761952
0.0017955769
0.0019079931
0.002013704
0.002113006
0.0022062105
0.0022936364
0.0023755997
0.0024524071
0.0025243533
0.0025917197
0.0026547732
0.0027137665
0.0027689377
0.0028205116
0.0028686994
0.0029137
0.0029557002
0.002994876
0.003031392
0.0030654053
0.0030970587
0.003126501
0.0031538349
0.0031792759
0.0032026623
0.0032251205
0.0032431893
0.0032717028
0.00014683171
0.00014680323
0.00014677365
0.00014674301
0.00014671147
0.00014667911
0.00014664596
0.00014661198
0.00014657707
0.00014654104
0.00014650363
0.0001464645
0.0001464233
0.00014637961
0.00014633301
0.00014628303
0.00014622922
0.0001461711
0.0001461082
0.00014604003
0.0001459661
0.00014588594
0.00014579901
0.00014570479
0.00014560274
0.0001454923
0.00014537294
0.00014524411
0.00014510528
0.00014495595
0.00014479565
0.00014462399
0.00014444065
0.00014424541
0.00014403816
0.00014381898
0.0001435882
0.00014334645
0.00014309448
0.00014283333
0.00014256486
0.00014229006
0.00014201187
0.00014173334
0.00014145716
0.00014118789
0.00014093088
0.00014069144
0.00014047768
0.0001403047
0.00014018433
0.00014013319
0.00014018939
0.0001403852
0.00014080717
0.00014154275
0.00014276065
0.00014472788
0.00014780844
0.00015282563
0.00016095496
0.0001742538
0.00019629321
0.00023189803
0.00028772053
0.00036672079
0.00046899661
0.00059161353
0.00072842754
0.00087218521
0.0010168797
0.0011587859
0.0012960094
0.001427602
0.0015530435
0.0016720991
0.0017847569
0.0018911385
0.0019914358
0.0020858815
0.0021747329
0.0022582575
0.002336724
0.0024103976
0.0024795363
0.0025443887
0.0026051932
0.0026621771
0.0027155561
0.0027655354
0.0028123084
0.0028560599
0.0028969606
0.0029351838
0.0029708601
0.0030042278
0.0030351309
0.0030648623
0.0030891241
0.0031276232
0.00014685767
0.00014682912
0.00014679956
0.00014676898
0.00014673745
0.00014670502
0.00014667169
0.00014663743
0.00014660219
0.00014656586
0.00014652826
0.00014648918
0.00014644838
0.00014640557
0.00014636042
0.00014631261
0.00014626178
0.00014620755
0.00014614955
0.00014608738
0.00014602064
0.00014594893
0.00014587184
0.00014578892
0.00014569971
0.00014560378
0.00014550065
0.00014538986
0.00014527095
0.00014514346
0.00014500694
0.00014486098
0.00014470518
0.00014453922
0.00014436282
0.00014417579
0.00014397807
0.00014376976
0.00014355114
0.00014332258
0.00014308491
0.00014283877
0.00014258539
0.0001423264
0.00014206342
0.0001417986
0.00014153467
0.0001412745
0.00014102156
0.00014078144
0.00014056079
0.00014036647
0.00014021296
0.00014009832
0.00014008266
0.00014014532
0.00014035406
0.00014078463
0.00014150407
0.00014267548
0.00014453718
0.00014744714
0.00015207168
0.00015946392
0.00017141053
0.00019090935
0.00022226365
0.00027140263
0.00034130075
0.00043318058
0.00054511526
0.00067192172
0.0008070265
0.00094473104
0.0010812391
0.0012143755
0.0013429008
0.0014660831
0.001583537
0.0016951248
0.0018008617
0.0019008559
0.0019952745
0.0020843217
0.0021682217
0.0022472086
0.0023215193
0.0023913889
0.0024570475
0.0025187183
0.0025766159
0.0026309475
0.0026819079
0.0027296931
0.0027744596
0.002816469
0.002855568
0.0028932301
0.0029242472
0.0029736262
0.000146886
0.00014685743
0.00014682793
0.00014679746
0.00014676604
0.0001467337
0.00014670041
0.00014666615
0.00014663087
0.00014659447
0.00014655686
0.00014651787
0.00014647734
0.00014643505
0.0001463908
0.00014634433
0.00014629537
0.00014624365
0.00014618886
0.00014613069
0.00014606882
0.00014600291
0.00014593262
0.00014585758
0.00014577742
0.00014569174
0.00014560016
0.00014550229
0.00014539771
0.00014528602
0.00014516681
0.00014503971
0.0001449043
0.00014476024
0.00014460717
0.00014444481
0.0001442729
0.00014409133
0.00014390004
0.00014369909
0.00014348876
0.00014326936
0.00014304141
0.0001428057
0.00014256316
0.00014231495
0.00014206252
0.00014180755
0.00014155189
0.00014129817
0.00014104979
0.00014081009
0.00014058574
0.00014037666
0.00014020393
0.00014007009
0.0001399738
0.000139987
0.00014007778
0.00014032123
0.00014078216
0.00014154459
0.00014275826
0.00014465585
0.00014759179
0.00015218572
0.00015944497
0.00017106378
0.00018982433
0.00021974549
0.00026588145
0.00033126837
0.00041751621
0.00052296253
0.00064288012
0.00077129611
0.00090299942
0.0010343896
0.0011632481
0.0012882137
0.0014084515
0.001523494
0.0016331248
0.0017372884
0.0018360342
0.0019294805
0.0020177897
0.0021011514
0.0021797705
0.0022538597
0.0023236334
0.0023893053
0.0024510829
0.0025091764
0.0025637622
0.0026151216
0.0026630982
0.0027093584
0.0027477048
0.0028088915
0.00014691656
0.00014688803
0.00014685861
0.00014682827
0.00014679701
0.00014676482
0.00014673168
0.00014669755
0.00014666238
0.00014662609
0.00014658859
0.00014654977
0.00014650948
0.00014646759
0.00014642394
0.00014637834
0.0001463306
0.00014628052
0.00014622786
0.00014617237
0.00014611382
0.00014605192
0.00014598639
0.00014591693
0.00014584321
0.0001457649
0.00014568169
0.00014559322
0.00014549914
0.00014539911
0.00014529276
0.00014517973
0.00014505967
0.0001449322
0.00014479698
0.00014465368
0.00014450198
0.00014434163
0.00014417244
0.00014399427
0.00014380711
0.00014361102
0.00014340617
0.00014319288
0.00014297161
0.00014274298
0.00014250777
0.00014226693
0.00014202158
0.00014177308
0.00014152331
0.00014127413
0.00014102893
0.00014078859
0.00014056053
0.00014034995
0.0001401555
0.00014000272
0.00013988962
0.00013982847
0.00013985993
0.00013999829
0.00014029864
0.00014082666
0.00014167597
0.00014300027
0.00014503737
0.00014816576
0.00015301987
0.00016064009
0.00017267037
0.00019194975
0.00022246869
0.00026826582
0.00033260153
0.0004168136
0.00051901339
0.00063460096
0.000758115
0.00088489963
0.0010116913
0.00113638
0.0012576121
0.0013745405
0.0014866732
0.0015937582
0.0016957025
0.0017925205
0.0018842984
0.0019711697
0.0020532984
0.0021308676
0.0022040697
0.0022731084
0.0023381647
0.0023995288
0.0024570301
0.002512536
0.0025587735
0.0026327021
0.00014694919
0.00014692075
0.00014689146
0.00014686129
0.00014683021
0.00014679821
0.00014676526
0.00014673133
0.00014669635
0.00014666026
0.00014662296
0.00014658437
0.00014654437
0.00014650284
0.00014645966
0.00014641469
0.0001463678
0.00014631884
0.00014626763
0.00014621399
0.00014615772
0.00014609861
0.00014603643
0.00014597092
0.00014590183
0.00014582887
0.00014575177
0.00014567023
0.00014558395
0.00014549262
0.00014539593
0.00014529355
0.00014518516
0.00014507042
0.00014494899
0.00014482053
0.00014468472
0.00014454125
0.00014438985
0.00014423029
0.0001440624
0.00014388608
0.0001437013
0.0001435081
0.00014330666
0.00014309725
0.00014288024
0.00014265616
0.00014242564
0.00014218945
0.00014194864
0.00014170432
0.00014145831
0.00014121161
0.0001409672
0.00014072873
0.00014049633
0.00014027931
0.00014008133
0.00013990717
0.00013977231
0.00013967844
0.00013966354
0.00013973563
0.00013993201
0.00014030818
0.00014093239
0.00014191432
0.00014342099
0.00014571814
0.00014920151
0.00015459117
0.00016301893
0.00017625983
0.00019723351
0.00022971274
0.00027741602
0.00034338107
0.0004282398
0.0005295421
0.00064268639
0.00076269387
0.00088548881
0.0010082038
0.0011289256
0.0012463986
0.0013598283
0.001468743
0.0015728898
0.0016721654
0.0017665692
0.0018561708
0.001941086
0.0020214672
0.0020974654
0.0021693554
0.0022369307
0.0023022604
0.0023569014
0.0024444675
0.00014698376
0.00014695545
0.00014692633
0.00014689634
0.00014686547
0.00014683369
0.00014680097
0.00014676727
0.00014673254
0.00014669669
0.00014665966
0.00014662135
0.00014658167
0.00014654051
0.00014649777
0.00014645334
0.00014640712
0.00014635898
0.00014630882
0.00014625648
0.00014620182
0.00014614469
0.00014608488
0.00014602221
0.00014595646
0.0001458874
0.00014581479
0.00014573839
0.00014565792
0.00014557314
0.00014548376
0.0001453895
0.00014529007
0.00014518516
0.00014507445
0.00014495763
0.00014483437
0.00014470435
0.00014456728
0.00014442287
0.00014427088
0.00014411111
0.00014394341
0.00014376768
0.00014358389
0.00014339208
0.00014319241
0.00014298509
0.00014277045
0.0001425489
0.00014232102
0.00014208747
0.00014184924
0.00014160716
0.00014136259
0.00014111773
0.00014087331
0.00014063308
0.00014040026
0.00014017739
0.00013997146
0.00013978521
0.00013963368
0.00013952408
0.00013946471
0.00013949313
0.00013961777
0.00013989424
0.00014037196
0.00014113606
0.00014230456
0.00014407684
0.00014675914
0.00015081973
0.00015708025
0.00016677344
0.00018202468
0.0002057805
0.0002416691
0.00029332223
0.00036303371
0.00045042295
0.0005523623
0.00066427541
0.00078170434
0.00090116141
0.0010201899
0.0011371206
0.0012508492
0.0013606731
0.0014661703
0.0015671123
0.001663406
0.0017550552
0.0018421097
0.0019247766
0.0020027713
0.0020783494
0.0021417951
0.0022437816
0.0001470201
0.00014699197
0.00014696304
0.00014693328
0.00014690264
0.00014687111
0.00014683865
0.00014680522
0.00014677076
0.0001467352
0.00014669847
0.00014666049
0.00014662116
0.00014658039
0.00014653809
0.00014649417
0.00014644853
0.00014640109
0.00014635175
0.0001463004
0.00014624695
0.00014619126
0.00014613319
0.00014607258
0.00014600927
0.00014594307
0.00014587378
0.00014580119
0.0001457251
0.00014564525
0.00014556144
0.00014547339
0.00014538086
0.00014528358
0.00014518125
0.00014507358
0.00014496026
0.00014484098
0.00014471544
0.00014458335
0.00014444443
0.00014429843
0.00014414511
0.0001439843
0.00014381585
0.00014363968
0.00014345574
0.0001432641
0.00014306485
0.00014285817
0.00014264435
0.00014242375
0.00014219692
0.00014196438
0.00014172689
0.00014148567
0.00014124149
0.00014099607
0.00014075152
0.00014050955
0.00014027366
0.00014004602
0.00013983316
0.00013964065
0.00013947355
0.0001393469
0.00013925643
0.00013925646
0.00013933526
0.00013953903
0.0001399127
0.00014052325
0.00014147281
0.00014290538
0.00014506087
0.00014828755
0.00015319122
0.0001606987
0.00017234279
0.00019046636
0.00021822072
0.00025923774
0.00031665821
0.00039166734
0.00048270656
0.0005860699
0.00069736056
0.00081270628
0.00092918948
0.0010447539
0.0011579951
0.0012679829
0.0013741262
0.0014760736
0.0015736234
0.0016668073
0.0017551784
0.0018411346
0.0019135704
0.0020305269
0.00014705807
0.00014703016
0.00014700146
0.00014697194
0.00014694157
0.00014691031
0.00014687814
0.000146845
0.00014681084
0.0001467756
0.00014673921
0.00014670159
0.00014666264
0.00014662229
0.00014658045
0.00014653703
0.00014649196
0.00014644515
0.00014639653
0.00014634602
0.00014629352
0.00014623896
0.00014618221
0.00014612317
0.00014606168
0.00014599762
0.00014593081
0.0001458611
0.00014578829
0.00014571219
0.00014563262
0.00014554934
0.00014546215
0.00014537079
0.00014527502
0.00014517456
0.00014506912
0.00014495843
0.00014484219
0.0001447201
0.00014459188
0.00014445726
0.00014431598
0.0001441678
0.00014401251
0.00014384993
0.00014367994
0.00014350245
0.00014331742
0.00014312488
0.00014292492
0.00014271769
0.00014250345
0.00014228252
0.00014205529
0.00014182245
0.00014158457
0.00014134256
0.00014109767
0.0001408511
0.00014060476
0.00014036023
0.00014012068
0.00013988977
0.00013967046
0.00013947039
0.0001392899
0.00013914931
0.00013905175
0.00013901317
0.00013905596
0.00013920794
0.00013950983
0.00014001641
0.00014081212
0.00014201209
0.00014380864
0.0001464846
0.00015049725
0.00015657628
0.00016590103
0.00018033281
0.00020252613
0.0002358551
0.00028375116
0.00034840012
0.00042958933
0.00052465386
0.0006295844
0.00074037656
0.00085377992
0.00096740638
0.0010795799
0.001189161
0.0012953829
0.0013978777
0.0014958686
0.0015917911
0.0016730062
0.0018050475
0.00014709752
0.00014706985
0.00014704141
0.00014701216
0.00014698208
0.00014695113
0.00014691926
0.00014688644
0.00014685262
0.00014681773
0.0001467817
0.00014674446
0.00014670593
0.00014666603
0.00014662467
0.00014658177
0.00014653727
0.00014649108
0.00014644314
0.00014639338
0.00014634173
0.00014628812
0.00014623246
0.00014617465
0.0001461146
0.00014605219
0.00014598729
0.00014591977
0.00014584947
0.00014577625
0.00014569993
0.00014562034
0.00014553728
0.00014545054
0.00014535991
0.00014526513
0.00014516596
0.00014506212
0.00014495336
0.00014483938
0.00014471991
0.00014459467
0.0001444634
0.00014432582
0.00014418171
0.00014403083
0.00014387298
0.00014370801
0.00014353578
0.00014335621
0.00014316925
0.00014297492
0.00014277329
0.0001425645
0.00014234874
0.00014212636
0.00014189772
0.00014166333
0.00014142391
0.00014118024
0.00014093344
0.00014068462
0.00014043546
0.00014018825
0.00013994494
0.00013970967
0.00013948367
0.00013927564
0.00013909057
0.00013893607
0.00013882208
0.00013876215
0.00013877716
0.00013889124
0.00013914012
0.0001395705
0.00014025456
0.00014129389
0.00014284195
0.00014513268
0.00014853999
0.0001536583
0.00016144371
0.00017340062
0.00019178111
0.00021962357
0.00026034541
0.00031668459
0.0003894385
0.00047693644
0.00057572764
0.00068188158
0.00079195491
0.00090330621
0.0010140124
0.0011228606
0.0012284078
0.0013329048
0.0014219758
0.0015684368
0.00014713829
0.0001471109
0.00014708274
0.0001470538
0.00014702403
0.0001469934
0.00014696187
0.0001469294
0.00014689593
0.00014686141
0.00014682578
0.00014678896
0.00014675087
0.00014671143
0.00014667058
0.00014662822
0.0001465843
0.00014653874
0.00014649147
0.00014644244
0.00014639158
0.00014633884
0.00014628413
0.00014622739
0.00014616854
0.00014610747
0.0001460441
0.00014597832
0.00014591
0.00014583902
0.00014576524
0.00014568852
0.00014560869
0.00014552557
0.00014543898
0.00014534869
0.00014525449
0.00014515614
0.00014505338
0.00014494596
0.00014483362
0.00014471609
0.00014459311
0.0001444644
0.00014432971
0.00014418879
0.0001440414
0.00014388735
0.00014372643
0.00014355848
0.00014338339
0.00014320105
0.00014301142
0.00014281452
0.00014261038
0.00014239914
0.00014218098
0.00014195618
0.00014172512
0.00014148829
0.00014124635
0.00014100001
0.00014075027
0.00014049851
0.00014024606
0.00013999528
0.00013974746
0.0001395067
0.00013927676
0.0001390621
0.00013886823
0.00013870315
0.0001385762
0.00013849997
0.00013849354
0.00013857843
0.00013878653
0.00013916138
0.00013976468
0.00014068524
0.00014205616
0.00014408002
0.00014707283
0.00015153693
0.00015827043
0.00016854145
0.00018428843
0.00020823234
0.00024364374
0.00029351609
0.00035933593
0.00044026545
0.00053344941
0.00063516806
0.00074188783
0.00085091834
0.00095956651
0.0010694694
0.0011641922
0.001323026
0.00014718025
0.00014715316
0.00014712531
0.00014709668
0.00014706725
0.00014703696
0.00014700579
0.00014697369
0.00014694061
0.00014690649
0.00014687127
0.00014683489
0.00014679726
0.00014675832
0.00014671799
0.0001466762
0.00014663288
0.00014658796
0.00014654138
0.00014649308
0.000146443
0.00014639108
0.00014633727
0.00014628151
0.00014622371
0.00014616382
0.00014610175
0.0001460374
0.0001459707
0.00014590154
0.0001458298
0.00014575536
0.0001456781
0.00014559785
0.00014551446
0.00014542775
0.00014533752
0.00014524355
0.00014514563
0.00014504352
0.00014493699
0.00014482577
0.00014470962
0.00014458828
0.00014446149
0.00014432899
0.00014419054
0.0001440459
0.00014389484
0.00014373717
0.00014357268
0.00014340124
0.0001432227
0.00014303699
0.00014284403
0.00014264384
0.00014243646
0.00014222199
0.00014200061
0.00014177258
0.00014153828
0.00014129814
0.00014105275
0.00014080295
0.00014054961
0.00014029413
0.00014003759
0.00013978211
0.0001395302
0.0001392847
0.00013904897
0.0001388276
0.00013862605
0.00013845201
0.00013831435
0.00013822484
0.00013820092
0.00013826329
0.00013844082
0.00013877313
0.00013931617
0.00014015074
0.0001413962
0.00014323323
0.00014593855
0.0001499485
0.00015595739
0.00016507026
0.00017899391
0.0002001821
0.00023172158
0.00027668672
0.00033699872
0.00041246428
0.00050074628
0.00059853919
0.00070166505
0.00081063487
0.00090651613
0.0010732245
0.00014722324
0.00014719648
0.00014716896
0.00014714067
0.00014711159
0.00014708167
0.00014705088
0.00014701917
0.00014698649
0.00014695279
0.00014691801
0.00014688209
0.00014684495
0.00014680652
0.00014676674
0.00014672554
0.00014668283
0.00014663857
0.00014659269
0.00014654513
0.00014649583
0.00014644474
0.00014639181
0.00014633698
0.00014628019
0.00014622137
0.00014616046
0.00014609739
0.00014603208
0.00014596445
0.00014589441
0.00014582186
0.00014574669
0.00014566877
0.00014558798
0.00014550414
0.00014541711
0.00014532668
0.00014523267
0.00014513487
0.00014503306
0.00014492701
0.00014481649
0.00014470125
0.00014458105
0.00014445564
0.00014432476
0.00014418817
0.00014404564
0.00014389692
0.0001437418
0.00014358008
0.00014341158
0.00014323614
0.00014305363
0.00014286397
0.00014266709
0.00014246297
0.00014225167
0.00014203328
0.00014180796
0.00014157597
0.00014133763
0.00014109342