/*--------------------------------*- C++ -*----------------------------------*\
  =========                 |
  \\      /  F ield         | OpenFOAM: The Open Source CFD Toolbox
   \\    /   O peration     | Website:  https://openfoam.org
    \\  /    A nd           | Version:  12
     \\/     M anipulation  |
\*---------------------------------------------------------------------------*/
FoamFile
{
    format      ascii;
    class       volScalarField;
    location    "1200";
    object      nut;
}
// * * * * * * * * * * * * * * * * * * * * * * * * * * * * * * * * * * * * * //

dimensions      [0 2 -1 0 0 0 0];

internalField   nonuniform List<scalar> 
7480
(
1.2582452e-06
1.5153004e-06
1.8366209e-06
2.2119111e-06
2.6393932e-06
3.1155901e-06
3.6327554e-06
4.1782638e-06
4.7351914e-06
5.2832847e-06
5.8010371e-06
6.2693878e-06
6.673774e-06
7.0054883e-06
7.2617248e-06
7.4459412e-06
7.5606361e-06
7.6385829e-06
7.6358267e-06
7.6137097e-06
7.5652316e-06
7.4976654e-06
7.4178575e-06
7.3317839e-06
7.2446244e-06
7.1608872e-06
7.08447e-06
7.01856e-06
6.9655158e-06
6.9264919e-06
6.9009187e-06
6.8863179e-06
6.8786812e-06
6.8735238e-06
6.867186e-06
6.8576467e-06
6.8445527e-06
6.8286527e-06
6.8110172e-06
6.7924487e-06
6.7732947e-06
6.7535879e-06
6.7333076e-06
6.7125567e-06
6.6915623e-06
6.6705687e-06
6.6497389e-06
6.6291343e-06
6.6087603e-06
6.5886156e-06
6.5687079e-06
6.5490426e-06
6.5296228e-06
6.5104445e-06
6.4915011e-06
6.4727878e-06
6.454301e-06
6.4360343e-06
6.4179809e-06
6.4001403e-06
6.3825066e-06
6.3650698e-06
6.3478221e-06
6.3307581e-06
6.3138732e-06
6.2971639e-06
6.2806265e-06
6.2642566e-06
6.2480505e-06
6.2320042e-06
6.2161134e-06
6.2003745e-06
6.1847841e-06
6.1693385e-06
6.1540341e-06
6.1388677e-06
6.1238363e-06
6.1089369e-06
6.0941666e-06
6.0795227e-06
6.0650023e-06
6.0506027e-06
6.0363213e-06
6.0221555e-06
6.0081027e-06
5.9941601e-06
5.9803253e-06
5.9665953e-06
5.9529677e-06
5.9394384e-06
5.9260056e-06
5.9126619e-06
5.8994105e-06
5.8862237e-06
5.8731394e-06
5.8600248e-06
5.8471191e-06
5.8336075e-06
5.8221727e-06
5.8010301e-06
2.3485794e-05
1.1851707e-05
7.3474276e-06
4.9098971e-06
3.4007026e-06
2.4281831e-06
1.8086724e-06
1.4316901e-06
1.2214995e-06
1.1292359e-06
1.1275172e-06
1.1890818e-06
1.2937863e-06
1.4314563e-06
1.5939699e-06
1.7744658e-06
1.9692256e-06
2.175747e-06
2.3997083e-06
2.6503437e-06
2.9438342e-06
3.3139798e-06
3.7840089e-06
4.3214378e-06
4.9239251e-06
5.5957901e-06
6.335101e-06
7.141585e-06
8.0008631e-06
8.8790119e-06
9.732193e-06
1.0516339e-05
1.1195534e-05
1.1756907e-05
1.2213578e-05
1.2592074e-05
1.2919325e-05
1.3213352e-05
1.3480311e-05
1.3718589e-05
1.3925761e-05
1.4103236e-05
1.4256834e-05
1.4393939e-05
1.4520143e-05
1.4638069e-05
1.4748082e-05
1.4849904e-05
1.4943972e-05
1.5031353e-05
1.5113018e-05
1.5189534e-05
1.5261112e-05
1.5327948e-05
1.5390361e-05
1.5448675e-05
1.5503112e-05
1.555383e-05
1.5601045e-05
1.5645052e-05
1.5685872e-05
1.5723583e-05
1.5758322e-05
1.5790227e-05
1.5819441e-05
1.5846095e-05
1.5870296e-05
1.5892154e-05
1.5911772e-05
1.5929243e-05
1.594466e-05
1.5958117e-05
1.5969691e-05
1.5979471e-05
1.5987543e-05
1.5993987e-05
1.5998881e-05
1.6002294e-05
1.6004298e-05
1.6004957e-05
1.6004336e-05
1.6002495e-05
1.5999492e-05
1.5995382e-05
1.5990217e-05
1.5984047e-05
1.5976922e-05
1.5968887e-05
1.5959986e-05
1.5950258e-05
1.5939745e-05
1.59285e-05
1.5916534e-05
1.5903946e-05
1.5890627e-05
1.5876944e-05
1.5862243e-05
1.5847534e-05
1.5833914e-05
1.5804568e-05
0.00010785902
6.5796443e-05
4.4401594e-05
3.1935818e-05
2.3695444e-05
1.7815377e-05
1.346185e-05
1.0204467e-05
7.7764736e-06
5.9805555e-06
4.6598654e-06
3.6852278e-06
2.9596489e-06
2.4159809e-06
2.0071132e-06
1.6984148e-06
1.4661393e-06
1.2904672e-06
1.1592292e-06
1.0632013e-06
9.9572804e-07
9.549982e-07
9.3422127e-07
9.7448488e-07
1.0870654e-06
1.2765905e-06
1.5561599e-06
1.9159138e-06
2.3730717e-06
2.9740097e-06
3.8057548e-06
4.8432855e-06
6.0345381e-06
7.3253459e-06
8.6672672e-06
9.9892248e-06
1.1222291e-05
1.2321519e-05
1.3274419e-05
1.4097441e-05
1.4823427e-05
1.5485124e-05
1.6103607e-05
1.6685386e-05
1.7228103e-05
1.7728528e-05
1.8187957e-05
1.8612573e-05
1.9009415e-05
1.9383265e-05
1.9736154e-05
2.0068933e-05
2.0382769e-05
2.0679402e-05
2.0960537e-05
2.1227391e-05
2.1480795e-05
2.1721505e-05
2.1950258e-05
2.2167578e-05
2.2374186e-05
2.257068e-05
2.2757585e-05
2.293537e-05
2.3104457e-05
2.3265236e-05
2.3418059e-05
2.3563258e-05
2.3701143e-05
2.3832002e-05
2.395611e-05
2.4073735e-05
2.4185124e-05
2.4290523e-05
2.4390164e-05
2.4484275e-05
2.4573073e-05
2.4656767e-05
2.4735557e-05
2.4809636e-05
2.487919e-05
2.4944396e-05
2.5005427e-05
2.5062446e-05
2.5115612e-05
2.5165077e-05
2.5210989e-05
2.525349e-05
2.5292715e-05
2.5328816e-05
2.5361907e-05
2.5392127e-05
2.5419551e-05
2.5444414e-05
2.5466563e-05
2.5486781e-05
2.5503628e-05
2.5520978e-05
2.5531221e-05
2.5546479e-05
0.00017146664
0.00013740794
0.00010853141
8.6972126e-05
7.0782437e-05
5.8225348e-05
4.8198644e-05
4.0042264e-05
3.3352376e-05
2.7859407e-05
2.336057e-05
1.9682761e-05
1.6675004e-05
1.4211509e-05
1.2190558e-05
1.0528671e-05
9.1597013e-06
8.0273089e-06
7.0865588e-06
6.299644e-06
5.6350656e-06
5.0645705e-06
4.5634626e-06
4.1139292e-06
3.7023739e-06
3.321394e-06
2.964974e-06
2.6284769e-06
2.3179267e-06
2.0469974e-06
1.8311594e-06
1.6987878e-06
1.7529882e-06
2.0266691e-06
2.4818096e-06
3.1544201e-06
4.1251842e-06
5.4058436e-06
6.877101e-06
8.4570009e-06
1.0062069e-05
1.1601959e-05
1.3015171e-05
1.4280066e-05
1.5411316e-05
1.6443276e-05
1.7409091e-05
1.8327349e-05
1.920117e-05
2.0026736e-05
2.0802316e-05
2.1531631e-05
2.2221297e-05
2.2876839e-05
2.3501135e-05
2.4095594e-05
2.4661779e-05
2.5201761e-05
2.5717526e-05
2.621051e-05
2.6681893e-05
2.7132828e-05
2.7564434e-05
2.7977712e-05
2.837353e-05
2.8752684e-05
2.9115904e-05
2.9463862e-05
2.9797178e-05
3.0116426e-05
3.042215e-05
3.0714861e-05
3.0995044e-05
3.1263158e-05
3.1519641e-05
3.1764916e-05
3.1999386e-05
3.222344e-05
3.243745e-05
3.2641777e-05
3.2836765e-05
3.3022747e-05
3.3200042e-05
3.3368959e-05
3.3529796e-05
3.3682839e-05
3.3828369e-05
3.3966655e-05
3.4097958e-05
3.4222542e-05
3.4340647e-05
3.4452532e-05
3.4558372e-05
3.465854e-05
3.4752911e-05
3.4842618e-05
3.4925428e-05
3.5008837e-05
3.5071284e-05
3.5180029e-05
0.00019360659
0.00017876077
0.00015962914
0.00014057235
0.00012337306
0.00010834066
9.5278229e-05
8.3899477e-05
7.3956599e-05
6.5258572e-05
5.7657607e-05
5.10292e-05
4.5259985e-05
4.0245305e-05
3.5890499e-05
3.2110654e-05
2.883062e-05
2.5982813e-05
2.3506945e-05
2.1350322e-05
1.9466631e-05
1.7813399e-05
1.6352454e-05
1.5048981e-05
1.3871866e-05
1.2792278e-05
1.1783749e-05
1.0821855e-05
9.8800536e-06
8.9460001e-06
7.9856384e-06
7.0254789e-06
6.0580494e-06
5.1515857e-06
4.3256769e-06
3.6246902e-06
3.0810449e-06
2.7185061e-06
2.7001725e-06
2.9827867e-06
3.5620507e-06
4.4903299e-06
5.8139999e-06
7.3884704e-06
9.1141846e-06
1.0885252e-05
1.2602525e-05
1.4204943e-05
1.5676654e-05
1.7036578e-05
1.83161e-05
1.9538751e-05
2.071237e-05
2.1834635e-05
2.2902978e-05
2.3919726e-05
2.4890462e-05
2.5820101e-05
2.6711345e-05
2.7565759e-05
2.8385133e-05
2.9171599e-05
2.992709e-05
3.0653149e-05
3.1351133e-05
3.2022342e-05
3.2667984e-05
3.3289136e-05
3.3886782e-05
3.4461841e-05
3.5015169e-05
3.5547568e-05
3.6059788e-05
3.6552537e-05
3.7026485e-05
3.7482271e-05
3.7920507e-05
3.834178e-05
3.874665e-05
3.9135658e-05
3.9509324e-05
3.9868146e-05
4.0212608e-05
4.0543175e-05
4.0860297e-05
4.1164412e-05
4.1455943e-05
4.1735303e-05
4.2002889e-05
4.2259101e-05
4.2504309e-05
4.2738909e-05
4.2963195e-05
4.3177685e-05
4.3382302e-05
4.3578554e-05
4.3763217e-05
4.3948625e-05
4.4092988e-05
4.434739e-05
0.00020018146
0.00019516198
0.0001863418
0.00017496843
0.0001625093
0.00014997679
0.00013790635
0.00012653172
0.00011593413
0.00010612815
9.710191e-05
8.8831589e-05
8.1285044e-05
7.4423254e-05
6.8202422e-05
6.2575834e-05
5.7497481e-05
5.2921239e-05
4.8801799e-05
4.5095453e-05
4.1760716e-05
3.8757892e-05
3.6049283e-05
3.3598668e-05
3.1371386e-05
2.9333671e-05
2.7453701e-05
2.570096e-05
2.4043984e-05
2.2458778e-05
2.0912206e-05
1.9375943e-05
1.7820823e-05
1.6242231e-05
1.4609842e-05
1.2972176e-05
1.1302602e-05
9.645047e-06
8.0856098e-06
6.6848196e-06
5.4996815e-06
4.5894095e-06
3.9550047e-06
3.7805559e-06
3.9930769e-06
4.6016213e-06
5.6682669e-06
7.1352348e-06
8.8536232e-06
1.0717699e-05
1.2607813e-05
1.4436869e-05
1.6163979e-05
1.779045e-05
1.9338828e-05
2.0829545e-05
2.2269799e-05
2.3657321e-05
2.4989769e-05
2.6269207e-05
2.7500113e-05
2.8686049e-05
2.982899e-05
3.0930515e-05
3.1992523e-05
3.3016956e-05
3.4005465e-05
3.4959464e-05
3.5880298e-05
3.6769244e-05
3.7627476e-05
3.8456076e-05
3.9256062e-05
4.0028391e-05
4.0773962e-05
4.1493633e-05
4.2188217e-05
4.2858495e-05
4.3505212e-05
4.4129084e-05
4.4730797e-05
4.5311016e-05
4.5870378e-05
4.6409504e-05
4.6928994e-05
4.7429429e-05
4.7911377e-05
4.837539e-05
4.8822005e-05
4.9251753e-05
4.9665139e-05
5.0062694e-05
5.0444834e-05
5.0812225e-05
5.1164838e-05
5.1504603e-05
5.1827056e-05
5.2150652e-05
5.2407259e-05
5.2860024e-05
0.00020253762
0.00020099162
0.00019765178
0.00019232845
0.00018533849
0.00017720722
0.00016843072
0.00015938519
0.00015032786
0.00014142802
0.00013279726
0.00012451016
0.00011661602
0.00010914551
0.00010211465
9.5527945e-05
8.9381347e-05
8.3664276e-05
7.8361211e-05
7.3452931e-05
6.8917682e-05
6.4732039e-05
6.0871539e-05
5.7310967e-05
5.4024532e-05
5.0986369e-05
4.8167998e-05
4.554057e-05
4.3076172e-05
4.0748258e-05
3.8528294e-05
3.6386224e-05
3.4288152e-05
3.2208555e-05
3.0118531e-05
2.8001483e-05
2.5841697e-05
2.3623483e-05
2.1340932e-05
1.9025072e-05
1.6682319e-05
1.4382097e-05
1.2160007e-05
1.0127228e-05
8.3331581e-06
6.8675354e-06
5.7595881e-06
5.1093739e-06
5.0009359e-06
5.360674e-06
6.2387821e-06
7.6109666e-06
9.3112385e-06
1.1228272e-05
1.323223e-05
1.5221681e-05
1.714243e-05
1.8985113e-05
2.0763606e-05
2.249095e-05
2.4169392e-05
2.5795289e-05
2.736698e-05
2.8886605e-05
3.035726e-05
3.1780952e-05
3.3158985e-05
3.4492832e-05
3.5784154e-05
3.7034472e-05
3.8245123e-05
3.9417382e-05
4.0552474e-05
4.1651543e-05
4.271567e-05
4.3745884e-05
4.4743167e-05
4.5708456e-05
4.664265e-05
4.7546611e-05
4.8421167e-05
4.9267119e-05
5.0085241e-05
5.0876282e-05
5.1640973e-05
5.2380022e-05
5.3094123e-05
5.3783952e-05
5.4450169e-05
5.5093429e-05
5.5714356e-05
5.6313604e-05
5.6891706e-05
5.7449465e-05
5.7986893e-05
5.8506377e-05
5.9001982e-05
5.9499453e-05
5.9898725e-05
6.0602138e-05
0.0002039371
0.00020341432
0.00020224401
0.00020009416
0.00019680839
0.00019242651
0.00018711613
0.00018109173
0.0001745614
0.00016770423
0.00016066645
0.00015356539
0.00014649477
0.00013952908
0.00013272675
0.0001261326
0.0001197799
0.00011369217
0.00010788478
0.0001023662
9.7139097e-05
9.2201543e-05
8.7547863e-05
8.3169269e-05
7.9054277e-05
7.5189397e-05
7.1558517e-05
6.8143204e-05
6.4923578e-05
6.187896e-05
5.8987533e-05
5.6226091e-05
5.3568815e-05
5.0990362e-05
4.8464302e-05
4.5970164e-05
4.346463e-05
4.0923427e-05
3.8328401e-05
3.5669304e-05
3.2936105e-05
3.0116511e-05
2.7267357e-05
2.4363245e-05
2.1449696e-05
1.8591329e-05
1.583393e-05
1.3262651e-05
1.0981708e-05
9.0645155e-06
7.5794369e-06
6.6047395e-06
6.2749055e-06
6.4950559e-06
7.3219047e-06
8.6798922e-06
1.0419e-05
1.2412267e-05
1.4524778e-05
1.6650644e-05
1.8734765e-05
2.0765884e-05
2.2750665e-05
2.4692556e-05
2.6587861e-05
2.8432229e-05
3.0224904e-05
3.1967376e-05
3.3660962e-05
3.5306463e-05
3.6904823e-05
3.8457237e-05
3.9964884e-05
4.142886e-05
4.2850248e-05
4.4230121e-05
4.5569514e-05
4.6869424e-05
4.8130821e-05
4.9354642e-05
5.0541794e-05
5.1693162e-05
5.2809603e-05
5.3891954e-05
5.4941034e-05
5.5957643e-05
5.6942564e-05
5.7896569e-05
5.8820411e-05
5.9714841e-05
6.0580582e-05
6.1418385e-05
6.2228882e-05
6.3012993e-05
6.3770753e-05
6.4505029e-05
6.520821e-05
6.5914352e-05
6.6486411e-05
6.7491878e-05
0.00020527079
0.00020500524
0.0002045428
0.00020370194
0.00020230384
0.00020022861
0.00019743616
0.00019395557
0.00018986062
0.00018524628
0.00018021259
0.00017485584
0.00016926468
0.00016351867
0.00015768808
0.00015183398
0.00014600862
0.00014025597
0.00013461236
0.00012910708
0.00012376302
0.00011859742
0.00011362258
0.00010884639
0.00010427278
9.990224e-05
9.5731993e-05
9.1756067e-05
8.7965688e-05
8.4349755e-05
8.0895175e-05
7.758703e-05
7.4408138e-05
7.1339899e-05
6.8361847e-05
6.5455644e-05
6.2594452e-05
5.9751777e-05
5.6904001e-05
5.4031048e-05
5.1115217e-05
4.8134768e-05
4.5074174e-05
4.192533e-05
3.8686984e-05
3.5372588e-05
3.199318e-05
2.8585437e-05
2.5195191e-05
2.1873798e-05
1.8683264e-05
1.5706806e-05
1.3067869e-05
1.0851917e-05
9.1218392e-06
8.0307005e-06
7.6287447e-06
7.8766579e-06
8.8099733e-06
1.0263566e-05
1.2126637e-05
1.4250482e-05
1.6493633e-05
1.8758955e-05
2.1003084e-05
2.3216568e-05
2.5397684e-05
2.7540829e-05
2.9639253e-05
3.1689454e-05
3.3690784e-05
3.5643217e-05
3.7546668e-05
3.940137e-05
4.1207912e-05
4.2966996e-05
4.4679366e-05
4.634582e-05
4.7967193e-05
4.9544326e-05
5.1078066e-05
5.256926e-05
5.401875e-05
5.5427375e-05
5.6795965e-05
5.8125345e-05
5.9416331e-05
6.0669735e-05
6.1886357e-05
6.3067e-05
6.4212444e-05
6.5323504e-05
6.6400878e-05
6.744557e-05
6.8457614e-05
6.9440362e-05
7.0384348e-05
7.1332807e-05
7.2107164e-05
7.3464905e-05
0.0002067453
0.00020653369
0.00020626749
0.00020587802
0.00020526721
0.0002043313
0.00020298403
0.00020117071
0.00019887107
0.0001960943
0.00019287094
0.00018924505
0.00018526815
0.0001809949
0.00017648026
0.00017177758
0.00016693729
0.0001620061
0.00015702647
0.00015203635
0.000147069
0.00014215314
0.00013731314
0.00013256918
0.00012793747
0.00012343046
0.00011905709
0.00011482288
0.00011073003
0.00010677775
0.00010296254
9.9278517e-05
9.5717391e-05
9.2268827e-05
8.8920252e-05
8.5658682e-05
8.2467701e-05
7.9328096e-05
7.6219694e-05
7.3122722e-05
7.0018351e-05
6.6887299e-05
6.3708949e-05
6.0466658e-05
5.7146508e-05
5.3744943e-05
5.0256253e-05
4.6662089e-05
4.297127e-05
3.9207759e-05
3.5382977e-05
3.1546683e-05
2.7751944e-05
2.406084e-05
2.0529293e-05
1.7278589e-05
1.4422262e-05
1.2072797e-05
1.0288982e-05
9.3213972e-06
9.049223e-06
9.5435765e-06
1.0698238e-05
1.2385579e-05
1.4460872e-05
1.6761788e-05
1.9159366e-05
2.1581113e-05
2.3998325e-05
2.6399322e-05
2.8773639e-05
3.1111354e-05
3.3406219e-05
3.5655275e-05
3.7856821e-05
4.0009641e-05
4.211312e-05
4.4167124e-05
4.6171774e-05
4.8127362e-05
5.0034327e-05
5.1893203e-05
5.3704597e-05
5.5469162e-05
5.7187593e-05
5.8860609e-05
6.0488953e-05
6.2073381e-05
6.361466e-05
6.5113574e-05
6.6570898e-05
6.798745e-05
6.9363947e-05
7.070143e-05
7.1999894e-05
7.3263154e-05
7.4479743e-05
7.5702803e-05
7.6708084e-05
7.8466863e-05
0.00020839926
0.00020819592
0.00020797564
0.00020771926
0.00020738746
0.00020692521
0.00020627022
0.00020536298
0.00020415494
0.00020261303
0.00020072065
0.00019847614
0.00019589018
0.00019298287
0.0001897811
0.00018631632
0.00018262268
0.00017873552
0.00017469023
0.00017052127
0.00016626147
0.00016194151
0.00015758966
0.00015323144
0.00014888954
0.0001445837
0.00014033067
0.00013614422
0.00013203511
0.00012801112
0.00012407725
0.00012023588
0.00011648696
0.00011282814
0.00010925479
0.00010576072
0.00010233749
9.8973983e-05
9.5656825e-05
9.2371197e-05
8.9101497e-05
8.5831645e-05
8.2544036e-05
7.922131e-05
7.5846783e-05
7.2407754e-05
6.8894235e-05
6.5289821e-05
6.1585783e-05
5.7782719e-05
5.3882581e-05
4.9879852e-05
4.57822e-05
4.160959e-05
3.7399543e-05
3.3194911e-05
2.9061926e-05
2.5084673e-05
2.1321736e-05
1.7950277e-05
1.5070373e-05
1.2762989e-05
1.1260253e-05
1.0558974e-05
1.0687368e-05
1.1578048e-05
1.3108164e-05
1.5133647e-05
1.7475796e-05
1.9983582e-05
2.2562926e-05
2.5168185e-05
2.7776495e-05
3.0370939e-05
3.2937849e-05
3.5468241e-05
3.7956816e-05
4.0400053e-05
4.2795478e-05
4.5141523e-05
4.7437277e-05
4.9682242e-05
5.1876231e-05
5.401929e-05
5.6111638e-05
5.8153621e-05
6.0145685e-05
6.2088354e-05
6.398221e-05
6.5827888e-05
6.7626052e-05
6.937743e-05
7.1082676e-05
7.2742794e-05
7.4357681e-05
7.5931578e-05
7.7450865e-05
7.8979216e-05
8.0242889e-05
8.2449723e-05
0.00021023766
0.0002100343
0.00020982237
0.00020959934
0.00020935275
0.00020906014
0.00020868987
0.00020820402
0.00020756266
0.00020672826
0.00020566909
0.00020436139
0.00020279012
0.00020094877
0.00019883864
0.00019646767
0.0001938493
0.00019100125
0.00018794441
0.00018470182
0.00018129775
0.00017775698
0.00017410411
0.00017036311
0.00016655679
0.0001627065
0.00015883182
0.00015495037
0.0001510776
0.00014722665
0.00014340835
0.00013963123
0.0001359016
0.00013222364
0.00012859945
0.00012502923
0.00012151124
0.00011804146
0.00011461352
0.00011121893
0.00010784747
0.00010448768
0.00010112658
9.7750073e-05
9.4343349e-05
9.0892319e-05
8.7384725e-05
8.3806293e-05
8.0143673e-05
7.6386973e-05
7.2530981e-05
6.8568263e-05
6.4493949e-05
6.0296409e-05
5.6014886e-05
5.1621775e-05
4.713447e-05
4.2599216e-05
3.8036851e-05
3.3523585e-05
2.9154272e-05
2.4982565e-05
2.1169986e-05
1.7855771e-05
1.5138239e-05
1.3241076e-05
1.2212786e-05
1.2080023e-05
1.2782208e-05
1.421732e-05
1.6230888e-05
1.863021e-05
2.1250724e-05
2.3984813e-05
2.6774097e-05
2.9585503e-05
3.2395534e-05
3.5186769e-05
3.7947637e-05
4.0670642e-05
4.3350561e-05
4.5983721e-05
4.8567632e-05
5.1100622e-05
5.3581594e-05
5.6009885e-05
5.8385154e-05
6.0707304e-05
6.2976425e-05
6.5192754e-05
6.7356639e-05
6.9468548e-05
7.1528935e-05
7.3538641e-05
7.5497372e-05
7.7409711e-05
7.9259738e-05
8.1122174e-05
8.2670222e-05
8.537003e-05
0.00021226092
0.00021205651
0.00021184507
0.0002116286
0.00021140417
0.00021116422
0.00021089587
0.00021058065
0.00021019536
0.00020971377
0.00020910876
0.0002083545
0.00020742819
0.00020631132
0.00020499038
0.00020345705
0.00020170816
0.00019974522
0.00019757398
0.00019520378
0.00019264691
0.00018991792
0.0001870331
0.00018400982
0.00018086602
0.00017761977
0.0001742888
0.00017089016
0.00016743989
0.00016395278
0.0001604421
0.00015691957
0.00015339527
0.00014987762
0.00014637334
0.00014288754
0.00013942359
0.00013598304
0.00013256535
0.00012916793
0.0001257862
0.00012241385
0.00011904294
0.00011566396
0.00011226601
0.00010883736
0.00010536655
0.00010184131
9.8248818e-05
9.4576898e-05
9.0815698e-05
8.6955579e-05
8.2987934e-05
7.8899481e-05
7.4698411e-05
7.0377305e-05
6.5914016e-05
6.136035e-05
5.6674898e-05
5.190657e-05
4.7069031e-05
4.2189999e-05
3.7337981e-05
3.2612679e-05
2.8091801e-05
2.3930869e-05
2.0285252e-05
1.7262251e-05
1.5113389e-05
1.3874994e-05
1.3598753e-05
1.4216403e-05
1.5650251e-05
1.7718357e-05
2.0216182e-05
2.2972686e-05
2.5874069e-05
2.8854002e-05
3.1871627e-05
3.4898147e-05
3.7913157e-05
4.0902938e-05
4.3858119e-05
4.6772044e-05
4.9639994e-05
5.2458642e-05
5.5225642e-05
5.7939362e-05
6.0598704e-05
6.3202976e-05
6.5751786e-05
6.824501e-05
7.0682631e-05
7.3065108e-05
7.539178e-05
7.7667429e-05
7.9873642e-05
8.2096615e-05
8.3953113e-05
8.7188228e-05
0.00021446955
0.0002142641
0.00021405182
0.00021383576
0.00021361574
0.00021338963
0.00021315296
0.00021289828
0.00021261472
0.00021228808
0.00021190139
0.00021143587
0.00021087212
0.00021019125
0.00020937596
0.00020841132
0.0002072854
0.00020598951
0.00020451842
0.00020287021
0.00020104616
0.00019905039
0.00019688955
0.0001945724
0.00019210943
0.0001895124
0.00018679397
0.00018396728
0.00018104561
0.000178042
0.00017496906
0.00017183866
0.00016866183
0.00016544861
0.00016220799
0.00015894781
0.00015567463
0.00015239368
0.00014910856
0.00014582117
0.00014253163
0.00013923834
0.00013593802
0.00013262574
0.00012929497
0.00012593777
0.00012254538
0.00011910821
0.00011561574
0.00011205688
0.00010842109
0.00010469803
0.00010087793
9.6948374e-05
9.2904182e-05
8.8739609e-05
8.4438146e-05
8.0011491e-05
7.5443967e-05
7.0736742e-05
6.5909138e-05
6.0951385e-05
5.5896227e-05
5.0771464e-05
4.5593027e-05
4.0436075e-05
3.540299e-05
3.0584491e-05
2.615745e-05
2.226975e-05
1.9053717e-05
1.6795682e-05
1.548108e-05
1.5182424e-05
1.5855662e-05
1.7392989e-05
1.9591538e-05
2.223981e-05
2.5166446e-05
2.8257196e-05
3.144184e-05
3.4674483e-05
3.7922922e-05
4.1164828e-05
4.4384915e-05
4.7572432e-05
5.0719674e-05
5.3821107e-05
5.6872733e-05
5.9871665e-05
6.2815829e-05
6.5703784e-05
6.8534491e-05
7.1307587e-05
7.4021703e-05
7.668155e-05
7.9265928e-05
8.1872835e-05
8.4059325e-05
8.7868763e-05
0.00021686447
0.000216658
0.0002164447
0.00021622783
0.00021600789
0.00021578437
0.00021555588
0.00021531977
0.00021507171
0.00021480524
0.0002145117
0.00021418025
0.00021379828
0.0002133519
0.00021282668
0.00021220825
0.00021148305
0.00021063884
0.00020966514
0.00020855362
0.00020729821
0.00020589522
0.0002043433
0.00020264334
0.00020079826
0.00019881281
0.00019669328
0.00019444721
0.0001920831
0.00018961009
0.00018703769
0.00018437554
0.00018163322
0.00017882005
0.00017594495
0.00017301631
0.00017004186
0.00016702848
0.00016398204
0.00016090717
0.0001578072
0.00015468399
0.00015153798
0.00014836809
0.00014517171
0.00014194472
0.00013868175
0.0001353763
0.00013202079
0.00012860661
0.00012512467
0.00012156556
0.00011791992
0.00011417684
0.00011032734
0.00010636384
0.00010227348
9.8052971e-05
9.3692407e-05
8.9185167e-05
8.4533131e-05
7.9719591e-05
7.4770464e-05
6.9675957e-05
6.4443522e-05
5.9099482e-05
5.3692345e-05
4.8230247e-05
4.2796862e-05
3.7498043e-05
3.2431416e-05
2.7821405e-05
2.3780158e-05
2.0522704e-05
1.8246873e-05
1.7007289e-05
1.6836422e-05
1.7707298e-05
1.9457505e-05
2.1867112e-05
2.4722828e-05
2.7859331e-05
3.1166712e-05
3.4574294e-05
3.8034103e-05
4.1512687e-05
4.4986929e-05
4.844067e-05
5.1862358e-05
5.5243649e-05
5.8578464e-05
6.1862358e-05
6.509202e-05
6.8265326e-05
7.1379483e-05
7.4438593e-05
7.7418161e-05
8.0428137e-05
8.2962656e-05
8.7380946e-05
0.00021944671
0.0002192392
0.00021902484
0.00021880696
0.00021858616
0.00021836236
0.0002181351
0.00021790351
0.00021766599
0.00021741997
0.00021716164
0.00021688569
0.00021658531
0.00021625219
0.00021587677
0.00021544851
0.00021495635
0.00021438909
0.00021373585
0.00021298647
0.00021213186
0.00021116424
0.00021007742
0.00020886683
0.00020752964
0.00020606469
0.00020447246
0.00020275488
0.0002009152
0.00019895778
0.00019688792
0.00019471159
0.00019243533
0.00019006602
0.00018761076
0.00018507669
0.00018247086
0.00017980003
0.0001770705
0.00017428793
0.00017145714
0.00016858202
0.00016566534
0.00016270872
0.00015971253
0.00015667577
0.00015359617
0.00015047028
0.00014729343
0.00014405984
0.00014076276
0.0001373947
0.00013394775
0.00013041287
0.00012678102
0.00012304395
0.00011919093
0.00011521414
0.00011110423
0.00010685173
0.00010245161
9.7891415e-05
9.317399e-05
8.8292254e-05
8.3235588e-05
7.8024217e-05
7.2655394e-05
6.7150038e-05
6.152357e-05
5.5828612e-05
5.0095323e-05
4.4416245e-05
3.8884751e-05
3.3648285e-05
2.8913865e-05
2.4829799e-05
2.1677129e-05
1.9530843e-05
1.8507486e-05
1.8640061e-05
1.9837479e-05
2.189909e-05
2.4592012e-05
2.7707727e-05
3.1092442e-05
3.4643698e-05
3.8293033e-05
4.1993146e-05
4.5711179e-05
4.9424197e-05
5.3115894e-05
5.67745e-05
6.0391386e-05
6.3960482e-05
6.7475969e-05
7.0940174e-05
7.4324314e-05
7.7750117e-05
8.0645556e-05
8.5700772e-05
0.0002222174
0.0002220088
0.00022179334
0.00022157437
0.00022135251
0.00022112776
0.00022089992
0.00022066865
0.00022043334
0.00022019303
0.00021994618
0.00021969051
0.0002194228
0.00021913879
0.00021883313
0.00021849938
0.00021813016
0.00021771733
0.0002172522
0.00021672587
0.00021612949
0.00021545454
0.00021469312
0.00021383818
0.00021288367
0.00021182471
0.00021065762
0.00020938
0.00020799067
0.0002064896
0.00020487786
0.00020315747
0.00020133132
0.00019940302
0.00019737683
0.00019525746
0.00019304999
0.00019075971
0.00018839192
0.0001859518
0.0001834442
0.00018087351
0.00017824348
0.00017555714
0.0001728166
0.00017002298
0.00016717631
0.00016427557
0.00016131863
0.00015830224
0.00015522211
0.00015207301
0.00014884892
0.00014554289
0.00014214726
0.00013865438
0.00013505526
0.00013134138
0.00012750373
0.00012353258
0.00011941998
0.00011515489
0.0001107313
0.00010614162
0.0001013759
9.6433137e-05
9.129327e-05
8.6001985e-05
8.0515217e-05
7.4868155e-05
6.9073293e-05
6.3163893e-05
5.7184797e-05
5.1201795e-05
4.5293893e-05
3.9574586e-05
3.4248988e-05
2.9487531e-05
2.5531871e-05
2.2567652e-05
2.0726447e-05
2.0110206e-05
2.0702251e-05
2.2341506e-05
2.4797423e-05
2.7832563e-05
3.1252035e-05
3.4917781e-05
3.8736589e-05
4.2644534e-05
4.6597207e-05
5.0563615e-05
5.4521778e-05
5.8456158e-05
6.2354033e-05
6.6213255e-05
6.9998623e-05
7.3842727e-05
7.7103917e-05
8.2814252e-05
0.00022517766
0.00022496792
0.00022475131
0.00022453118
0.00022430819
0.00022408232
0.00022385345
0.00022362137
0.00022338578
0.00022314628
0.00022290226
0.00022265277
0.00022239645
0.00022213134
0.00022185483
0.00022156349
0.00022125311
0.00022091866
0.00022055433
0.00022015371
0.00021970989
0.00021921567
0.00021866373
0.00021804691
0.00021735833
0.00021659164
0.00021574111
0.00021480181
0.00021376965
0.00021264145
0.00021141493
0.00021008875
0.00020866245
0.0002071364
0.00020551176
0.00020379042
0.00020197486
0.00020006811
0.00019807357
0.00019599489
0.00019383582
0.00019160009
0.00018929121
0.00018691238
0.00018446632
0.00018195511
0.00017938012
0.0001767419
0.0001740401
0.00017127344
0.00016843969
0.00016553567
0.00016255734
0.00015949973
0.000156357
0.00015312283
0.00014978991
0.00014635056
0.00014279662
0.00013911913
0.00013530951
0.0001313577
0.00012725495
0.00012299248
0.00011855972
0.00011394982
0.00010914757
0.00010416286
9.8976805e-05
9.3591617e-05
8.8010987e-05
8.2243022e-05
7.630297e-05
7.0218467e-05
6.4023618e-05
5.7764687e-05
5.1552347e-05
4.5451349e-05
3.9634789e-05
3.4290117e-05
2.9650772e-05
2.5952772e-05
2.3352326e-05
2.2015144e-05
2.19909e-05
2.3169386e-05
2.5338691e-05
2.8247234e-05
3.1666201e-05
3.5421848e-05
3.9393476e-05
4.3498178e-05
4.7678385e-05
5.1894206e-05
5.6115974e-05
6.0330302e-05
6.4490607e-05
6.8737594e-05
7.2355842e-05
7.8723333e-05
0.00022832864
0.0002281177
0.00022789986
0.00022767852
0.00022745433
0.00022722728
0.00022699724
0.00022676404
0.00022652748
0.00022628732
0.00022604327
0.0002257949
0.00022554165
0.00022528269
0.00022501682
0.00022474246
0.00022445745
0.00022415909
0.000223844
0.00022350819
0.00022314707
0.00022275549
0.00022232785
0.00022185825
0.00022134061
0.00022076881
0.00022013688
0.00021943909
0.00021867009
0.00021782506
0.00021689974
0.00021589049
0.00021479442
0.0002136093
0.00021233367
0.00021096678
0.00020950857
0.00020795963
0.0002063211
0.00020459462
0.0002027822
0.0002008861
0.00019890876
0.00019685263
0.00019472004
0.00019251307
0.00019023344
0.00018788233
0.00018546039
0.00018296755
0.00018040297
0.00017776505
0.00017505138
0.00017225871
0.00016938292
0.00016641923
0.00016336198
0.00016020485
0.0001569409
0.0001535624
0.00015006133
0.00014642871
0.00014265552
0.00013873264
0.00013464974
0.00013039783
0.00012596344
0.0001213433
0.00011652536
0.00011150202
0.00010626626
0.00010081483
9.5150566e-05
8.9279055e-05
8.3211615e-05
7.6961902e-05
7.0579262e-05
6.4096729e-05
5.75901e-05
5.1169161e-05
4.4945988e-05
3.9113853e-05
3.3888437e-05
2.9532931e-05
2.6247529e-05
2.4244137e-05
2.3625523e-05
2.4337165e-05
2.6196597e-05
2.8950475e-05
3.2344739e-05
3.6172772e-05
4.0285532e-05
4.4579916e-05
4.8982613e-05
5.3451174e-05
5.7915231e-05
6.2516013e-05
6.6458262e-05
7.3456671e-05
0.00023167148
0.00023145926
0.00023124013
0.00023101751
0.00023079204
0.00023056374
0.00023033246
0.00023009805
0.00022986032
0.00022961907
0.00022937412
0.00022912522
0.0002288721
0.00022861439
0.00022835158
0.00022808296
0.00022780755
0.00022752404
0.00022723068
0.00022692529
0.00022660518
0.00022626713
0.00022590744
0.00022552191
0.00022510598
0.00022465472
0.00022416302
0.00022362563
0.00022303729
0.00022239284
0.00022168735
0.00022091618
0.00022007506
0.0002191602
0.00021816834
0.00021709677
0.00021594339
0.00021470668
0.0002133857
0.00021198006
0.00021048986
0.00020891563
0.00020725825
0.00020551888
0.00020369882
0.0002017994
0.00019982192
0.00019776745
0.0001956368
0.00019343035
0.000191148
0.00018878907
0.00018635227
0.00018383559
0.00018123631
0.00017855102
0.00017577553
0.00017290493
0.00016993362
0.00016685524
0.00016366284
0.00016034868
0.00015690447
0.00015332157
0.00014959038
0.00014570155
0.00014164312
0.00013740684
0.0001329818
0.00012835748
0.00012352336
0.00011847172
0.00011319397
0.00010768564
0.00010194806
9.597846e-05
8.9792704e-05
8.3403914e-05
7.6839776e-05
7.0153029e-05
6.3398761e-05
5.667318e-05
5.0106343e-05
4.3857e-05
3.8132646e-05
3.3194715e-05
2.9298742e-05
2.6692971e-05
2.5523308e-05
2.5788071e-05
2.7339091e-05
2.9929759e-05
3.3288638e-05
3.7180957e-05
4.1428608e-05
4.5915879e-05
5.0517357e-05
5.5354202e-05
5.9540182e-05
6.7090124e-05
0.00023520731
0.00023499375
0.00023477325
0.00023454926
0.00023432245
0.00023409281
0.00023386023
0.00023362453
0.00023338554
0.00023314307
0.00023289695
0.00023264701
0.00023239306
0.00023213491
0.0002318723
0.00023160492
0.00023133235
0.000231054
0.00023076905
0.00023047643
0.00023017472
0.00022986215
0.00022953652
0.00022919522
0.00022883521
0.00022845304
0.0002280449
0.00022760666
0.00022713395
0.0002266222
0.00022606678
0.00022546305
0.00022480645
0.0002240926
0.0002233174
0.00022247704
0.00022156813
0.0002205877
0.00021953324
0.00021840271
0.00021719454
0.00021590761
0.00021454122
0.00021309506
0.00021156909
0.00020996354
0.00020827877
0.00020651518
0.00020467315
0.0002027529
0.0002007544
0.0001986773
0.00019652083
0.00019428374
0.00019196422
0.00018955986
0.00018706764
0.00018448384
0.0001818041
0.00017902335
0.00017613585
0.00017313511
0.00017001398
0.00016676472
0.00016337879
0.00015984733
0.00015615984
0.00015230674
0.00014827747
0.00014406095
0.00013964554
0.00013502055
0.00013017463
0.00012509906
0.00011978466
0.00011422258
0.00010841394
0.00010235759
9.6058309e-05
8.9535055e-05
8.2810631e-05
7.5925955e-05
6.8945153e-05
6.1951528e-05
5.5059869e-05
4.8434709e-05
4.2274193e-05
3.6834885e-05
3.2407979e-05
2.9268087e-05
2.7604324e-05
2.746227e-05
2.8727858e-05
3.116612e-05
3.4492375e-05
3.845726e-05
4.2816955e-05
4.7621879e-05
5.187351e-05
5.9787774e-05
0.00023893727
0.00023872228
0.00023850031
0.00023827488
0.00023804663
0.0002378156
0.00023758163
0.00023734457
0.00023710424
0.00023686047
0.00023661308