/*--------------------------------*- C++ -*----------------------------------*\
  =========                 |
  \\      /  F ield         | OpenFOAM: The Open Source CFD Toolbox
   \\    /   O peration     | Website:  https://openfoam.org
    \\  /    A nd           | Version:  12
     \\/     M anipulation  |
\*---------------------------------------------------------------------------*/
FoamFile
{
    format      ascii;
    class       volVectorField;
    location    "1200";
    object      U;
}
// * * * * * * * * * * * * * * * * * * * * * * * * * * * * * * * * * * * * * //

dimensions      [0 1 -1 0 0 0 0];

internalField   nonuniform List<vector> 
7480
(
(0.99632636 0.00031129569 0)
(0.99394292 0.00033927373 -4.0700597e-20)
(0.99090947 0.00050878416 0)
(0.98719086 0.00068236545 0)
(0.98270538 0.00086618292 0)
(0.97738354 0.00099362352 -1.6781063e-17)
(0.9711241 0.0010745033 -3.0942379e-19)
(0.96390339 0.0013053028 0)
(0.95566671 0.0015492025 0)
(0.9463951 0.0017843937 0)
(0.93612348 0.0020040609 0)
(0.92492591 0.0021991559 0)
(0.91290821 0.00236086 0)
(0.90020567 0.0024765131 0)
(0.8869672 0.0025647496 0)
(0.87334862 0.0025647186 0)
(0.85952078 0.0025401828 0)
(0.84559793 0.0024676278 0)
(0.83176028 0.0023506611 0)
(0.81812392 0.0022014127 0)
(0.80481184 0.0020218164 0)
(0.79195926 0.0018159021 0)
(0.77972325 0.001594975 0)
(0.76823221 0.0013697865 0)
(0.75758766 0.0011461119 0)
(0.74786952 0.00092995481 0)
(0.73912734 0.00072603863 0)
(0.73138237 0.00054108982 0)
(0.72462057 0.00038239219 0)
(0.71877331 0.00025629559 0)
(0.71372 0.00016824996 0)
(0.70930765 0.0001178722 0)
(0.70536814 9.8873279e-05 0)
(0.70174409 0.0001014712 0)
(0.69831617 0.00011450664 0)
(0.69501108 0.00012859723 0)
(0.69179301 0.00013802956 0)
(0.68864896 0.00014084375 0)
(0.68557223 0.0001387133 0)
(0.68255156 0.00013470776 0)
(0.67957092 0.00013122613 0)
(0.67661533 0.0001291126 0)
(0.67367782 0.00012783615 0)
(0.67076169 0.00012650115 0)
(0.66787548 0.00012455152 0)
(0.66502642 0.00012187069 0)
(0.66221748 0.00011864925 0)
(0.65944876 0.00011514212 0)
(0.65671995 0.0001115332 0)
(0.65403126 0.00010787393 0)
(0.65138313 0.00010417251 0)
(0.64877602 0.0001004444 0)
(0.64621014 9.6745738e-05 0)
(0.64368488 9.3141869e-05 0)
(0.64119925 8.9640743e-05 0)
(0.63875275 8.6230321e-05 0)
(0.63634503 8.2923913e-05 0)
(0.63397523 7.9739805e-05 0)
(0.63164229 7.6664379e-05 0)
(0.62934573 7.3690408e-05 0)
(0.62708467 7.0843493e-05 0)
(0.62485785 6.8115047e-05 0)
(0.62266438 6.5494054e-05 0)
(0.62050339 6.2986776e-05 0)
(0.61837388 6.0579497e-05 0)
(0.61627509 5.8263929e-05 0)
(0.61420623 5.6046298e-05 0)
(0.61216635 5.3917845e-05 0)
(0.61015471 5.1873406e-05 0)
(0.60817049 4.9915885e-05 0)
(0.60621282 4.8038109e-05 0)
(0.60428093 4.6237717e-05 0)
(0.60237403 4.4511879e-05 0)
(0.60049137 4.2856003e-05 0)
(0.59863223 4.1267878e-05 0)
(0.5967959 3.9743402e-05 0)
(0.59498173 3.8280105e-05 0)
(0.59318906 3.6875501e-05 0)
(0.59141727 3.552698e-05 0)
(0.58966573 3.4232109e-05 0)
(0.58793387 3.2988512e-05 0)
(0.58622112 3.1793983e-05 0)
(0.58452691 3.0646457e-05 0)
(0.5828507 2.9544014e-05 0)
(0.58119197 2.8484835e-05 0)
(0.5795502 2.7467278e-05 0)
(0.57792485 2.6489746e-05 0)
(0.57631541 2.5551053e-05 0)
(0.57472137 2.4649798e-05 0)
(0.57314204 2.3785994e-05 0)
(0.5715771 2.295709e-05 0)
(0.57002512 2.2168454e-05 0)
(0.56848693 2.1410429e-05 0)
(0.5669572 2.0715029e-05 0)
(0.56544389 2.0022132e-05 0)
(0.56392129 1.9545337e-05 0)
(0.56243544 1.8318661e-05 -8.5728249e-21)
(0.56085162 3.1861506e-05 7.9708467e-20)
(0.55954511 1.8447905e-05 -2.5042181e-19)
(0.55708618 3.350494e-05 -4.2901226e-18)
(0.99782758 0.00049221027 0)
(0.99772585 0.00072905183 0)
(0.99762589 0.00093038395 0)
(0.99747119 0.0010908051 -5.7820301e-19)
(0.9972629 0.0012406184 0)
(0.99700695 0.0013939597 0)
(0.99668701 0.0015769591 0)
(0.99626394 0.0017698633 0)
(0.99568836 0.0019226064 0)
(0.99490562 0.0020465298 0)
(0.99385055 0.002146646 0)
(0.99244993 0.0022210698 0)
(0.99062889 0.0022688623 0)
(0.98831499 0.0022935798 0)
(0.98544539 0.0022906893 0)
(0.98196552 0.002278771 0)
(0.97783927 0.0022521371 0)
(0.9730285 0.0022145414 0)
(0.96753189 0.002169243 0)
(0.96133711 0.0021208349 0)
(0.95444623 0.0020708526 0)
(0.94685372 0.0020125039 0)
(0.93859782 0.0019332322 0)
(0.92977967 0.0018347602 0)
(0.92049687 0.0017247333 0)
(0.9108637 0.0016040078 0)
(0.90102195 0.001474467 0)
(0.89112516 0.0013368898 0)
(0.88133849 0.0011922619 0)
(0.87183705 0.0010421514 0)
(0.86281965 0.00089500838 0)
(0.85444299 0.00076138274 0)
(0.84677786 0.00064663618 0)
(0.83980706 0.00055547108 0)
(0.83345558 0.0004894281 0)
(0.82761227 0.00044669058 0)
(0.82215908 0.00042240727 0)
(0.81700139 0.00040934869 0)
(0.81207714 0.00040018528 0)
(0.80735132 0.00039015261 0)
(0.80280605 0.00037746795 0)
(0.79842881 0.00036230082 0)
(0.79420608 0.00034546096 0)
(0.79012183 0.00032815533 0)
(0.78615845 0.00031158673 0)
(0.78229917 0.00029637547 0)
(0.77853124 0.000282458 0)
(0.77484785 0.00026947515 0)
(0.77124615 0.00025720981 0)
(0.76772373 0.00024553591 0)
(0.76427681 0.00023440155 0)
(0.76090111 0.00022376473 0)
(0.75759334 0.0002136205 0)
(0.754351 0.00020397766 0)
(0.75117182 0.00019477789 0)
(0.74805382 0.00018597847 0)
(0.74499511 0.00017759201 0)
(0.74199358 0.00016962428 0)
(0.73904717 0.00016203108 0)
(0.73615415 0.00015478532 0)
(0.73331289 0.00014790806 0)
(0.73052159 0.00014136038 0)
(0.72777881 0.0001351178 0)
(0.72508312 0.00012918973 0)
(0.72243289 0.00012354332 0)
(0.71982675 0.00011815964 0)
(0.71726336 0.00011304367 0)
(0.71474124 0.00010817025 0)
(0.71225914 0.00010352527 0)
(0.70981581 9.9108396e-05 0)
(0.70740993 9.4900287e-05 0)
(0.70504029 9.0892517e-05 0)
(0.70270574 8.7075269e-05 0)
(0.70040514 8.3436941e-05 0)
(0.69813738 7.9970368e-05 0)
(0.6959014 7.6664483e-05 0)
(0.69369619 7.3511621e-05 0)
(0.69152077 7.0504073e-05 0)
(0.68937419 6.7634264e-05 0)
(0.68725555 6.4895229e-05 0)
(0.68516398 6.2280277e-05 0)
(0.68309861 5.9783196e-05 0)
(0.68105864 5.7398161e-05 0)
(0.67904326 5.511975e-05 0)
(0.67705171 5.2942873e-05 0)
(0.67508322 5.086286e-05 0)
(0.67313706 4.8875301e-05 0)
(0.67121245 4.6976516e-05 0)
(0.6693087 4.5162612e-05 0)
(0.66742492 4.3431816e-05 0)
(0.66556058 4.1780042e-05 0)
(0.663714 4.0212464e-05 0)
(0.66188584 3.8718127e-05 0)
(0.66007041 3.7334725e-05 0)
(0.65827569 3.5998827e-05 0)
(0.6564749 3.4934289e-05 0)
(0.65471548 3.3846467e-05 8.6751143e-21)
(0.65285546 3.5076717e-05 0)
(0.65129661 3.0474075e-05 0)
(0.64843554 3.855999e-05 0)
(0.99789667 0.00049601824 0)
(0.99786329 0.00069507675 0)
(0.99785477 0.00084825238 0)
(0.99783139 0.00098719642 0)
(0.99780056 0.0011405856 0)
(0.99777817 0.0013146075 0)
(0.99776963 0.0015003378 0)
(0.99777449 0.0016861844 0)
(0.99779628 0.0018761907 0)
(0.99783753 0.0020756922 0)
(0.99789543 0.0022788974 0)
(0.99796455 0.0024767733 0)
(0.99803691 0.0026623275 0)
(0.99810169 0.0028294408 0)
(0.99814693 0.0029756875 0)
(0.9981573 0.0030971985 0)
(0.99811532 0.0031926564 0)
(0.99800343 0.0032607389 0)
(0.99779781 0.0033011099 0)
(0.99747066 0.0033124025 0)
(0.99698849 0.0032984685 0)
(0.99631276 0.003257506 0)
(0.99534671 0.0031914491 0)
(0.99395833 0.0031020602 0)
(0.99203641 0.002990298 0)
(0.98946667 0.0028589573 0)
(0.986127 0.0027115413 0)
(0.98189893 0.0025528496 0)
(0.97667582 0.0023895381 0)
(0.97038118 0.0022294243 0)
(0.96297278 0.002063811 0)
(0.95459985 0.0018909653 0)
(0.94548824 0.0017234787 0)
(0.9359624 0.0015628595 0)
(0.92637354 0.0014085372 0)
(0.91704816 0.0012586244 0)
(0.90825088 0.0011162907 0)
(0.90014619 0.00099050855 0)
(0.89275098 0.00088709654 0)
(0.88598212 0.00080740854 0)
(0.87971582 0.00074963748 0)
(0.87382921 0.00070908608 0)
(0.86823268 0.00067870321 0)
(0.86287405 0.00065182994 0)
(0.8577268 0.00062447588 0)
(0.85277534 0.00059584531 0)
(0.84800537 0.0005665782 0)
(0.84340141 0.0005376171 0)
(0.83894708 0.00050995481 0)
(0.83462647 0.00048410486 0)
(0.83042609 0.00046004397 0)
(0.82633625 0.00043746318 0)
(0.82235061 0.00041615904 0)
(0.81846382 0.00039606374 0)
(0.8146702 0.00037705419 0)
(0.81096432 0.00035903144 0)
(0.80734167 0.00034196746 0)
(0.80379831 0.0003258235 0)
(0.8003307 0.00031050251 0)
(0.79693571 0.0002959504 0)
(0.79361031 0.00028218363 0)
(0.79035155 0.00026912137 0)
(0.78715699 0.00025670892 0)
(0.78402432 0.00024494743 0)
(0.78095111 0.0002337773 0)
(0.77793525 0.00022315925 0)
(0.77497473 0.00021308995 0)
(0.77206748 0.00020352257 0)
(0.76921168 0.00019442711 0)
(0.76640557 0.00018579456 0)
(0.76364737 0.00017758895 0)
(0.76093543 0.00016979047 0)
(0.75826816 0.00016237766 0)
(0.75564406 0.00015532724 0)
(0.75306165 0.00014862291 0)
(0.75051949 0.00014224287 0)
(0.74801625 0.0001361705 0)
(0.74555062 0.00013038952 0)
(0.74312135 0.00012488424 0)
(0.74072724 0.00011964011 0)
(0.73836713 0.00011464328 0)
(0.73603991 0.00010988088 0)
(0.7337445 0.00010534082 0)
(0.73147986 0.00010101185 0)
(0.72924499 9.6883439e-05 0)
(0.72703889 9.294585e-05 0)
(0.72486061 8.9190044e-05 0)
(0.72270919 8.5608004e-05 0)
(0.7205837 8.21923e-05 0)
(0.71848308 7.8937258e-05 0)
(0.71640658 7.5837817e-05 0)
(0.71435237 7.2894287e-05 0)
(0.71232088 7.0104475e-05 0)
(0.71030629 6.7490744e-05 0)
(0.70831631 6.5039331e-05 0)
(0.70632405 6.2920261e-05 0)
(0.70437673 6.1047515e-05 6.0510089e-21)
(0.70232995 5.9688898e-05 0)
(0.70060114 5.8996465e-05 0)
(0.69746634 6.161983e-05 -2.7240475e-20)
(0.99793033 0.00050877184 0)
(0.99789917 0.00069751715 0)
(0.99789624 0.00085862029 0)
(0.99788803 0.0010114723 0)
(0.99787722 0.0011726495 0)
(0.99787592 0.0013440329 0)
(0.99788996 0.0015207361 0)
(0.99792137 0.0017025429 0)
(0.99797386 0.0018895051 0)
(0.99804948 0.0020737607 0)
(0.99814748 0.002247565 0)
(0.99826617 0.0024047083 0)
(0.9984023 0.0025410221 0)
(0.99855113 0.0026538012 0)
(0.99870796 0.0027425766 0)
(0.99886746 0.0028051287 0)
(0.99902481 0.0028455423 0)
(0.99917728 0.0028652494 0)
(0.99932018 0.0028652901 0)
(0.9994485 0.0028522561 0)
(0.99955962 0.0028287228 0)
(0.99965094 0.0027967098 0)
(0.99971741 0.0027573721 0)
(0.99975098 0.0027126296 0)
(0.99974191 0.0026650131 0)
(0.99967805 0.0026164827 0)
(0.99954225 0.0025690013 0)
(0.99931175 0.0025241076 0)
(0.99895451 0.0024822112 0)
(0.99842177 0.0024421109 0)
(0.99763406 0.0024028209 0)
(0.9963892 0.0023614845 0)
(0.99449724 0.0023121621 0)
(0.99175717 0.0022506204 0)
(0.98798767 0.0021750849 0)
(0.98306225 0.0020897226 0)
(0.97692146 0.0019908305 0)
(0.96969561 0.0018721235 0)
(0.96167915 0.0017412608 0)
(0.95323784 0.0016061068 0)
(0.94474544 0.001470295 0)
(0.93652009 0.0013375011 0)
(0.92878394 0.0012162701 0)
(0.9216061 0.0011127731 0)
(0.91494316 0.0010279246 0)
(0.90869823 0.00096052097 0)
(0.9027737 0.00090680327 0)
(0.89710295 0.00086119824 0)
(0.89165071 0.00081913969 0)
(0.88639975 0.0007784547 0)
(0.88133742 0.0007387942 0)
(0.87644999 0.00070046885 0)
(0.87172245 0.00066405506 0)
(0.86713992 0.0006299548 0)
(0.86268945 0.00059806816 0)
(0.85836132 0.00056811136 0)
(0.85414822 0.00053992436 0)
(0.85004357 0.00051339312 0)
(0.84604091 0.00048835303 0)
(0.8421346 0.00046469198 0)
(0.83831959 0.00044238245 0)
(0.83459128 0.00042128051 0)
(0.83094575 0.00040129055 0)
(0.8273793 0.00038239386 0)
(0.82388836 0.00036449305 0)
(0.82046981 0.00034751776 0)
(0.81712075 0.00033144738 0)
(0.81383832 0.0003162076 0)
(0.81061997 0.00030174624 0)
(0.80746328 0.0002880397 0)
(0.80436588 0.00027503144 0)
(0.80132559 0.00026268582 0)
(0.79834032 0.00025096612 0)
(0.79540809 0.00023983451 0)
(0.792527 0.00022926251 0)
(0.78969522 0.00021921508 0)
(0.78691102 0.00020966404 0)
(0.78417274 0.0002005823 0)
(0.78147878 0.00019194396 0)
(0.77882762 0.000183725 0)
(0.7762178 0.00017590265 0)
(0.77364791 0.0001684557 0)
(0.77111659 0.00016136431 0)
(0.76862254 0.00015460995 0)
(0.7661645 0.00014817536 0)
(0.76374123 0.00014204451 0)
(0.76135155 0.00013620266 0)
(0.75899427 0.00013063633 0)
(0.75666827 0.00012533376 0)
(0.75437225 0.00012028419 0)
(0.75210527 0.00011548193 0)
(0.74986534 0.00011091935 0)
(0.74765265 0.00010660825 0)
(0.74546132 0.00010254223 0)
(0.74329862 9.8789032e-05 0)
(0.74113801 9.5389802e-05 0)
(0.73902582 9.2679976e-05 4.8597967e-21)
(0.73681692 8.9801837e-05 0)
(0.7349415 9.3071018e-05 0)
(0.73156952 8.8309703e-05 2.2068458e-20)
(0.99796801 0.00052668985 0)
(0.9979286 0.00070372508 0)
(0.99792011 0.00086283266 0)
(0.99791292 0.0010138518 0)
(0.9979067 0.0011704332 0)
(0.99791077 0.0013361103 0)
(0.99793032 0.0015086384 0)
(0.99796734 0.0016868683 0)
(0.99802466 0.001868086 0)
(0.99810428 0.002046289 0)
(0.99820608 0.0022172107 0)
(0.99832871 0.0023764059 0)
(0.99846933 0.0025198228 0)
(0.99862377 0.0026443772 0)
(0.99878801 0.0027487445 0)
(0.99895709 0.0028311884 0)
(0.99912674 0.0028939727 0)
(0.99929438 0.0029368698 0)
(0.99945653 0.0029610369 0)
(0.99961016 0.0029679517 0)
(0.99975399 0.0029608477 0)
(0.99988772 0.0029396399 0)
(1.0000095 0.0029049344 0)
(1.0001169 0.0028582705 0)
(1.0002082 0.002802219 0)
(1.0002816 0.0027394575 0)
(1.0003349 0.0026722847 0)
(1.0003663 0.002603306 0)
(1.0003738 0.0025355958 0)
(1.0003559 0.0024726593 0)
(1.0003112 0.0024172997 0)
(1.0002329 0.0023711654 0)
(1.0001099 0.0023352143 0)
(0.99992297 0.002308801 0)
(0.99964321 0.0022898449 0)
(0.9992212 0.002273452 0)
(0.99858539 0.002254265 0)
(0.99754892 0.002228072 0)
(0.9958806 0.0021901962 0)
(0.99336116 0.0021376772 0)
(0.98980713 0.0020715276 0)
(0.98510801 0.0019927289 0)
(0.97929095 0.0018948535 0)
(0.97260097 0.0017808484 0)
(0.96536469 0.0016605489 0)
(0.95793516 0.0015377089 0)
(0.95062419 0.0014183996 0)
(0.94363414 0.0013102133 0)
(0.93702867 0.0012160071 0)
(0.93078012 0.0011361924 0)
(0.9248235 0.0010691961 0)
(0.91910273 0.0010112976 0)
(0.91358502 0.00095876828 0)
(0.90825465 0.00090936406 0)
(0.90310151 0.00086225179 0)
(0.89811495 0.00081734048 0)
(0.8932828 0.00077494155 0)
(0.88859262 0.00073520808 0)
(0.88403366 0.00069793504 0)
(0.87959774 0.00066288253 0)
(0.87527797 0.00062995151 0)
(0.8710678 0.00059892233 0)
(0.86696129 0.00056964178 0)
(0.86295302 0.00054204799 0)
(0.85903806 0.00051598291 0)
(0.85521211 0.00049133096 0)
(0.85147117 0.00046804301 0)
(0.84781138 0.00044600655 0)
(0.84422934 0.00042513727 0)
(0.84072186 0.00040538871 0)
(0.83728588 0.00038667726 0)
(0.83391859 0.00036894547 0)
(0.83061734 0.0003521362 0)
(0.82737961 0.0003361925 0)
(0.82420302 0.00032106963 0)
(0.82108528 0.00030671575 0)
(0.81802425 0.00029308787 0)
(0.81501789 0.00028014512 0)
(0.81206421 0.00026784874 0)
(0.80916136 0.00025616274 0)
(0.80630753 0.00024505317 0)
(0.803501 0.0002344884 0)
(0.80074012 0.00022443888 0)
(0.79802331 0.00021487709 0)
(0.79534903 0.00020577735 0)
(0.7927158 0.00019711582 0)
(0.79012218 0.00018887066 0)
(0.78756676 0.00018102163 0)
(0.78504818 0.00017355158 0)
(0.78256494 0.0001664434 0)
(0.7801159 0.00015969006 0)
(0.77769887 0.00015327416 0)
(0.77531381 0.00014722291 0)
(0.77295478 0.0001414953 0)
(0.77062862 0.00013625301 0)
(0.76830918 0.0001313739 0)
(0.7660419 0.00012774558 4.2070639e-21)
(0.76368109 0.00012285592 3.8745992e-20)
(0.76166949 0.00013114372 0)
(0.75807709 0.00011660062 0)
(0.99801062 0.00054655866 0)
(0.9979637 0.00071199651 0)
(0.99794681 0.00086663509 0)
(0.99793634 0.0010155332 0)
(0.9979304 0.0011697556 0)
(0.99793575 0.0013324919 0)
(0.99795659 0.0015017909 0)
(0.99799469 0.0016759327 0)
(0.9980525 0.0018524714 0)
(0.99813187 0.0020267228 0)
(0.99823274 0.0021944055 0)
(0.99835376 0.0023507486 0)
(0.99849224 0.0024914574 0)
(0.99864434 0.0026133457 0)
(0.99880621 0.0027148935 0)
(0.99897352 0.0027945727 0)
(0.9991423 0.0028538635 0)
(0.9993099 0.0028929861 0)
(0.99947321 0.0029127613 0)
(0.99962938 0.0029161595 0)
(0.99977734 0.0029053686 0)
(0.99991669 0.002881385 0)
(1.0000459 0.0028454237 0)
(1.0001631 0.0027994539 0)
(1.0002666 0.0027458472 0)
(1.0003557 0.0026868624 0)
(1.0004303 0.0026250651 0)
(1.00049 0.0025630016 0)
(1.0005352 0.002503587 0)
(1.0005669 0.0024500107 0)
(1.000587 0.0024035697 0)
(1.0005972 0.0023646321 0)
(1.0005987 0.0023331255 0)
(1.0005917 0.00230736 0)
(1.0005746 0.0022847559 0)
(1.0005428 0.0022635511 0)
(1.000491 0.002243307 0)
(1.0004078 0.0022240893 0)
(1.0002727 0.002206434 0)
(1.0000575 0.002190705 0)
(0.99971995 0.0021760568 0)
(0.99919497 0.002159219 0)
(0.99834613 0.0021371798 0)
(0.99694703 0.002105997 0)
(0.99478253 0.0020616382 0)
(0.99167134 0.0020050744 0)
(0.98749404 0.0019323763 0)
(0.98232319 0.0018404993 0)
(0.97638353 0.0017372385 0)
(0.96997393 0.0016285674 0)
(0.96340655 0.0015194321 0)
(0.9569304 0.0014165739 0)
(0.95067275 0.0013235344 0)
(0.94466226 0.001241451 0)
(0.93887449 0.0011698288 0)
(0.93327727 0.001106265 0)
(0.92785045 0.001048151 0)
(0.9225848 0.00099379762 0)
(0.91747461 0.00094236062 0)
(0.91251299 0.00089366077 0)
(0.90769107 0.00084786539 0)
(0.90299973 0.00080483904 0)
(0.89843149 0.00076436305 0)
(0.89398007 0.00072631207 0)
(0.8896396 0.00069045839 0)
(0.88540465 0.00065663628 0)
(0.88127015 0.00062475736 0)
(0.87723137 0.00059465621 0)
(0.87328412 0.00056620574 0)
(0.8694245 0.00053932809 0)
(0.86564876 0.00051390438 0)
(0.86195348 0.00048984802 0)
(0.85833544 0.00046707508 0)
(0.85479161 0.00044550407 0)
(0.85131913 0.00042506912 0)
(0.84791526 0.00040569732 0)
(0.84457745 0.00038732711 0)
(0.84130325 0.00036990048 0)
(0.83809033 0.00035336273 0)
(0.83493646 0.0003376631 0)
(0.83183952 0.00032275391 0)
(0.82879747 0.00030859077 0)
(0.82580836 0.00029513227 0)
(0.82287031 0.00028233983 0)
(0.81998153 0.00027017755 0)
(0.81714028 0.00025861208 0)
(0.81434486 0.0002476129 0)
(0.81159363 0.00023715154 0)
(0.808885 0.00022720415 0)
(0.80621727 0.000217746 0)
(0.80358906 0.00020876772 0)
(0.80099801 0.00020024074 0)
(0.79844385 0.00019220771 0)
(0.79592057 0.00018458975 0)
(0.79343459 0.00017764845 0)
(0.79096013 0.00017107916 0)
(0.78854186 0.00016639257 0)
(0.78603324 0.00015896225 0)
(0.78389032 0.00017328951 5.5287571e-20)
(0.78008489 0.00014695448 0)
(0.99805552 0.0005676476 0)
(0.9980042 0.00072256002 0)
(0.99797991 0.00087206055 0)
(0.99796501 0.0010183695 0)
(0.99795733 0.0011699009 0)
(0.9979618 0.0013291597 0)
(0.99798187 0.0014944946 0)
(0.99801916 0.0016642325 0)
(0.99807577 0.0018361714 0)
(0.99815334 0.0020060975 0)
(0.99825179 0.0021697279 0)
(0.99836983 0.0023225674 0)
(0.99850496 0.0024606052 0)
(0.99865361 0.0025808081 0)
(0.99881205 0.0026815995 0)
(0.99897625 0.0027615922 0)
(0.9991424 0.0028218143 0)
(0.99930783 0.0028626737 0)
(0.99946957 0.0028850361 0)
(0.99962492 0.0028911341 0)
(0.99977272 0.0028834346 0)
(0.99991243 0.0028629061 0)
(1.0000426 0.0028304814 0)
(1.0001616 0.0027879266 0)
(1.000268 0.0027375207 0)
(1.0003614 0.0026815587 0)
(1.0004414 0.0026224522 0)
(1.0005081 0.002562749 0)
(1.0005619 0.0025050907 0)
(1.0006043 0.0024521448 0)
(1.0006379 0.0024054719 0)
(1.0006649 0.0023657309 0)
(1.0006876 0.0023331787 0)
(1.000708 0.0023065917 0)
(1.0007266 0.0022839686 0)
(1.0007429 0.0022639786 0)
(1.0007556 0.0022455538 0)
(1.0007629 0.0022278249 0)
(1.0007618 0.002210696 0)
(1.0007488 0.0021940603 0)
(1.0007192 0.0021774892 0)
(1.0006667 0.0021609914 0)
(1.0005807 0.0021444995 0)
(1.0004386 0.0021278445 0)
(1.0002082 0.0021112094 0)
(0.99984058 0.0020936674 0)
(0.99926434 0.0020737996 0)
(0.99830836 0.0020492303 0)
(0.99676853 0.0020156611 0)
(0.99445197 0.0019710786 0)
(0.9912042 0.0019125115 0)
(0.98700326 0.0018361726 0)
(0.98199569 0.0017467129 0)
(0.97641875 0.0016503379 0)
(0.97055247 0.0015522445 0)
(0.96463629 0.0014581445 0)
(0.95881249 0.0013707089 0)
(0.95313444 0.0012914586 0)
(0.94760549 0.0012202701 0)
(0.94221563 0.0011556035 0)
(0.93695901 0.0010957767 0)
(0.93183461 0.0010395774 0)
(0.92684152 0.00098643739 0)
(0.92197601 0.000936335 0)
(0.91723245 0.00088914183 0)
(0.91260548 0.00084468046 0)
(0.90809036 0.00080282286 0)
(0.90368256 0.00076335057 0)
(0.89937778 0.00072609722 0)
(0.89517182 0.00069095165 0)
(0.89106067 0.00065775304 0)
(0.88704061 0.00062638032 0)
(0.88310811 0.00059671807 0)
(0.87925981 0.00056865506 0)
(0.8754925 0.0005420994 0)
(0.87180315 0.00051695279 0)
(0.86818887 0.00049313131 0)
(0.86464691 0.0004705564 0)
(0.86117465 0.00044915433 0)
(0.85776956 0.00042885676 0)
(0.85442923 0.00040959967 0)
(0.85115136 0.00039132351 0)
(0.84793371 0.00037397278 0)
(0.84477417 0.00035749582 0)
(0.84167067 0.00034184461 0)
(0.83862125 0.00032697448 0)
(0.83562397 0.00031284462 0)
(0.83267697 0.00029941682 0)
(0.82977844 0.00028665909 0)
(0.82692646 0.00027453778 0)
(0.82411946 0.0002630401 0)
(0.82135491 0.00025212499 0)
(0.8186323 0.00024185003 0)
(0.81594554 0.00023209631 0)
(0.81330067 0.00022322879 0)
(0.8106722 0.00021474615 0)
(0.80810423 0.00020883539 0)
(0.80544899 0.00019847908 0)
(0.80317667 0.00021968089 5.1862015e-20)
(0.79916091 0.0001797601 0)
(0.9981006 0.00058924808 0)
(0.99804767 0.00073491111 0)
(0.99801831 0.00087917825 0)
(0.99799959 0.0010223434 0)
(0.99798966 0.0011706336 0)
(0.99799232 0.0013260257 0)
(0.99801057 0.001487163 0)
(0.99804597 0.0016524473 0)
(0.99810036 0.00181975 0)
(0.99817517 0.001985212 0)
(0.99827036 0.0021447557 0)
(0.99838472 0.0022942013 0)
(0.9985159 0.002429752 0)
(0.99866059 0.0025484447 0)
(0.9988152 0.002648608 0)
(0.99897588 0.0027289089 0)
(0.99913899 0.0027900008 0)
(0.99930178 0.0028323012 0)
(0.9994614 0.0028565962 0)
(0.99961523 0.0028648263 0)
(0.99976201 0.0028592441 0)
(0.99990103 0.0028408486 0)
(1.0000309 0.0028106519 0)
(1.00015 0.00277038 0)
(1.0002573 0.0027222458 0)
(1.0003521 0.0026684974 0)
(1.0004341 0.0026114748 0)
(1.0005036 0.0025536352 0)
(1.000561 0.0024975747 0)
(1.0006079 0.0024459312 0)
(1.0006466 0.0024002995 0)
(1.0006797 0.002361436 0)
(1.0007093 0.00232949 0)
(1.0007378 0.0023033171 0)
(1.0007662 0.0022811743 0)
(1.0007946 0.0022616018 0)
(1.0008222 0.0022433941 0)
(1.0008484 0.0022257908 0)
(1.000872 0.0022087982 0)
(1.0008923 0.0021924082 0)
(1.0009084 0.0021765272 0)
(1.0009192 0.002161122 0)
(1.000923 0.0021457041 0)
(1.0009165 0.0021300476 0)
(1.0008949 0.0021142395 0)
(1.0008517 0.0020983877 0)
(1.0007791 0.0020824998 0)
(1.0006598 0.002066193 0)
(1.0004643 0.0020492746 0)
(1.0001499 0.0020313931 0)
(0.99965369 0.0020117336 0)
(0.99884417 0.0019887732 0)
(0.99753527 0.0019590682 0)
(0.99554511 0.0019201625 0)
(0.99271458 0.0018675031 0)
(0.98901547 0.001798433 0)
(0.98455344 0.0017181038 0)
(0.97953031 0.001631129 0)
(0.97419339 0.0015427995 0)
(0.9687483 0.0014572288 0)
(0.96332273 0.0013764928 0)
(0.95797243 0.0013020125 0)
(0.95271376 0.0012336373 0)
(0.94755182 0.0011703884 0)
(0.94249197 0.001111144 0)
(0.93753931 0.0010551873 0)
(0.9326957 0.0010023309 0)
(0.92795992 0.00095241535 0)
(0.92332975 0.00090529186 0)
(0.91880275 0.00086083497 0)
(0.91437622 0.00081885199 0)
(0.91004725 0.00077919723 0)
(0.90581279 0.00074172867 0)
(0.90166982 0.00070630567 0)
(0.89761535 0.00067280935 0)
(0.89364644 0.00064111467 0)
(0.88976021 0.00061111329 0)
(0.88595389 0.0005827037 0)
(0.88222475 0.00055579085 0)
(0.87857016 0.00053028662 0)
(0.87498757 0.00050610849 0)
(0.87147451 0.0004831797 0)
(0.86802861 0.00046142877 0)
(0.86464755 0.00044078909 0)
(0.86132911 0.0004211988 0)
(0.85807111 0.0004026003 0)
(0.85487147 0.00038494091 0)
(0.8517281 0.00036817121 0)
(0.84863905 0.00035224972 0)
(0.84560219 0.00033713258 0)
(0.84261579 0.00032280238 0)
(0.83967713 0.00030920447 0)
(0.83678552 0.00029641056 0)
(0.83393479 0.00028426001 0)
(0.83113064 0.00027322344 0)
(0.82834781 0.000262591 0)
(0.82562999 0.00025527585 0)
(0.82282781 0.00024162667 -1.5868119e-20)
(0.82042641 0.0002704736 0)
(0.81620053 0.00021523499 -8.0202655e-21)
(0.99814493 0.00061090914 0)
(0.99809214 0.00074839596 0)
(0.99805984 0.00088750358 0)
(0.99803861 0.0010272046 0)
(0.99802692 0.0011719683 0)
(0.99802781 0.0013233349 0)
(0.99804396 0.0014801626 0)
(0.99807699 0.0016409105 0)
(0.99812859 0.0018035119 0)
(0.99820005 0.0019644482 0)
(0.9982914 0.0021198828 0)
(0.99840153 0.0022658953 0)
(0.99852828 0.0023988708 0)
(0.99866856 0.002515919 0)
(0.99881894 0.0026153015 0)
(0.99897577 0.0026957142 0)
(0.99913551 0.0027575101 0)
(0.99929538 0.0028010666 0)
(0.99945259 0.0028270929 0)
(0.99960462 0.0028373112 0)
(0.99975005 0.0028337688 0)
(0.99988805 0.0028175319 0)
(1.0000173 0.0027896487 0)
(1.0001361 0.0027517869 0)
(1.0002436 0.0027060711 0)
(1.000339 0.0026546883 0)
(1.0004222 0.0025999199 0)
(1.0004932 0.0025441664 0)
(1.0005527 0.0024899489 0)
(1.0006021 0.0024397914 0)
(1.0006437 0.0023952779 0)
(1.0006799 0.0023571523 0)
(1.000713 0.002325594 0)
(1.0007452 0.0022996141 0)
(1.0007777 0.0022775614 0)
(1.0008107 0.0022580265 0)
(1.0008438 0.0022399089 0)
(1.0008765 0.0022225164 0)
(1.0009081 0.0022058225 0)
(1.0009383 0.0021898317 0)
(1.000967 0.0021744287 0)
(1.0009939 0.0021594476 0)
(1.0010184 0.0021444326 0)
(1.0010395 0.0021292223 0)
(1.001056 0.0021139317 0)
(1.0010664 0.0020986829 0)
(1.0010692 0.0020834111 0)
(1.0010617 0.002067952 0)
(1.0010391 0.0020524408 0)
(1.0009947 0.0020370138 0)
(1.0009198 0.0020216438 0)
(1.0007982 0.0020058908 0)
(1.0006004 0.0019892409 0)
(1.0002829 0.0019712062 0)
(0.99978297 0.0019514648 0)
(0.99896743 0.0019286555 0)
(0.99766937 0.0018995301 0)
(0.99571974 0.0018612992 0)
(0.99298299 0.0018089799 0)
(0.98946027 0.0017427618 0)
(0.98525313 0.0016676513 0)
(0.98055376 0.0015879008 0)
(0.97557487 0.0015076578 0)
(0.97048362 0.0014292496 0)
(0.9653793 0.001354893 0)
(0.96030852 0.0012854998 0)
(0.95529267 0.0012208596 0)
(0.9503461 0.0011601609 0)
(0.94548033 0.0011027634 0)
(0.94070259 0.0010484253 0)
(0.93601612 0.00099698506 0)
(0.93142203 0.00094832381 0)
(0.92692037 0.00090229948 0)
(0.92251046 0.00085876193 0)
(0.91819098 0.00081758081 0)
(0.91396018 0.0007786138 0)
(0.90981609 0.00074173376 0)
(0.90575657 0.00070681944 0)
(0.90177936 0.00067375599 0)
(0.89788216 0.00064243581 0)
(0.89406263 0.00061275755 0)
(0.89031844 0.00058462662 0)
(0.88664728 0.00055795463 0)
(0.88304685 0.00053265907 0)
(0.87951491 0.00050866314 0)
(0.87604923 0.00048589519 0)
(0.87264765 0.00046428955 0)
(0.86930801 0.00044378442 0)
(0.86602821 0.00042432772 0)
(0.86280606 0.00040586427 0)
(0.85963964 0.000388371 0)
(0.85652617 0.00037177869 0)
(0.85346476 0.00035617228 0)
(0.85044921 0.00034134824 0)
(0.84748491 0.00032788422 0)
(0.8445468 0.00031485168 0)
(0.84167833 0.00030593796 1.7150713e-21)
(0.83872821 0.00028861357 0)
(0.83619726 0.00032586036 4.9148343e-20)
(0.83176013 0.0002535739 0)
(0.99818827 0.00063238289 0)
(0.99813659 0.00076255487 0)
(0.99810285 0.00089661204 0)
(0.99808028 0.001032684 0)
(0.99806765 0.0011738033 0)
(0.99806731 0.0013210991 0)
(0.99808167 0.0014735686 0)
(0.99811238 0.0016297322 0)
(0.99816105 0.0017876042 0)
(0.99822893 0.0019439762 0)
(0.99831612 0.002095251 0)
(0.99842166 0.0022377459 0)
(0.99854359 0.0023680292 0)
(0.99867906 0.0024832978 0)
(0.99882484 0.0025817699 0)
(0.99897745 0.0026621538 0)
(0.99913347 0.0027245568 0)
(0.99929011 0.0027692897 0)
(0.99944466 0.002796987 0)
(0.9995946 0.0028091678 0)
(0.99973845 0.00280769 0)
(0.99987521 0.0027936556 0)
(1.0000036 0.0027681265 0)
(1.000122 0.0027327107 0)
(1.0002294 0.0026894462 0)
(1.0003252 0.0026404588 0)
(1.0004091 0.0025879713 0)
(1.0004812 0.0025343234 0)
(1.0005422 0.0024819501 0)
(1.0005934 0.0024332613 0)
(1.0006371 0.0023898305 0)
(1.0006754 0.0023524222 0)
(1.0007107 0.0023212406 0)
(1.0007451 0.0022954174 0)
(1.0007798 0.0022734304 0)
(1.000815 0.0022539543 0)
(1.0008507 0.0022359509 0)
(1.0008864 0.0022187454 0)
(1.0009215 0.0022022617 0)
(1.0009559 0.0021864828 0)
(1.0009896 0.0021712781 0)
(1.0010226 0.0021564801 0)
(1.0010545 0.0021416992 0)
(1.0010848 0.0021267886 0)
(1.0011131 0.0021118585 0)
(1.0011389 0.0020970461 0)
(1.0011616 0.0020822831 0)
(1.0011806 0.0020674229 0)
(1.0011945 0.0020525734 0)
(1.0012018 0.0020378307 0)
(1.0012005 0.0020231126 0)
(1.0011878 0.0020081833 0)
(1.0011583 0.001993095 0)
(1.0011042 0.0019781184 0)
(1.0010159 0.0019631413 0)
(1.0008734 0.0019476068 0)
(1.000644 0.0019309635 0)
(1.0002794 0.0019127 0)
(0.99970145 0.0018925317 0)
(0.99876741 0.0018685772 0)
(0.99732368 0.0018381536 0)
(0.99521185 0.0017962305 0)
(0.99236456 0.0017408957 0)
(0.9888086 0.0016758877 0)
(0.98467355 0.0016045542 0)
(0.98014648 0.0015304142 0)
(0.97540287 0.0014559973 0)
(0.9705663 0.0013837962 0)
(0.96570631 0.0013153034 0)
(0.9608599 0.0012508388 0)
(0.95605102 0.001189975 0)
(0.9512974 0.0011322654 0)
(0.94661106 0.0010774636 0)
(0.94199928 0.0010254492 0)
(0.93746634 0.00097612997 0)
(0.93301472 0.00092937738 0)
(0.92864562 0.00088507081 0)
(0.92435925 0.00084308911 0)
(0.92015511 0.00080331086 0)
(0.91603224 0.00076561773 0)
(0.91198932 0.00072989545 0)
(0.90802478 0.0006960353 0)
(0.90413689 0.00066393423 0)
(0.90032378 0.00063349512 0)
(0.89658351 0.00060462688 0)
(0.89291409 0.00057724405 0)
(0.8893135 0.00055126784 0)
(0.88577965 0.00052662385 0)
(0.88231052 0.00050324885 0)
(0.8789039 0.00048107584 0)
(0.87555787 0.00046007535 0)
(0.8722696 0.00044016309 0)
(0.86903812 0.00042143636 0)
(0.86585725 0.00040364817 0)
(0.86273213 0.00038748396 0)
(0.85963791 0.00037178787 0)
(0.85661794 0.00036106774 0)
(0.85351874 0.00033967109 0)
(0.85085748 0.00038608165 0)
(0.84620747 0.00029498397 0)
(0.99823066 0.00065353052 0)
(0.99818062 0.00077710183 0)
(0.9981464 0.00090621733 0)
(0.99812331 0.0010385394 0)
(0.9981104 0.0011759443 0)
(0.99810944 0.0013191718 0)
(0.99812255 0.0014672963 0)
(0.99815132 0.0016188931 0)
(0.99819731 0.0017720607 0)
(0.9982617 0.0019238662 0)
(0.9983447 0.0020709511 0)
(0.99844552 0.0022098634 0)
(0.99856243 0.0023373566 0)
(0.99869281 0.0024507249 0)
(0.99883367 0.0025481621 0)
(0.99898171 0.0026283806 0)
(0.99913367 0.0026912848 0)
(0.99928676 0.0027371034 0)
(0.99943832 0.002766393 0)
(0.99958589 0.0027804842 0)
(0.99972789 0.002781057 0)
(0.9998632 0.0027692208 0)
(0.99999047 0.0027460433 0)
(1.0001082 0.0027130755 0)
(1.0002154 0.002672271 0)
(1.0003114 0.0026256918 0)
(1.0003959 0.0025754994 0)
(1.0004689 0.0025239684 0)
(1.0005311 0.0024734492 0)
(1.0005838 0.0024262476 0)
(1.0006291 0.0023839235 0)
(1.0006691 0.0023472628 0)
(1.000706 0.0023164914 0)
(1.000742 0.0022908511 0)