/*--------------------------------*- C++ -*----------------------------------*\
  =========                 |
  \\      /  F ield         | OpenFOAM: The Open Source CFD Toolbox
   \\    /   O peration     | Website:  https://openfoam.org
    \\  /    A nd           | Version:  12
     \\/     M anipulation  |
\*---------------------------------------------------------------------------*/
FoamFile
{
    format      ascii;
    class       volVectorField;
    location    "1200";
    object      wallShearStress;
}
// * * * * * * * * * * * * * * * * * * * * * * * * * * * * * * * * * * * * * //

dimensions      [0 2 -2 0 0 0 0];

internalField   uniform (0 0 0);

boundaryField
{
    inlet
    {
        type            calculated;
        value           uniform (0 0 0);
    }
    top
    {
        type            calculated;
        value           uniform (0 0 0);
    }
    outlet
    {
        type            calculated;
        value           uniform (0 0 0);
    }
    slipsurface
    {
        type            calculated;
        value           uniform (0 0 0);
    }
    bottom
    {
        type            calculated;
        value           nonuniform List<vector> 
100
(
(-0.00062412947 -3.5851999e-07 1.668023e-21)
(-0.00072302885 -4.9175134e-07 2.9606677e-23)
(-0.0008425167 -8.0680017e-07 0)
(-0.00097716864 -1.2162838e-06 9.099446e-21)
(-0.0011250762 -1.7457753e-06 4.7815952e-20)
(-0.0012838529 -2.2970423e-06 -4.8902329e-20)
(-0.0014497754 -2.85351e-06 4.6192589e-22)
(-0.001617829 -3.8150712e-06 1.4060135e-19)
(-0.0017819211 -4.9429436e-06 0)
(-0.0019354426 -6.162176e-06 3.9355967e-19)
(-0.0020720028 -7.410163e-06 0)
(-0.0021865441 -8.6080755e-06 -6.1788144e-19)
(-0.002275838 -9.6737867e-06 0)
(-0.0023387294 -1.0516717e-05 1.1932499e-18)
(-0.0023759166 -1.1167751e-05 -2.3298077e-22)
(-0.002389936 -1.1391442e-05 1.3786848e-18)
(-0.0023829532 -1.1411119e-05 0)
(-0.0023649499 -1.1180978e-05 0)
(-0.0023255253 -1.0662838e-05 3.9269892e-19)
(-0.0022817394 -9.9899416e-06 3.5999991e-19)
(-0.0022324083 -9.1674745e-06 6.4823657e-19)
(-0.0021800078 -8.2250933e-06 0)
(-0.0021268267 -7.2195349e-06 -4.0997112e-19)
(-0.002074736 -6.2040207e-06 0)
(-0.0020252421 -5.2086428e-06 1.0127339e-19)
(-0.001979559 -4.2605529e-06 0)
(-0.0019386245 -3.3793127e-06 -0)
(-0.0019031061 -2.5889412e-06 0)
(-0.001873377 -1.9144512e-06 -5.6928069e-21)
(-0.0018493995 -1.3770191e-06 -4.6407187e-20)
(-0.0018306303 -9.9339222e-07 0)
(-0.0018160411 -7.5949763e-07 7.0448072e-20)
(-0.0018042537 -6.5060873e-07 -6.0427218e-20)
(-0.0017938403 -6.2910025e-07 0)
(-0.0017836775 -6.5210708e-07 0)
(-0.0017731366 -6.8352778e-07 9.8397091e-21)
(-0.0017620579 -7.0123671e-07 0)
(-0.0017505815 -6.9746987e-07 0)
(-0.0017389298 -6.7795514e-07 0)
(-0.0017272516 -6.5346394e-07 -0)
(-0.0017155827 -6.3216599e-07 -0)
(-0.001703893 -6.164993e-07 -0)
(-0.0016921615 -6.0402511e-07 -0)
(-0.0016804196 -5.9126555e-07 0)
(-0.0016687374 -5.7629834e-07 -0)
(-0.0016571848 -5.589543e-07 -0)
(-0.0016458026 -5.4009977e-07 0)
(-0.0016346029 -5.2067522e-07 0)
(-0.0016235845 -5.0127855e-07 0)
(-0.0016127466 -4.820504e-07 -0)
(-0.0016020905 -4.6300277e-07 0)
(-0.001591617 -4.4418267e-07 0)
(-0.0015813261 -4.2578684e-07 0)
(-0.0015712142 -4.0804018e-07 -0)
(-0.0015612762 -3.9094984e-07 0)
(-0.0015515087 -3.7444829e-07 0)
(-0.001541909 -3.5857149e-07 0)
(-0.0015324725 -3.4337728e-07 0)
(-0.0015231943 -3.2879999e-07 0)
(-0.0015140719 -3.147996e-07 -0)
(-0.0015051011 -3.0145834e-07 0)
(-0.0014962758 -2.88735e-07 0)
(-0.0014875915 -2.7657501e-07 0)
(-0.0014790441 -2.6498812e-07 0)
(-0.0014706294 -2.5391772e-07 0)
(-0.0014623441 -2.4332392e-07 0)
(-0.0014541848 -2.3321922e-07 0)
(-0.0014461477 -2.2356571e-07 0)
(-0.0014382294 -2.1433633e-07 -0)
(-0.0014304267 -2.0553336e-07 -0)
(-0.0014227358 -1.9712545e-07 -0)
(-0.0014151537 -1.8909648e-07 0)
(-0.0014076772 -1.814301e-07 0)
(-0.0014003033 -1.7410431e-07 0)
(-0.0013930289 -1.671053e-07 0)
(-0.0013858512 -1.6041352e-07 0)
(-0.0013787677 -1.5401504e-07 0)
(-0.0013717757 -1.4789648e-07 0)
(-0.0013648727 -1.4204437e-07 0)
(-0.0013580562 -1.3644592e-07 0)
(-0.001351324 -1.3108872e-07 0)
(-0.0013446737 -1.2596171e-07 0)
(-0.0013381031 -1.2105421e-07 0)
(-0.0013316101 -1.1635609e-07 0)
(-0.0013251926 -1.1185799e-07 -0)
(-0.0013188485 -1.0755157e-07 0)
(-0.0013125757 -1.0342861e-07 -0)
(-0.0013063721 -9.9482115e-08 -0)
(-0.0013002359 -9.5706044e-08 0)
(-0.0012941643 -9.2096243e-08 0)
(-0.001288156 -8.864682e-08 0)
(-0.001282206 -8.5364063e-08 0)
(-0.0012763167 -8.2239078e-08 0)
(-0.0012704705 -7.9323831e-08 0)
(-0.0012646921 -7.6547743e-08 0)
(-0.0012588996 -7.4338988e-08 -0)
(-0.0012532392 -7.0382805e-08 1.9102281e-23)
(-0.0012472628 -1.0905238e-07 -1.7726151e-22)
(-0.0012422904 -7.2893343e-08 5.5598128e-22)
(-0.0012330252 -1.1065449e-07 2.1400232e-20)
)
;
    }
    frontandback
    {
        type            empty;
    }
}


// ************************************************************************* //
