/*--------------------------------*- C++ -*----------------------------------*\
  =========                 |
  \\      /  F ield         | OpenFOAM: The Open Source CFD Toolbox
   \\    /   O peration     | Website:  https://openfoam.org
    \\  /    A nd           | Version:  12
     \\/     M anipulation  |
\*---------------------------------------------------------------------------*/
FoamFile
{
    format      ascii;
    class       volScalarField;
    location    "1200";
    object      yPlus;
}
// * * * * * * * * * * * * * * * * * * * * * * * * * * * * * * * * * * * * * //

dimensions      [];

internalField   uniform 0;

boundaryField
{
    inlet
    {
        type            calculated;
        value           uniform 0;
    }
    top
    {
        type            calculated;
        value           uniform 0;
    }
    outlet
    {
        type            calculated;
        value           uniform 0;
    }
    slipsurface
    {
        type            calculated;
        value           uniform 0;
    }
    bottom
    {
        type            calculated;
        value           nonuniform List<scalar> 
100
(
15.344155
18.478948
22.397458
26.974134
32.187299
37.994554
44.301434
50.953973
57.745785
64.429879
70.743974
76.455619
81.387215
85.432569
88.557458
90.804048
92.202805
93.15342
93.119818
92.850117
92.258933
91.434962
90.461699
89.412022
88.3491
87.327912
86.395991
85.592206
84.945319
84.469413
84.15754
83.979478
83.886345
83.823449
83.746158
83.629825
83.470142
83.276239
83.061171
82.834726
82.601141
82.360813
82.113492
81.860432
81.604402
81.348381
81.094359
80.843084
80.59462
80.348952
80.106176
79.866355
79.629527
79.395645
79.164628
78.936417
78.710968
78.488204
78.26804
78.050471
77.835425
77.622782
77.412444
77.204346
76.998433
76.79466
76.592984
76.393352
76.195716
76.000029
75.80624
75.614301
75.424174
75.235813
75.049174
74.864218
74.680908
74.499207
74.319082
74.140497
73.963419
73.787814
73.613651
73.440897
73.269521
73.09949
72.930772
72.763333
72.597142
72.432151
72.268336
72.105608
71.944006
71.783191
71.623627
71.463693
71.306308
71.141533
71.002082
70.744245
)
;
    }
    frontandback
    {
        type            empty;
    }
}


// ************************************************************************* //
