#      distance             U_x             U_y             U_z wallShearStr... wallShearStr... wallShearStr...               p         epsilon               k             nut
  3.0219182e-06     0.039874438   1.6472823e-09  -7.9006244e-24               0               0               0   6.0612737e-05       11.362712    0.0005606867   5.3210926e-09
  5.0865428e-06     0.065776016   4.1359443e-09  -3.3634387e-24               0               0               0   6.0612897e-05       7.8420595    0.0011778524   2.0361691e-08
  7.2269684e-06     0.090162738   7.8620093e-09  -6.1501434e-24               0               0               0    6.061308e-05       6.8848584    0.0018593916   4.9500487e-08
  9.4750924e-06      0.11244968   1.2690585e-08  -9.2242284e-24               0               0               0   6.0613288e-05       6.5332257    0.0025168419   9.0767515e-08
  1.1864417e-05      0.13267032   1.8545002e-08  -3.9410679e-24               0               0               0   6.0613522e-05        6.333768    0.0031040603   1.3976101e-07
  1.4430548e-05      0.15122757   2.5458811e-08   7.6575663e-24               0               0               0    6.061378e-05       6.1505985    0.0036109933    1.932612e-07
  1.7211727e-05      0.16857326   3.3542008e-08   1.3218809e-23               0               0               0   6.0614056e-05       5.9460534     0.004043924   2.4979865e-07
  2.0249401e-05      0.18507919   4.2960812e-08   2.6310991e-24               0               0               0   6.0614349e-05        5.712934    0.0044126708    3.089737e-07
  2.3588836e-05      0.20102447   5.3933182e-08  -4.1263205e-24               0               0               0   6.0614662e-05       5.4531636    0.0047261021   3.7090949e-07
  2.7279799e-05      0.21661382   6.6730185e-08  -2.0631602e-24               0               0               0   6.0614997e-05       5.1712609     0.004991263   4.3597892e-07
  3.1377293e-05      0.23199703   8.1680366e-08               0               0               0               0   6.0615358e-05       4.8723593     0.005213573   5.0468475e-07
  3.5942381e-05      0.24728391   9.9176893e-08   5.6790454e-24               0               0               0   6.0615749e-05       4.5616031    0.0053972302   5.7760976e-07
  4.1043091e-05       0.2625547   1.1968727e-07    8.517657e-24               0               0               0   6.0616178e-05       4.2439488    0.0055455793   6.5539816e-07
  4.6755437e-05      0.27786739   1.4376549e-07   1.0321918e-23               0               0               0    6.061665e-05       3.9240728    0.0056613964   7.3875098e-07
  5.3164546e-05      0.29326286   1.7206666e-07   1.1223759e-23               0               0               0   6.0617173e-05       3.6063005    0.0057470938   8.2842783e-07
  6.0365928e-05      0.30876857   2.0536454e-07   -2.203585e-23               0               0               0   6.0617757e-05       3.2945392    0.0058048599   9.2525158e-07
    6.84669e-05      0.32440128    2.445722e-07  -4.8198576e-23               0               0               0   6.0618414e-05       2.9922163    0.0058367499   1.0301144e-06
  7.7588184e-05      0.34016917    2.907664e-07  -2.9089025e-23               0               0               0   6.0619157e-05       2.7022317    0.0058447412   1.1439844e-06
   8.786571e-05      0.35607342   3.4521634e-07   4.5752851e-24               0               0               0       6.062e-05       2.4269283    0.0058307612   1.2679125e-06
  9.9452634e-05      0.37210962   4.0941744e-07   3.2966005e-23               0               0               0   6.0620961e-05       2.1680851    0.0057966994   1.4030396e-06
  0.00011252163       0.3882688   4.8513096e-07   1.2616771e-23               0               0               0   6.0622062e-05       1.9269329    0.0057444063   1.5506039e-06
  0.00012726745      0.40453843   5.7443057e-07  -5.9750769e-24               0               0               0   6.0623326e-05       1.7041886    0.0056756869   1.7119487e-06
  0.00014390985      0.42090322   6.7975686e-07   3.1321202e-24               0               0               0   6.0624781e-05       1.5001064     0.005592291     1.88853e-06
  0.00016269684      0.43734581   8.0398122e-07   1.9467901e-23               0               0               0    6.062646e-05       1.3145392    0.0054959024    2.081926e-06
  0.00018390838       0.4538474    9.504805e-07   1.1821273e-22               0               0               0   6.0628398e-05       1.1470058    0.0053881293   2.2938455e-06
  0.00020786057      0.47038829   1.1232244e-06   1.3837057e-22               0               0               0   6.0630639e-05      0.99675983    0.0052704971   2.5261388e-06
  0.00023491035      0.48694831   1.3268775e-06   3.9625746e-23               0               0               0   6.0633229e-05      0.86285595    0.0051444423   2.7808083e-06
  0.00026546084      0.50350726   1.5669183e-06               0               0               0               0   6.0636224e-05       0.7442108    0.0050113095   3.0600205e-06
   0.0002999673      0.52004515   1.8497785e-06               0               0               0               0   6.0639687e-05       0.6396569    0.0048723497   3.3661188e-06
  0.00033894396      0.53654257   2.1830049e-06  -7.3381484e-23               0               0               0   6.0643686e-05      0.54798838    0.0047287205   3.7016368e-06
  0.00038297165      0.55298079   2.5754489e-06  -1.4676297e-22               0               0               0   6.0648302e-05      0.46799846    0.0045814871   4.0693119e-06
  0.00043270649      0.56934201   3.0374869e-06   2.2506749e-22               0               0               0   6.0653623e-05      0.39850875    0.0044316245   4.4720991e-06
  0.00048888965      0.58560946   3.5812782e-06   4.8084884e-22               0               0               0    6.065975e-05      0.33839128      0.00428002   4.9131837e-06
  0.00055235838      0.60176746    4.221065e-06   1.8239986e-22               0               0               0   6.0666795e-05      0.28658393    0.0041274762   5.3959926e-06
   0.0006240585      0.61780155   4.9735234e-06               0               0               0               0   6.0674883e-05      0.24210046    0.0039747136   5.9242015e-06
  0.00070505852      0.63369848    5.858173e-06   1.2225346e-22               0               0               0   6.0684152e-05      0.20403587    0.0038223736   6.5017375e-06
  0.00079656552      0.64944627   6.8978568e-06   2.4450692e-22               0               0               0   6.0694756e-05      0.17156836    0.0036710212   7.1327733e-06
  0.00089994316      0.66503426   8.1193031e-06   1.2225346e-22               0               0               0   6.0706861e-05      0.14395835    0.0035211475   7.8217078e-06
    0.001016732      0.68045309   9.5537876e-06               0               0               0               0   6.0720651e-05      0.12054567    0.0033731718   8.5731296e-06
   0.0011486725      0.69569478   1.1237915e-05   3.9262297e-22               0               0               0   6.0736321e-05      0.10074521    0.0032274435   9.3917526e-06
   0.0012977308      0.71075273   1.3214547e-05  -3.2520722e-22               0               0               0    6.075408e-05      0.08404174    0.0030842434   1.0282314e-05
   0.0014661282       0.7256218   1.5533918e-05  -1.4787722e-21               0               0               0   6.0774147e-05     0.069984235    0.0029437847   1.1249415e-05
   0.0016563743       0.7402984    1.825498e-05  -1.4187436e-21               0               0               0   6.0796743e-05     0.058179931    0.0028062126   1.2297289e-05
   0.0018713042       0.7547806   2.1447052e-05  -1.0115539e-21               0               0               0   6.0822089e-05     0.048288465    0.0026716038   1.3429458e-05
   0.0021141207      0.76906831   2.5191844e-05  -3.5375231e-22               0               0               0   6.0850388e-05     0.040016171    0.0025399638   1.4648234e-05
   0.0023884425      0.78316349    2.958602e-05  -2.7844951e-22               0               0               0   6.0881817e-05     0.033110675    0.0024112226    1.595403e-05
   0.0026983575       0.7970705    3.474459e-05   2.5621567e-22               0               0               0   6.0916529e-05     0.027355858    0.0022852278   1.7344377e-05
   0.0030484842      0.81079648   4.0806016e-05  -1.1163149e-21               0               0               0   6.0954658e-05     0.022567221    0.0021617338   1.8812591e-05
   0.0034440402      0.82435181   4.7935702e-05  -2.2213382e-21               0               0               0   6.0996077e-05     0.018587661     0.002040387    2.034597e-05
   0.0038909203      0.83775079   5.6332147e-05  -5.7035806e-22               0               0               0   6.1040255e-05      0.01528367    0.0019207048   2.1923432e-05
    0.004395784      0.85101226   6.6245709e-05   2.3804568e-21               0               0               0   6.1086448e-05     0.012541928    0.0018020464   2.3512495e-05
   0.0049661549      0.86416038   7.7985627e-05  -8.4381202e-22               0               0               0   6.1133547e-05     0.010266286    0.0016835754   2.5065575e-05
   0.0056105328      0.87722522   9.1928895e-05  -6.3727981e-21               0               0               0   6.1179624e-05    0.0083750954    0.0015642114   2.6515658e-05
   0.0063385204      0.89024319   0.00010855174   1.6860426e-21               0               0               0   6.1221189e-05    0.0067988664    0.0014425703   2.7771619e-05
   0.0071609664      0.90325659   0.00012845623   8.5155551e-21               0               0               0   6.1252337e-05    0.0054782487    0.0013168967   2.8713713e-05
   0.0080901272      0.91631155   0.00015239429   1.2552621e-20               0               0               0   6.1263801e-05    0.0043623384    0.0011849993   2.9190349e-05
   0.0091398493      0.92945229   0.00018128875    1.391897e-20               0               0               0   6.1241142e-05    0.0034074396    0.0010442289   2.9018272e-05
    0.010325776      0.94270633   0.00021621202   8.0567645e-21               0               0               0   6.1162068e-05    0.0025766833   0.00089162085   2.7991179e-05
     0.01166558      0.95604634   0.00025825113    3.009433e-21               0               0               0   6.0996007e-05    0.0018417982   0.00072460175   2.5911692e-05
    0.013179228      0.96927974   0.00030832371   5.9008673e-21               0               0               0   6.0713166e-05    0.0011910438   0.00054371844   2.2702326e-05
    0.014889277      0.98172055   0.00036482604   3.2279978e-21               0               0               0   6.0258335e-05   0.00065009293   0.00036164251    1.878299e-05
    0.016821209      0.99179314   0.00041768618   8.9227969e-21               0               0               0   5.9521448e-05   0.00027970719   0.00021171441   1.5905553e-05
    0.019003816      0.99803558   0.00045276481   1.7897069e-20               0               0               0   5.8464692e-05   9.7813021e-05   0.00012342416   1.6621221e-05
    0.021469624       1.0008543   0.00046833341   7.0366332e-21               0               0               0   5.7179877e-05   3.7484205e-05   8.8718189e-05    2.105301e-05
    0.024255377       1.0018844   0.00047380898   4.6011387e-23               0               0               0   5.5783783e-05   2.2188974e-05   7.9313769e-05   2.6199159e-05
    0.027402591       1.0022594   0.00047552623  -6.8922965e-22               0               0               0   5.4379106e-05   1.8352936e-05    7.773712e-05   2.9755801e-05
    0.030958166       1.0024017   0.00047543158               0               0               0               0   5.3019055e-05   1.7350132e-05   7.8263611e-05   3.1795341e-05
    0.034975088        1.002454   0.00047453791               0               0               0               0   5.1699555e-05   1.7094004e-05   7.9250103e-05   3.3074129e-05
    0.039513219       1.0024709   0.00047331113    4.166531e-21               0               0               0   5.0401668e-05   1.7026079e-05   8.0191157e-05   3.3995796e-05
    0.044640187        1.002474   0.00047199761   4.0082168e-21               0               0               0   4.9106788e-05   1.6999358e-05   8.0960983e-05   3.4704786e-05
    0.050432395       1.0024729   0.00047066588  -2.4351624e-21               0               0               0   4.7800454e-05   1.6980488e-05    8.156531e-05   3.5263276e-05
    0.056976161       1.0024711   0.00046912207  -2.3127447e-21               0               0               0   4.6483815e-05   1.6963761e-05   8.2042699e-05   3.5712044e-05
    0.064369002       1.0024671   0.00046715907  -3.5904024e-23               0               0               0   4.5182418e-05   1.6948464e-05   8.2429832e-05   3.6082163e-05
    0.072721087       1.0024594   0.00046477417               0               0               0               0    4.393878e-05    1.693442e-05   8.2753461e-05   3.6396051e-05
    0.082156882       1.0024483   0.00046211281               0               0               0               0   4.2798131e-05    1.692143e-05   8.3031582e-05   3.6669129e-05
    0.092817002        1.002434   0.00045918844               0               0               0               0   4.1798903e-05   1.6909286e-05   8.3276292e-05   3.6912012e-05
