#      distance             U_x             U_y             U_z wallShearStr... wallShearStr... wallShearStr...               p         epsilon               k             nut
              0      0.99992373               0               0               0               0               0    0.0035610819    0.0055828023   0.00011031257   1.9617349e-07
   0.0021021021       0.9999211               0               0               0               0               0    0.0035845295    0.0055828726   0.00011030978   1.9616108e-07
   0.0042042042      0.99991847               0               0               0               0               0     0.003607977    0.0055829428   0.00011030698   1.9614868e-07
   0.0063063063      0.99991584               0               0               0               0               0    0.0036314246    0.0055830131   0.00011030419   1.9613627e-07
   0.0084084084       0.9999132               0               0               0               0               0    0.0036548721    0.0055830833    0.0001103014   1.9612387e-07
    0.010510511      0.99991002               0               0               0               0               0    0.0036817272    0.0055831764   0.00011029919   1.9611277e-07
    0.012612613      0.99990649               0               0               0               0               0    0.0037106986    0.0055832837   0.00011029736   1.9610247e-07
    0.014714715      0.99990296               0               0               0               0               0      0.00373967     0.005583391   0.00011029553   1.9609218e-07
    0.016816817      0.99989944               0               0               0               0               0    0.0037686415    0.0055834983   0.00011029369   1.9608189e-07
    0.018918919      0.99989591               0               0               0               0               0    0.0037976129    0.0055836056   0.00011029186    1.960716e-07
    0.021021021      0.99989223               0               0               0               0               0    0.0038274629    0.0055837183   0.00011029014   1.9606154e-07
    0.023123123      0.99988748               0               0               0               0               0    0.0038632193    0.0055838679   0.00011028924   1.9605308e-07
    0.025225225      0.99988273               0               0               0               0               0    0.0038989756    0.0055840174   0.00011028834   1.9604462e-07
    0.027327327      0.99987798               0               0               0               0               0     0.003934732     0.005584167   0.00011028744   1.9603616e-07
    0.029429429      0.99987323               0               0               0               0               0    0.0039704884    0.0055843165   0.00011028653    1.960277e-07
    0.031531532      0.99986806               0               0               0               0               0      0.00400839    0.0055844786   0.00011028587   1.9601966e-07
    0.033633634      0.99986163               0               0               0               0               0    0.0040525572    0.0055846771   0.00011028592   1.9601288e-07
    0.035735736       0.9998552               0               0               0               0               0    0.0040967244    0.0055848756   0.00011028597   1.9600609e-07
    0.037837838      0.99984877               0               0               0               0               0    0.0041408916    0.0055850741   0.00011028602    1.959993e-07
     0.03993994      0.99984234               0               0               0               0               0    0.0041850589    0.0055852725   0.00011028607   1.9599251e-07
    0.042042042      0.99983377               0               0               0               0               0    0.0042388559    0.0055855231   0.00011028705   1.9598719e-07
    0.044144144      0.99982499               0               0               0               0               0    0.0042935554    0.0055857785   0.00011028811   1.9598201e-07
    0.046246246      0.99981622               0               0               0               0               0     0.004348255    0.0055860339   0.00011028918   1.9597683e-07
    0.048348348      0.99980733               0               0               0               0               0    0.0044034467    0.0055862918   0.00011029028   1.9597171e-07
     0.05045045      0.99979526               0               0               0               0               0    0.0044715584    0.0055866135   0.00011029245   1.9596814e-07
    0.052552553       0.9997832               0               0               0               0               0    0.0045396701    0.0055869351   0.00011029462   1.9596457e-07
    0.054654655      0.99977113               0               0               0               0               0    0.0046077819    0.0055872568   0.00011029679   1.9596101e-07
    0.056756757      0.99975635               0               0               0               0               0      0.00468557    0.0055876218   0.00011029966   1.9595839e-07
    0.058858859      0.99973944               0               0               0               0               0    0.0047709868    0.0055880209   0.00011030307   1.9595651e-07
    0.060960961      0.99972254               0               0               0               0               0    0.0048564037    0.0055884201   0.00011030648   1.9595464e-07
    0.063063063      0.99970267               0               0               0               0               0    0.0049516954     0.005588858    0.0001103105   1.9595355e-07
    0.065165165      0.99967881               0               0               0               0               0    0.0050603376    0.0055893483   0.00011031533   1.9595353e-07
    0.067267267      0.99965495               0               0               0               0               0    0.0051689798    0.0055898387   0.00011032017   1.9595351e-07
    0.069369369      0.99962422               0               0               0               0               0    0.0052958561    0.0055903964   0.00011032602   1.9595476e-07
    0.071471471      0.99958859               0               0               0               0               0    0.0054357329    0.0055910022    0.0001103326   1.9595691e-07
    0.073573574      0.99955297               0               0               0               0               0    0.0055756098     0.005591608   0.00011033919   1.9595906e-07
    0.075675676      0.99950143               0               0               0               0               0    0.0057623852    0.0055923639   0.00011034802   1.9596395e-07
    0.077777778       0.9994497               0               0               0               0               0    0.0059496932    0.0055931214   0.00011035688   1.9596888e-07
     0.07987988      0.99937391               0               0               0               0               0    0.0061760163    0.0055940043   0.00011036778   1.9597667e-07
    0.081981982      0.99928195               0               0               0               0               0    0.0064285698    0.0055949717   0.00011038006   1.9598637e-07
    0.084084084       0.9991733               0               0               0               0               0    0.0067328532    0.0055964404   0.00011039676   1.9599424e-07
    0.086186186      0.99903653               0               0               0               0               0    0.0071242749    0.0055987538   0.00011042092   1.9599902e-07
    0.088288288      0.99882705               0  -9.7693387e-22               0               0               0    0.0075599733    0.0055984544   0.00011043502   1.9605987e-07
     0.09039039      0.99842702               0  -4.5139756e-21               0               0               0    0.0081117012    0.0055913084   0.00011042276   1.9626768e-07
    0.092492492       0.9981107               0   1.6198566e-17               0               0               0     0.008993835    0.0056570442   0.00011068094   1.9513152e-07
    0.094594595      0.99801512               0   7.5136214e-17               0               0               0     0.010747203    0.0059149593   0.00011165223   1.9045153e-07
    0.096696697      0.91004043               0   1.1425678e-16   -0.0006825047  -3.1553576e-06               0     0.012070323       5.6699081   0.00010257181   1.6999754e-07
    0.098798799      0.64860151               0   1.1426048e-16   -0.0027122025  -1.2539062e-05               0     0.012544181       22.513524   7.3650332e-05   1.1840732e-07
      0.1009009       0.3871068               0   8.8604031e-17   -0.0045177536  -1.7930516e-05  -1.8620026e-18     0.011658967       40.575183   4.4298306e-05   6.8958287e-08
       0.103003      0.12553769               0   2.8734048e-17   -0.0060244424   -1.799897e-05  -6.2066752e-18    0.0089616569       60.260901    1.437221e-05   2.2364169e-08
     0.10510511               0               0               0   -0.0063890648  -1.3206602e-05  -6.5761854e-18    0.0065852668       69.592122   9.4263158e-09   1.6136685e-12
     0.10720721               0               0               0   -0.0056997222  -3.9283855e-06  -3.2771849e-18    0.0045050401       69.367611   9.3709247e-09   1.3521928e-12
     0.10930931               0               0               0   -0.0052683044  -1.5001005e-07   4.9978772e-20    0.0033564386       66.376656    8.612097e-09   1.1942345e-12
     0.11141141               0               0               0    -0.005011635  -9.7864568e-08   3.3962234e-18     0.002839028       61.511392   7.3766798e-09   1.1064109e-12
     0.11351351               0               0               0   -0.0048274335  -7.0244093e-08   2.4183826e-18    0.0025210766       57.793365   6.4988074e-09   1.0448619e-12
     0.11561562               0               0               0   -0.0046812089  -5.5475973e-08  -8.2549963e-19    0.0023076518       54.676548   5.8083066e-09   9.9708218e-13
     0.11771772               0               0               0   -0.0045628616  -4.6591583e-08  -1.1622748e-18    0.0021420441       52.168138   5.2857714e-09   9.5910277e-13
     0.11981982               0               0               0   -0.0044564893  -4.0234618e-08  -2.5026805e-19    0.0019969768       49.921077   4.8353877e-09   9.2533318e-13
     0.12192192               0               0               0   -0.0043667672  -3.5604999e-08               0    0.0018870339       48.070867   4.4836396e-09   8.9727445e-13
     0.12402402               0               0               0    -0.004283342  -3.1628657e-08               0    0.0017903749       46.370744   4.1691951e-09   8.7137555e-13
     0.12612613               0               0               0   -0.0042119333  -2.8463915e-08               0    0.0017163424       44.946332   3.9173169e-09   8.4948683e-13
     0.12822823               0               0               0   -0.0041448861  -2.5593752e-08               0    0.0016505224       43.621993   3.6881479e-09   8.2905366e-13
     0.13033033               0               0               0   -0.0040866956  -2.3258077e-08               0    0.0015954725        42.49071   3.4996072e-09   8.1150656e-13
     0.13243243               0               0               0   -0.0040318956  -2.1127006e-08               0    0.0015445456       41.433329   3.3266192e-09   7.9506428e-13
     0.13453453               0               0               0   -0.0039834605  -1.9366857e-08  -3.1993266e-19    0.0015004474       40.510099   3.1801724e-09   7.8065737e-13
     0.13663664               0               0               0   -0.0039378413  -1.7770795e-08  -7.8139758e-19    0.0014593702       39.646214   3.0454668e-09   7.6715086e-13
     0.13873874               0               0               0   -0.0038967246  -1.6417081e-08  -9.4597242e-19    0.0014231622       38.875103   2.9281768e-09    7.550618e-13
     0.14084084               0               0               0   -0.0038581038  -1.5197708e-08  -9.4597251e-19    0.0013896533       38.155419   2.8205406e-09   7.4375848e-13
     0.14294294               0               0               0   -0.0038226145  -1.4130864e-08  -8.7985762e-19    0.0013601802       37.499031   2.7242509e-09   7.3342758e-13
     0.14504505               0               0               0   -0.0037894623  -1.3177862e-08  -7.6439743e-19    0.0013337192       36.889883   2.6364297e-09   7.2382246e-13
     0.14714715               0               0               0   -0.0037584047  -1.2318136e-08  -5.6413306e-19    0.0013099284       36.322367   2.5557729e-09   7.1486001e-13
     0.14924925               0               0               0   -0.0037296135  -1.1559338e-08  -2.7210673e-19    0.0012890268       35.799898   2.4828684e-09   7.0659297e-13
     0.15135135               0               0               0   -0.0037021156  -1.0853545e-08  -5.9755823e-20    0.0012692199       35.302772    2.414168e-09   6.9871848e-13
     0.15345345               0               0               0   -0.0036768617   -1.023973e-08   1.4337814e-20    0.0012513122        34.84962    2.352763e-09   6.9152516e-13
     0.15555556               0               0               0   -0.0036522717  -9.6509178e-09   6.5203638e-21    0.0012339423       34.409314   2.2934192e-09   6.8453143e-13
     0.15765766               0               0               0   -0.0036299337  -9.1469077e-09  -2.7912388e-19    0.0012183959       34.012577   2.2410665e-09   6.7821468e-13
     0.15975976               0               0               0   -0.0036077559  -8.6484824e-09   -5.164744e-19    0.0012030109       33.618903   2.1891904e-09   6.7194568e-13
     0.16186186               0               0               0   -0.0035878552  -8.2294168e-09  -6.7572073e-20     0.001189918       33.268741   2.1440874e-09   6.6635515e-13
     0.16396396               0               0               0   -0.0035679545  -7.8103511e-09   3.8133025e-19    0.0011768251       32.918579   2.0989843e-09   6.6076462e-13
     0.16606607               0               0               0    -0.003549864  -7.4503422e-09   4.3570814e-19    0.0011654093       32.602616   2.0590581e-09   6.5570911e-13
     0.16816817               0               0               0    -0.003532023  -7.0984731e-09    4.357082e-19    0.0011542247       32.291365   2.0198454e-09   6.5072734e-13
     0.17027027               0               0               0   -0.0035153523  -6.7824633e-09   2.5321894e-19    0.0011440181       32.002003   1.9838622e-09   6.4608893e-13
     0.17237237               0               0               0   -0.0034992683  -6.4844257e-09  -2.0731335e-20    0.0011343016        31.72361   1.9494976e-09    6.416226e-13
     0.17447447               0               0               0   -0.0034838293  -6.2049394e-09  -1.7780696e-19     0.001125154        31.45717    1.916855e-09   6.3734423e-13
     0.17657658               0               0               0   -0.0034692574  -5.9503854e-09  -1.7780699e-19    0.0011167708       31.206792   1.8865266e-09   6.3331847e-13
     0.17867868               0               0               0   -0.0034548945  -5.7014931e-09  -1.8596852e-19    0.0011085547       30.960254   1.8567394e-09   6.2935324e-13
     0.18078078               0               0               0   -0.0034416348  -5.4824698e-09  -2.3718722e-19    0.0011012202       30.733974   1.8298069e-09   6.2570736e-13
     0.18288288               0               0               0   -0.0034283751  -5.2634465e-09  -2.8840591e-19    0.0010938857       30.507694   1.8028744e-09   6.2206147e-13
     0.18498498               0               0               0   -0.0034161055  -5.0696893e-09  -1.9493353e-19    0.0010873947       30.299455   1.7784316e-09   6.1870054e-13
     0.18708709               0               0               0   -0.0034039927  -4.8799334e-09  -7.8546336e-20    0.0010810374       30.094072   1.7543832e-09   6.1538473e-13
     0.18918919               0               0               0   -0.0033924224  -4.7032547e-09   4.2652487e-20    0.0010750882         29.8985   1.7316624e-09   6.1222417e-13
     0.19129129               0               0               0   -0.0033813191  -4.5378338e-09   1.6799359e-19    0.0010694905       29.711372   1.7100844e-09   6.0919726e-13
     0.19339339               0               0               0   -0.0033703773  -4.3761092e-09   2.5024718e-19    0.0010639716       29.527142   1.6888914e-09    6.062163e-13
      0.1954955               0               0               0    -0.003360168   -4.231162e-09   1.3692956e-19    0.0010588105       29.356066   1.6694458e-09   6.0344386e-13
      0.1975976               0               0               0   -0.0033499587  -4.0862147e-09   2.3611949e-20    0.0010536494       29.184989   1.6500002e-09   6.0067143e-13
      0.1996997               0               0               0   -0.0033403794   -3.954955e-09               0    0.0010488934        29.02515   1.6320217e-09   5.9807742e-13
      0.2018018               0               0               0   -0.0033309659  -3.8272982e-09               0     0.001044244        28.86827   1.6144294e-09   5.9553038e-13
      0.2039039               0               0               0   -0.0033218154  -3.7050729e-09  -2.9526036e-20    0.0010397852       28.716053   1.5974358e-09    5.930575e-13
     0.20600601               0               0               0   -0.0033131139  -3.5921173e-09  -1.0944167e-19    0.0010356517       28.571794   1.5814639e-09   5.9071118e-13
     0.20810811               0               0               0   -0.0033044125  -3.4791617e-09  -1.8935731e-19    0.0010315181       28.427536   1.5654921e-09   5.8836487e-13
     0.21021021               0               0               0   -0.0032962952  -3.3777695e-09  -1.9632491e-19    0.0010276326       28.293569   1.5508209e-09   5.8618251e-13
     0.21231231               0               0               0   -0.0032882338  -3.2774819e-09  -1.9632494e-19    0.0010237708       28.160586   1.5362739e-09   5.8401582e-13
     0.21441441               0               0               0    -0.003280415  -3.1817935e-09  -1.6369672e-19    0.0010200339       28.031854   1.5222563e-09   5.8191694e-13
     0.21651652               0               0               0   -0.0032729308  -3.0924462e-09  -8.6083243e-20    0.0010164695       27.908986   1.5089686e-09   5.7991157e-13
     0.21861862               0               0               0   -0.0032654466  -3.0030989e-09   -8.469766e-21    0.0010129051       27.786118   1.4956809e-09   5.7790619e-13
     0.22072072               0               0               0   -0.0032584281  -2.9221753e-09               0    0.0010097078       27.671365    1.483389e-09   5.7603042e-13
     0.22282282               0               0               0   -0.0032514666  -2.8422835e-09               0    0.0010065555       27.557606   1.4712192e-09   5.7417052e-13
     0.22492492               0               0               0   -0.0032446584  -2.7650628e-09               0    0.0010034841       27.446505   1.4593711e-09   5.7235313e-13
     0.22702703               0               0               0   -0.0032381719  -2.6934442e-09               0    0.0010005827       27.340978   1.4481978e-09   5.7062491e-13
     0.22912913               0               0               0   -0.0032316853  -2.6218256e-09               0   0.00099768126       27.235451   1.4370245e-09   5.6889668e-13
     0.23123123               0               0               0   -0.0032255081  -2.5554147e-09  -3.7140245e-20   0.00099485756        27.13526   1.4264887e-09   5.6725391e-13
     0.23333333               0               0               0   -0.0032194543  -2.4910807e-09   -8.909186e-20   0.00099206488       27.037197   1.4162072e-09   5.6564522e-13
     0.23543544               0               0               0   -0.0032134263  -2.4271657e-09  -1.3450833e-19   0.00098928411       26.939578   1.4059781e-09   5.6404365e-13
     0.23753754               0               0               0   -0.0032077676  -2.3692309e-09  -8.6667146e-20   0.00098667337         26.8483   1.3964973e-09   5.6254375e-13
     0.23963964               0               0               0    -0.003202109  -2.3112961e-09  -3.8825966e-20   0.00098406263       26.757023   1.3870166e-09   5.6104385e-13
     0.24174174               0               0               0   -0.0031965853  -2.2554634e-09   9.9274792e-21   0.00098154755       26.668053   1.3778049e-09   5.5958099e-13
     0.24384384               0               0               0   -0.0031912886  -2.2031635e-09   6.0214162e-20   0.00097919323       26.582962   1.3690455e-09   5.5818039e-13
     0.24594595               0               0               0   -0.0031859918  -2.1508637e-09   1.1050084e-19   0.00097683892       26.497871   1.3602862e-09   5.5677978e-13
     0.24804805               0               0               0   -0.0031809064  -2.1017495e-09   9.9383355e-20   0.00097458712       26.416375   1.3519412e-09   5.5543696e-13
     0.25015015               0               0               0    -0.003175942  -2.0544594e-09    5.310782e-20   0.00097239401       26.336936   1.3438335e-09   5.5412723e-13
     0.25225225               0               0               0   -0.0031709775  -2.0071693e-09   6.8322849e-21   0.00097020091       26.257498   1.3357258e-09    5.528175e-13
     0.25435435               0               0               0   -0.0031662736  -1.9636983e-09               0   0.00096805405       26.182473   1.3281214e-09    5.515788e-13
     0.25645646               0               0               0   -0.0031616148  -1.9208888e-09               0    0.0009659152       26.108211    1.320604e-09    5.503524e-13
     0.25855856               0               0               0   -0.0031569619  -1.8781617e-09   7.1500317e-22   0.00096377782       26.034048   1.3130977e-09   5.4912758e-13
     0.26066066               0               0               0   -0.0031525846  -1.8393511e-09   3.5432509e-20   0.00096171027       25.964537   1.3061165e-09   5.4797774e-13
     0.26276276               0               0               0   -0.0031482074  -1.8005404e-09   7.0150016e-20   0.00095964272       25.895027   1.2991353e-09   5.4682789e-13
     0.26486486               0               0               0   -0.0031438662  -1.7622246e-09   1.0005118e-19    0.0009575939       25.826122   1.2922218e-09   5.4568782e-13
     0.26696697               0               0               0   -0.0031397488  -1.7269815e-09    1.000512e-19   0.00095566131       25.760979   1.2857286e-09   5.4460842e-13
     0.26906907               0               0               0   -0.0031356314  -1.6917383e-09   1.0005123e-19   0.00095372873       25.695836   1.2792353e-09   5.4352903e-13
     0.27117117               0               0               0   -0.0031315632  -1.6571502e-09   9.3194459e-20    0.0009518248       25.631516   1.2728332e-09   5.4246293e-13
     0.27327327               0               0               0   -0.0031276861   -1.625106e-09    5.971124e-20   0.00095003214       25.570394    1.266785e-09    5.414485e-13
     0.27537538               0               0               0    -0.003123809  -1.5930618e-09   2.6228021e-20   0.00094823949       25.509272   1.2607368e-09   5.4043406e-13
     0.27747748               0               0               0   -0.0031199801  -1.5616431e-09  -5.9610568e-21   0.00094645793       25.448954   1.2547767e-09   5.3943263e-13
     0.27957958               0               0               0   -0.0031163254   -1.532486e-09  -3.3471729e-20   0.00094471646        25.39154   1.2491351e-09   5.3847821e-13
     0.28168168               0               0               0   -0.0031126708  -1.5033289e-09  -6.0982401e-20   0.00094297499       25.334127   1.2434936e-09   5.3752378e-13
     0.28378378               0               0               0   -0.0031090517  -1.4746218e-09  -8.3754295e-20   0.00094123489       25.277303   1.2379162e-09   5.3657891e-13
     0.28588589               0               0               0   -0.0031056033  -1.4480775e-09  -8.3754318e-20    0.0009395014       25.223315   1.2326469e-09   5.3567997e-13
     0.28798799               0               0               0   -0.0031021549  -1.4215331e-09   -8.375434e-20    0.0009377679       25.169326   1.2273776e-09   5.3478103e-13
     0.29009009               0               0               0   -0.0030987198   -1.395152e-09  -8.1922214e-20   0.00093603714       25.115557    1.222132e-09   5.3388565e-13
     0.29219219               0               0               0   -0.0030954628  -1.3709658e-09  -5.5451536e-20   0.00093434309       25.064735   1.2172041e-09   5.3303808e-13
     0.29429429               0               0               0   -0.0030922057  -1.3467797e-09  -2.8980858e-20   0.00093264903       25.013914   1.2122762e-09   5.3219051e-13
      0.2963964               0               0               0   -0.0030889487  -1.3225935e-09  -2.5101799e-21   0.00093095498       24.963092   1.2073483e-09   5.3134294e-13
      0.2984985               0               0               0   -0.0030858526  -1.3003304e-09               0   0.00092933186       24.914924   1.2027042e-09   5.3053848e-13
      0.3006006               0               0               0   -0.0030827734  -1.2782687e-09               0   0.00092771618       24.867035   1.1980898e-09   5.2973853e-13
      0.3027027               0               0               0   -0.0030796941   -1.256207e-09               0   0.00092610049       24.819145   1.1934754e-09   5.2893858e-13
      0.3048048               0               0               0    -0.003076727  -1.2354486e-09   1.3782446e-20    0.0009245423       24.773097   1.1890565e-09   5.2816859e-13
     0.30690691               0               0               0   -0.0030738132  -1.2153102e-09   3.4122345e-20   0.00092301147       24.727925   1.1847304e-09   5.2741285e-13
     0.30900901               0               0               0   -0.0030708993  -1.1951719e-09   5.4462244e-20   0.00092148063       24.682753   1.1804044e-09   5.2665711e-13
     0.31111111               0               0               0   -0.0030680447  -1.1757058e-09   6.3369622e-20   0.00091995921       24.638549   1.1761804e-09   5.2591715e-13
     0.31321321               0               0               0   -0.0030652849  -1.1573186e-09   5.3927419e-20    0.0009184529       24.595898   1.1721199e-09    5.252025e-13
     0.31531532               0               0               0   -0.0030625251  -1.1389314e-09   4.4485217e-20   0.00091694659       24.553248   1.1680595e-09   5.2448785e-13
     0.31741742               0               0               0   -0.0030597684   -1.120578e-09   3.5201407e-20   0.00091544008       24.510647   1.1640043e-09   5.2377401e-13
     0.31951952               0               0               0   -0.0030571522   -1.103785e-09   3.3236745e-20   0.00091392473       24.470338   1.1601888e-09   5.2309758e-13
     0.32162162               0               0               0    -0.003054536  -1.0869921e-09   3.1272084e-20   0.00091240938       24.430029   1.1563733e-09   5.2242115e-13
     0.32372372               0               0               0   -0.0030519198  -1.0701992e-09   2.9307422e-20   0.00091089403       24.389721   1.1525578e-09   5.2174472e-13
     0.32582583               0               0               0   -0.0030493821   -1.054256e-09   3.3802296e-20   0.00090938505       24.350689   1.1488749e-09   5.2108917e-13
     0.32792793               0               0               0   -0.0030468998  -1.0389117e-09   4.2849401e-20   0.00090788055       24.312557   1.1452856e-09   5.2044832e-13
     0.33003003               0               0               0   -0.0030444175  -1.0235673e-09   5.1896506e-20   0.00090637606       24.274426   1.1416962e-09   5.1980747e-13
     0.33213213               0               0               0   -0.0030419448  -1.0083242e-09   5.8952933e-20   0.00090487439        24.23645    1.138123e-09   5.1916917e-13
     0.33423423               0               0               0   -0.0030395876  -9.9429354e-10   4.2160886e-20   0.00090340658       24.200345   1.1347428e-09   5.1856148e-13
     0.33633634               0               0               0   -0.0030372303  -9.8026287e-10   2.5368839e-20   0.00090193877       24.164239   1.1313625e-09    5.179538e-13
     0.33843844               0               0               0    -0.003034873   -9.662322e-10   8.5767921e-21   0.00090047096       24.128134   1.1279823e-09   5.1734611e-13
     0.34054054               0               0               0   -0.0030325729  -9.5278661e-10  -1.0341897e-20   0.00089902986       24.092952   1.1246968e-09   5.1675355e-13
     0.34264264               0               0               0   -0.0030303325  -9.3995184e-10  -3.1480816e-20   0.00089761663       24.058733   1.1215101e-09    5.161768e-13
     0.34474474               0               0               0   -0.0030280921  -9.2711708e-10  -5.2619736e-20    0.0008962034       24.024515   1.1183234e-09   5.1560005e-13
     0.34684685               0               0               0   -0.0030258517  -9.1428231e-10  -7.3758656e-20   0.00089479017       23.990297   1.1151368e-09    5.150233e-13
     0.34894895               0               0               0   -0.0030237008  -9.0234166e-10  -7.7569175e-20   0.00089339715       23.957521   1.1120972e-09   5.1447024e-13
     0.35105105               0               0               0   -0.0030215696  -8.9059763e-10  -7.7569205e-20   0.00089200858       23.925062   1.1090899e-09   5.1392238e-13
     0.35315315               0               0               0   -0.0030194385  -8.7885359e-10  -7.7569235e-20   0.00089062001       23.892603   1.1060826e-09   5.1337452e-13