/*--------------------------------*- C++ -*----------------------------------*\
  =========                 |
  \\      /  F ield         | OpenFOAM: The Open Source CFD Toolbox
   \\    /   O peration     | Website:  https://openfoam.org
    \\  /    A nd           | Version:  12
     \\/     M anipulation  |
\*---------------------------------------------------------------------------*/
FoamFile
{
    format      ascii;
    class       volScalarField;
    location    "1400";
    object      nut;
}
// * * * * * * * * * * * * * * * * * * * * * * * * * * * * * * * * * * * * * //

dimensions      [0 2 -1 0 0 0 0];

internalField   nonuniform List<scalar> 
7480
(
1.0931244e-06
7.3041814e-07
5.7199e-07
5.3643887e-07
5.6221117e-07
6.3679235e-07
7.6854196e-07
9.7388239e-07
1.2749215e-06
1.6953501e-06
2.2547658e-06
2.9691595e-06
3.8439241e-06
4.8385344e-06
5.8326367e-06
6.6694742e-06
7.2498483e-06
7.5703447e-06
7.7075234e-06
7.6752577e-06
7.5840426e-06
7.4563154e-06
7.308784e-06
7.1660638e-06
7.0579381e-06
6.989747e-06
6.9533051e-06
6.9376692e-06
6.9351141e-06
6.9413382e-06
6.9525508e-06
6.9651494e-06
6.9772122e-06
6.9556388e-06
6.9189398e-06
6.882517e-06
6.8508275e-06
6.824707e-06
6.8030939e-06
6.7841637e-06
6.7663514e-06
6.7488456e-06
6.7314488e-06
6.7146243e-06
6.7011494e-06
6.6984773e-06
6.7348285e-06
6.8770862e-06
7.2283173e-06
7.8068531e-06
8.339667e-06
8.6826481e-06
8.9492265e-06
9.1464381e-06
9.2773762e-06
9.3600073e-06
9.4139531e-06
9.4530201e-06
9.4834789e-06
9.5089538e-06
9.5310026e-06
9.5503878e-06
9.567739e-06
9.5836788e-06
9.5985829e-06
9.6127834e-06
9.6266717e-06
9.6404698e-06
9.6542688e-06
9.6681616e-06
9.6822724e-06
9.6967357e-06
9.7116799e-06
9.7272241e-06
9.7434828e-06
9.7605671e-06
9.7785842e-06
9.7976386e-06
9.8178276e-06
9.8392371e-06
9.8619409e-06
9.8859841e-06
9.9112881e-06
9.936879e-06
9.9510595e-06
9.70398e-06
4.2981291e-06
4.0041089e-06
4.0299382e-06
4.0472777e-06
4.0577549e-06
4.0657739e-06
4.0712346e-06
4.074662e-06
4.0765889e-06
4.0774116e-06
4.0773632e-06
4.0766803e-06
4.0754215e-06
4.0712809e-06
1.4028174e-06
1.3356967e-06
1.2622404e-06
1.1891514e-06
1.1187023e-06
1.0527155e-06
9.9062012e-07
9.4223843e-07
8.9469522e-07
9.0983705e-07
9.5851639e-07
1.0506652e-06
1.2010194e-06
1.4314432e-06
1.7620241e-06
2.1980162e-06
2.7490248e-06
3.3836556e-06
4.0849447e-06
4.8513208e-06
5.6782019e-06
6.4678219e-06
7.1930936e-06
7.858749e-06
8.4624204e-06
9.0045672e-06
9.4892308e-06
9.9230722e-06
1.0317993e-05
1.0685968e-05
1.1030316e-05
1.1351e-05
1.1644363e-05
1.1904703e-05
1.2135039e-05
1.2344671e-05
1.2543513e-05
1.2745782e-05
1.2956534e-05
1.3174652e-05
1.3396988e-05
1.3621016e-05
1.3844712e-05
1.4065714e-05
1.4285097e-05
1.4485977e-05
1.4678673e-05
1.4891886e-05
1.5170753e-05
1.5542942e-05
1.5949741e-05
1.6319468e-05
1.6637893e-05
1.6904213e-05
1.7128257e-05
1.7320794e-05
1.7490769e-05
1.7646117e-05
1.7792555e-05
1.7934085e-05
1.8070963e-05
1.8202834e-05
1.8329949e-05
1.8453138e-05
1.8572629e-05
1.868898e-05
1.8803205e-05
1.8915729e-05
1.902658e-05
1.9135842e-05
1.924373e-05
1.9350508e-05
1.9456439e-05
1.9561765e-05
1.9666717e-05
1.9771519e-05
1.9876381e-05
1.9981509e-05
2.0087089e-05
2.0193287e-05
2.0300245e-05
2.0408051e-05
2.0516541e-05
2.0623839e-05
2.0707873e-05
2.0527869e-05
1.7373032e-05
1.5971913e-05
1.4918069e-05
1.4262042e-05
1.3827336e-05
1.3533089e-05
1.3325694e-05
1.3175666e-05
1.3064628e-05
1.2980826e-05
1.2916205e-05
1.2865661e-05
1.2825094e-05
1.2791659e-05
1.4353983e-06
1.4119414e-06
1.3858821e-06
1.3585306e-06
1.3302628e-06
1.3005322e-06
1.2690762e-06
1.2358446e-06
1.2007834e-06
1.1662778e-06
1.1335106e-06
1.1038647e-06
1.0791694e-06
1.0612443e-06
1.0443809e-06
1.0465528e-06
1.0628158e-06
1.121676e-06
1.2343907e-06
1.4136045e-06
1.6760623e-06
2.0379369e-06
2.5020003e-06
3.0880615e-06
3.7652937e-06
4.5270391e-06
5.3866923e-06
6.2943954e-06
7.2122291e-06
8.1122245e-06
8.9714009e-06
9.7710872e-06
1.0485983e-05
1.1131971e-05
1.1738799e-05
1.2325446e-05
1.2894627e-05
1.3445425e-05
1.3972713e-05
1.447974e-05
1.4970488e-05
1.5448697e-05
1.5914953e-05
1.6367611e-05
1.6807101e-05
1.7230691e-05
1.7636901e-05
1.8029086e-05
1.8426495e-05
1.8840629e-05
1.9265314e-05
1.9688502e-05
2.0093337e-05
2.0475866e-05
2.0838481e-05
2.118231e-05
2.1507995e-05
2.182008e-05
2.2124179e-05
2.2423754e-05
2.2715788e-05
2.2999133e-05
2.3274019e-05
2.3541474e-05
2.3801038e-05
2.4053738e-05
2.4301161e-05
2.4543475e-05
2.4780431e-05
2.5012036e-05
2.5238499e-05
2.5460088e-05
2.5677058e-05
2.5889647e-05
2.6098077e-05
2.6302568e-05
2.6503329e-05
2.670057e-05
2.6894493e-05
2.7085287e-05
2.7273136e-05
2.7458191e-05
2.7640419e-05
2.7818713e-05
2.7979387e-05
2.7998777e-05
2.6868265e-05
2.6273667e-05
2.5821104e-05
2.5545162e-05
2.5377921e-05
2.5283199e-05
2.5232109e-05
2.5207451e-05
2.5198558e-05
2.5199417e-05
2.5204326e-05
2.5215342e-05
2.5215611e-05
2.5249662e-05
1.4450691e-06
1.433294e-06
1.4204385e-06
1.4069794e-06
1.3930223e-06
1.37857e-06
1.3636214e-06
1.3480342e-06
1.3317672e-06
1.3146166e-06
1.2964989e-06
1.2773173e-06
1.2570669e-06
1.2360625e-06
1.215122e-06
1.1947234e-06
1.1750984e-06
1.1570778e-06
1.1424931e-06
1.1321601e-06
1.1265301e-06
1.1310077e-06
1.1471254e-06
1.1888327e-06
1.2791304e-06
1.43207e-06
1.6679558e-06
2.0069549e-06
2.4635903e-06
3.064134e-06
3.80337e-06
4.6605254e-06
5.6349635e-06
6.6731454e-06
7.7280343e-06
8.7656699e-06
9.7639131e-06
1.0712094e-05
1.1610415e-05
1.2465282e-05
1.3285497e-05
1.4080097e-05
1.4844861e-05
1.557963e-05
1.6301422e-05
1.7012268e-05
1.7700801e-05
1.8364594e-05
1.9009564e-05
1.9640469e-05
2.0259437e-05
2.0865749e-05
2.1458537e-05
2.2036001e-05
2.2595932e-05
2.3136831e-05
2.3658279e-05
2.4169656e-05
2.4675007e-05
2.5175232e-05
2.5660626e-05
2.6132763e-05
2.6592762e-05
2.7041935e-05
2.7478301e-05
2.7904906e-05
2.8323485e-05
2.8733215e-05
2.9133702e-05
2.9525078e-05
2.9907604e-05
3.0281529e-05
3.0647078e-05
3.1004449e-05
3.1353819e-05
3.1695356e-05
3.2029213e-05
3.2355536e-05
3.2674466e-05
3.2986132e-05
3.3290666e-05
3.3588183e-05
3.38787e-05
3.4161918e-05
3.4432325e-05
3.4648863e-05
3.4505176e-05
3.4473116e-05
3.4462161e-05
3.4502607e-05
3.4582922e-05
3.4693713e-05
3.4823027e-05
3.4961979e-05
3.5104337e-05
3.5247264e-05
3.5385221e-05
3.5527948e-05
3.5633999e-05
3.5847012e-05
1.4498724e-06
1.4428713e-06
1.4353112e-06
1.4274158e-06
1.4192309e-06
1.4107594e-06
1.4019964e-06
1.3929313e-06
1.3835545e-06
1.3738432e-06
1.3637671e-06
1.3532873e-06
1.3423612e-06
1.3309368e-06
1.3190313e-06
1.306612e-06
1.293697e-06
1.2801571e-06
1.2659486e-06
1.2513674e-06
1.2368873e-06
1.22278e-06
1.2093015e-06
1.1971056e-06
1.1881938e-06
1.1798438e-06
1.1810323e-06
1.1882972e-06
1.2106452e-06
1.2538679e-06
1.3500944e-06
1.5208779e-06
1.7934794e-06
2.1949318e-06
2.7440839e-06
3.4817987e-06
4.3672447e-06
5.3894569e-06
6.5248053e-06
7.715942e-06
8.9174441e-06
1.0095728e-05
1.1231399e-05
1.2318896e-05
1.336431e-05
1.437906e-05
1.5369304e-05
1.6334013e-05
1.7271708e-05
1.8183e-05
1.9070657e-05
1.9932242e-05
2.0779286e-05
2.1605742e-05
2.241179e-05
2.3197548e-05
2.3962596e-05
2.4710207e-05
2.5443518e-05
2.6165083e-05
2.6872018e-05
2.7563625e-05
2.8239979e-05
2.8902228e-05
2.9544833e-05
3.0178214e-05
3.0801104e-05
3.1410499e-05
3.2006929e-05
3.2590922e-05
3.316283e-05
3.3722927e-05
3.4271454e-05
3.4808623e-05
3.5334625e-05
3.5849631e-05
3.6353798e-05
3.6847268e-05
3.7330174e-05
3.7802636e-05
3.8264774e-05
3.8716702e-05
3.9158466e-05
3.9590141e-05
4.0009892e-05
4.0407491e-05
4.0701182e-05
4.1005239e-05
4.1293353e-05
4.1580774e-05
4.1872946e-05
4.2172152e-05
4.2475628e-05
4.2779521e-05
4.3080103e-05
4.3376307e-05
4.3661798e-05
4.3953498e-05
4.418192e-05
4.4608899e-05
1.4529224e-06
1.4483464e-06
1.4434362e-06
1.4383152e-06
1.4330077e-06
1.4275141e-06
1.4218288e-06
1.4159455e-06
1.4098581e-06
1.4035598e-06
1.3970448e-06
1.3903065e-06
1.383339e-06
1.3761347e-06
1.3686844e-06
1.360975e-06
1.352993e-06
1.3447188e-06
1.3361216e-06
1.3271691e-06
1.317853e-06
1.3081381e-06
1.298079e-06
1.2873346e-06
1.276211e-06
1.2649268e-06
1.2538512e-06
1.2432111e-06
1.2332288e-06
1.2254141e-06
1.2171332e-06
1.2173649e-06
1.2221356e-06
1.2384963e-06
1.2752518e-06
1.3501109e-06
1.5004872e-06
1.7573916e-06
2.1572044e-06
2.7261127e-06
3.5222541e-06
4.5000923e-06
5.6453396e-06
6.9241756e-06
8.2703975e-06
9.6300519e-06
1.0965722e-05
1.226021e-05
1.3512689e-05
1.4729714e-05
1.5917428e-05
1.7077065e-05
1.8209013e-05
1.9314672e-05
2.0395363e-05
2.1452385e-05
2.2485714e-05
2.3495881e-05
2.448492e-05
2.5455596e-05
2.6408364e-05
2.7342963e-05
2.8259237e-05
2.9158012e-05
3.0036769e-05
3.0899421e-05
3.1747065e-05
3.2579008e-05
3.3395163e-05
3.4195825e-05
3.4981346e-05
3.575204e-05
3.6508189e-05
3.7250048e-05
3.7977849e-05
3.86918e-05
3.9392089e-05
4.0078886e-05
4.0752349e-05
4.1412619e-05
4.2059836e-05
4.2694127e-05
4.3315574e-05
4.3924379e-05
4.4520113e-05
4.5101806e-05
4.5653329e-05
4.619555e-05
4.6714874e-05
4.7215364e-05
4.7704092e-05
4.8186922e-05
4.86655e-05
4.9138977e-05
4.9605148e-05
5.0064077e-05
5.0508218e-05
5.096151e-05
5.1324135e-05
5.1990191e-05
1.4551571e-06
1.4519649e-06
1.4485584e-06
1.4450108e-06
1.441336e-06
1.4375338e-06
1.4336001e-06
1.4295304e-06
1.4253199e-06
1.4209634e-06
1.4164565e-06
1.4117946e-06
1.406974e-06
1.4019917e-06
1.3968446e-06
1.3915293e-06
1.3860413e-06
1.380375e-06
1.3745235e-06
1.3684768e-06
1.362224e-06
1.3557504e-06
1.3490446e-06
1.3420821e-06
1.3348336e-06
1.3272936e-06
1.3194356e-06
1.3112593e-06
1.3027328e-06
1.2938521e-06
1.2845988e-06
1.2754628e-06
1.2666633e-06
1.2583717e-06
1.2519639e-06
1.2454634e-06
1.2460856e-06
1.2514791e-06
1.2691229e-06
1.3094021e-06
1.3900321e-06
1.5592394e-06
1.8580304e-06
2.3305199e-06
3.0219934e-06
3.9726671e-06
5.1366529e-06
6.4941862e-06
7.9706704e-06
9.4947213e-06
1.1010602e-05
1.2488422e-05
1.3923245e-05
1.5322696e-05
1.6693896e-05
1.8038759e-05
1.9356263e-05
2.0646177e-05
2.1910123e-05
2.315039e-05
2.4368203e-05
2.5564093e-05
2.6738429e-05
2.7891965e-05
2.9023916e-05
3.0135193e-05
3.1227182e-05
3.2300384e-05
3.3354919e-05
3.4391025e-05
3.5409033e-05
3.6409283e-05
3.73921e-05
3.8357788e-05
3.9306626e-05
4.0238867e-05
4.1154744e-05
4.2054467e-05
4.293823e-05
4.380621e-05
4.4658575e-05
4.5495478e-05
4.6317034e-05
4.7123474e-05
4.7914859e-05
4.8692156e-05
4.9456107e-05
5.0207741e-05
5.0937424e-05
5.1643221e-05
5.2329513e-05
5.3002108e-05
5.3664463e-05
5.4317579e-05
5.4960358e-05
5.5593792e-05
5.6209034e-05
5.6837144e-05
5.7346064e-05
5.8274447e-05
1.4569456e-06
1.4546132e-06
1.4521353e-06
1.449558e-06
1.4468898e-06
1.4441303e-06
1.4412765e-06
1.4383253e-06
1.4352732e-06
1.4321167e-06
1.4288523e-06
1.4254767e-06
1.4219868e-06
1.4183798e-06
1.4146531e-06
1.410804e-06
1.4068293e-06
1.4027254e-06
1.3984877e-06
1.3941112e-06
1.3895905e-06
1.3849201e-06
1.3800936e-06
1.3751053e-06
1.369948e-06
1.3646135e-06
1.3590916e-06
1.3533705e-06
1.3474385e-06
1.341274e-06
1.3348684e-06
1.3281921e-06
1.3212424e-06
1.3140001e-06
1.3064421e-06
1.2985764e-06
1.2908442e-06
1.2834237e-06
1.2767315e-06
1.2717697e-06
1.2681017e-06
1.2702181e-06
1.2794066e-06
1.3058584e-06
1.3624346e-06
1.4865137e-06
1.7319938e-06
2.1584351e-06
2.8159247e-06
3.7881669e-06
5.0191179e-06
6.4818202e-06
8.1005417e-06
9.7852865e-06
1.1467507e-05
1.3113477e-05
1.4719452e-05
1.6293539e-05
1.7841157e-05
1.9362656e-05
2.0857518e-05
2.2326819e-05
2.3771931e-05
2.5193549e-05
2.6591379e-05
2.796563e-05
2.9317219e-05
3.0646851e-05
3.1954917e-05
3.3241771e-05
3.4507754e-05
3.5753196e-05
3.6978444e-05
3.8183834e-05
3.9369674e-05
4.0536253e-05
4.1683842e-05
4.2812686e-05
4.3923014e-05
4.501504e-05
4.6088959e-05
4.7144952e-05
4.8183162e-05
4.9203813e-05
5.020713e-05
5.119396e-05
5.2168021e-05
5.3128487e-05
5.4068721e-05
5.4984416e-05
5.5876912e-05
5.6750519e-05
5.7609047e-05
5.8454588e-05
5.9286926e-05
6.0107938e-05
6.0907525e-05
6.1724076e-05
6.2391687e-05
6.360458e-05
1.4584778e-06
1.4567132e-06
1.4548456e-06
1.452905e-06
1.4508969e-06
1.4488208e-06
1.4466746e-06
1.4444559e-06
1.4421623e-06
1.4397911e-06
1.4373399e-06
1.4348061e-06
1.4321874e-06
1.4294816e-06
1.4266867e-06
1.4238003e-06
1.4208199e-06
1.4177427e-06
1.4145652e-06
1.4112836e-06
1.4078939e-06
1.4043921e-06
1.4007739e-06
1.397035e-06
1.3931712e-06
1.3891779e-06
1.3850506e-06
1.3807845e-06
1.3763744e-06
1.3718144e-06
1.3670986e-06
1.3622182e-06
1.3571625e-06
1.3519211e-06
1.3464738e-06
1.3408127e-06
1.3349076e-06
1.3287838e-06
1.3222909e-06
1.3155642e-06
1.3087512e-06
1.3021577e-06
1.2959143e-06
1.2910333e-06
1.2866794e-06
1.2878239e-06
1.2943969e-06
1.3153695e-06
1.3652247e-06
1.4737428e-06
1.7112639e-06
2.1488155e-06
2.8508502e-06
3.9164855e-06
5.2833165e-06
6.9151025e-06
8.7112774e-06
1.0568201e-05
1.2413522e-05
1.4220016e-05
1.5991002e-05
1.773582e-05
1.9457105e-05
2.1153346e-05
2.2823915e-05
2.4469485e-05
2.6090568e-05
2.7687354e-05
2.9260245e-05
3.0809698e-05
3.2335988e-05
3.383936e-05
3.5320132e-05
3.6778608e-05
3.8215068e-05
3.96298e-05
4.1023077e-05
4.2395153e-05
4.3746271e-05
4.5076663e-05
4.6386538e-05
4.7676089e-05
4.8945482e-05
5.0194916e-05
5.1424659e-05
5.263507e-05
5.3829408e-05
5.5008139e-05
5.6167324e-05
5.7302393e-05
5.8412459e-05
5.9499978e-05
6.0568276e-05
6.1619941e-05
6.2655424e-05
6.3677464e-05
6.4674798e-05
6.5693356e-05
6.6532035e-05
6.8050665e-05
1.4598626e-06
1.4584909e-06
1.4570437e-06
1.4555412e-06
1.453987e-06
1.4523805e-06
1.4507204e-06
1.4490047e-06
1.4472316e-06
1.4453992e-06
1.4435055e-06
1.4415487e-06
1.439527e-06
1.4374386e-06
1.4352818e-06
1.4330549e-06
1.430756e-06
1.4283826e-06
1.4259323e-06
1.4234022e-06
1.4207893e-06
1.4180904e-06
1.4153023e-06
1.4124217e-06
1.4094451e-06
1.4063693e-06
1.4031907e-06
1.3999057e-06
1.3965107e-06
1.393002e-06
1.3893755e-06
1.385627e-06
1.3817519e-06
1.3777454e-06
1.3736019e-06
1.369316e-06
1.3648791e-06
1.3602838e-06
1.3555146e-06
1.3505534e-06
1.3453928e-06
1.3400193e-06
1.3344276e-06
1.3285714e-06
1.3224978e-06
1.3165869e-06
1.3109582e-06
1.3064701e-06
1.3025599e-06
1.3036595e-06
1.3102556e-06
1.331789e-06
1.3852379e-06
1.5074077e-06
1.7832996e-06
2.2983674e-06
3.1461362e-06
4.4013932e-06
5.9978658e-06
7.8644677e-06
9.8695513e-06
1.1902909e-05
1.3907112e-05
1.5873915e-05
1.7813392e-05
1.973047e-05
2.1623506e-05
2.3491277e-05
2.5334471e-05
2.715348e-05
2.8948089e-05
3.0718329e-05
3.2464406e-05
3.418643e-05
3.5884537e-05
3.755893e-05
3.9209798e-05
4.0837335e-05
4.2441746e-05
4.4023233e-05
4.5581978e-05
4.7118152e-05
4.8631915e-05
5.0123426e-05
5.1592937e-05
5.3040357e-05
5.4468e-05
5.5877435e-05
5.7266847e-05
5.8632434e-05
5.9972079e-05
6.1286548e-05
6.2578256e-05
6.3849799e-05
6.5102052e-05
6.6338541e-05
6.7546908e-05
6.8780811e-05
6.9802788e-05
7.1647605e-05
1.4611608e-06
1.4600712e-06
1.4589245e-06
1.4577348e-06
1.4565045e-06
1.4552332e-06
1.4539197e-06
1.4525626e-06
1.4511605e-06
1.4497118e-06
1.4482152e-06
1.446669e-06
1.445072e-06
1.4434228e-06
1.4417198e-06
1.4399619e-06
1.4381473e-06
1.4362742e-06
1.4343408e-06
1.4323448e-06
1.4302838e-06
1.4281556e-06
1.4259575e-06
1.4236869e-06
1.4213414e-06
1.4189182e-06
1.4164146e-06
1.4138278e-06
1.4111548e-06
1.4083927e-06
1.4055384e-06
1.4025885e-06
1.3995397e-06
1.3963883e-06
1.3931307e-06
1.3897633e-06
1.3862821e-06
1.382683e-06
1.3789621e-06
1.375114e-06
1.3711328e-06
1.3670099e-06
1.3627374e-06
1.3582983e-06
1.3536825e-06
1.3488715e-06
1.343866e-06
1.3386066e-06
1.3331441e-06
1.3278337e-06
1.3228337e-06
1.3188769e-06
1.3161778e-06
1.3180895e-06
1.3271833e-06
1.3557994e-06
1.4261935e-06
1.6000214e-06
1.9826965e-06
2.6687575e-06
3.8242869e-06
5.3885374e-06
7.3073041e-06
9.4435257e-06
1.1653315e-05
1.3848394e-05
1.6006907e-05
1.8138216e-05
2.02489e-05
2.2337251e-05
2.4401408e-05
2.6441596e-05
2.8457779e-05
3.0449453e-05
3.2416455e-05
3.4358763e-05
3.6276299e-05
3.8169068e-05
4.0037134e-05
4.1880566e-05
4.3699435e-05
4.5493819e-05
4.7263817e-05
4.900951e-05
5.073107e-05
5.2428032e-05
5.4101969e-05
5.5754978e-05
5.7386657e-05
5.8994316e-05
6.0575421e-05
6.2129465e-05
6.36578e-05
6.5162669e-05
6.6645102e-05
6.8109277e-05
6.9541775e-05
7.1004115e-05
7.2221462e-05
7.441233e-05
1.4623958e-06
1.4615148e-06
1.4605896e-06
1.4596303e-06
1.4586385e-06
1.4576139e-06
1.4565554e-06
1.455462e-06
1.4543326e-06
1.453166e-06
1.4519609e-06
1.4507163e-06
1.4494311e-06
1.448104e-06
1.4467341e-06
1.44532e-06
1.4438607e-06
1.4423545e-06
1.4408e-06
1.4391955e-06
1.437539e-06
1.4358288e-06
1.4340629e-06
1.4322391e-06
1.4303556e-06
1.4284101e-06
1.4264005e-06
1.4243246e-06
1.4221801e-06
1.4199647e-06
1.4176757e-06
1.4153107e-06
1.4128668e-06
1.4103413e-06
1.4077312e-06
1.4050336e-06
1.4022453e-06
1.3993634e-06
1.3963845e-06
1.3933055e-06
1.390123e-06
1.386833e-06
1.3834316e-06
1.379914e-06
1.3762756e-06
1.3725083e-06
1.368605e-06
1.3645493e-06
1.360331e-06
1.355932e-06
1.3513564e-06
1.3465349e-06
1.3416092e-06
1.3367869e-06
1.3327205e-06
1.3284498e-06
1.328735e-06
1.3329705e-06
1.3490821e-06
1.3960812e-06
1.5116687e-06
1.8096197e-06
2.4086698e-06
3.4646875e-06
5.0310245e-06
7.0263037e-06
9.3092923e-06
1.1702104e-05
1.4089647e-05
1.6440667e-05
1.8765117e-05
2.1070375e-05
2.3354355e-05
2.5615038e-05
2.7852381e-05
3.0065886e-05
3.2254825e-05
3.4418873e-05
3.6557762e-05
3.867123e-05
4.0759096e-05
4.2821219e-05
4.4857535e-05
4.6867967e-05
4.8852521e-05
5.0810357e-05
5.2742578e-05
5.4651423e-05
5.6537234e-05
5.8398365e-05
6.0232396e-05
6.2038018e-05
6.3815581e-05
6.5566735e-05
6.7292407e-05
6.8997247e-05
7.0666761e-05
7.2370402e-05
7.3795069e-05
7.635139e-05
1.4635681e-06
1.4628453e-06
1.4620877e-06
1.4613025e-06
1.4604909e-06
1.4596526e-06
1.4587867e-06
1.4578924e-06
1.4569687e-06
1.4560148e-06
1.4550297e-06
1.4540125e-06
1.4529622e-06
1.451878e-06
1.4507588e-06
1.4496038e-06
1.4484119e-06
1.4471819e-06
1.4459126e-06
1.4446027e-06
1.4432505e-06
1.4418548e-06
1.4404137e-06
1.4389259e-06
1.4373895e-06
1.4358029e-06
1.4341644e-06
1.4324722e-06
1.4307244e-06
1.4289192e-06
1.4270544e-06
1.4251282e-06
1.4231381e-06
1.4210821e-06
1.4189577e-06
1.4167626e-06
1.4144942e-06
1.4121501e-06
1.4097277e-06
1.4072242e-06
1.404637e-06
1.4019629e-06
1.399199e-06
1.396342e-06
1.3933887e-06
1.3903355e-06
1.3871785e-06
1.3839135e-06
1.3805358e-06
1.3770381e-06
1.3734136e-06
1.3696466e-06
1.3657273e-06
1.3616414e-06
1.3573708e-06
1.3528123e-06
1.3483571e-06
1.3441485e-06
1.3407248e-06
1.3387148e-06
1.3408859e-06
1.3515433e-06
1.3861852e-06
1.4778386e-06
1.729458e-06
2.2855862e-06
3.3171536e-06
4.9401857e-06
7.059087e-06
9.5151407e-06
1.2099516e-05
1.4679652e-05
1.7223422e-05
1.9742968e-05
2.2244678e-05
2.472567e-05
2.7184213e-05
2.9619983e-05
3.2031999e-05
3.4419358e-05
3.6781446e-05
3.9117694e-05
4.1427715e-05
4.3711141e-05
4.5967657e-05
4.8195964e-05
5.039687e-05
5.2572555e-05
5.4723558e-05
5.6848984e-05
5.8946766e-05
6.1015202e-05
6.3053822e-05
6.5063571e-05
6.7045053e-05
6.9003184e-05
7.0922329e-05
7.2879907e-05
7.4523684e-05
7.7464459e-05
1.4646734e-06
1.4640731e-06
1.4634449e-06
1.4627942e-06
1.4621217e-06
1.4614271e-06
1.4607098e-06
1.4599691e-06
1.4592042e-06
1.4584143e-06
1.4575987e-06
1.4567567e-06
1.4558874e-06
1.4549901e-06
1.454064e-06
1.4531084e-06
1.4521224e-06
1.451105e-06
1.4500551e-06
1.4489718e-06
1.4478537e-06
1.4466997e-06
1.4455085e-06
1.4442787e-06
1.4430091e-06
1.4416982e-06
1.4403447e-06
1.438947e-06
1.4375037e-06
1.4360132e-06
1.4344739e-06
1.4328841e-06
1.431242e-06
1.4295458e-06
1.4277935e-06
1.4259833e-06
1.4241132e-06
1.422181e-06
1.4201847e-06
1.418122e-06
1.4159908e-06
1.4137884e-06
1.4115126e-06
1.4091605e-06
1.4067295e-06
1.4042167e-06
1.4016192e-06
1.3989339e-06
1.3961576e-06
1.393287e-06
1.3903188e-06
1.3872491e-06
1.3840732e-06
1.3807851e-06
1.3773732e-06
1.3738268e-06
1.3701238e-06
1.3662737e-06
1.3621955e-06
1.3580413e-06
1.3540262e-06
1.3506661e-06
1.348045e-06
1.3494754e-06
1.3578402e-06
1.3870403e-06
1.4695398e-06
1.7091839e-06
2.2736297e-06
3.3653902e-06
5.1208662e-06
7.4306057e-06
1.0097803e-05
1.2885359e-05
1.5659167e-05
1.8397705e-05
2.1115789e-05
2.3816882e-05
2.6497542e-05
2.9156407e-05
3.1792503e-05
3.4404506e-05
3.6991525e-05
3.9552685e-05
4.2087123e-05
4.4592902e-05
4.707056e-05
4.952212e-05
5.194789e-05
5.4347318e-05
5.6718681e-05
5.9060155e-05
6.1370667e-05
6.365045e-05
6.5899622e-05
6.8123143e-05
7.0304145e-05
7.2527959e-05
7.440239e-05
7.7747322e-05
1.4657119e-06
1.4652081e-06
1.4646817e-06
1.4641366e-06
1.4635734e-06
1.4629918e-06
1.4623912e-06
1.461771e-06
1.4611306e-06
1.4604694e-06
1.4597869e-06
1.4590822e-06
1.4583549e-06
1.4576042e-06
1.4568295e-06
1.4560302e-06
1.4552055e-06
1.4543546e-06
1.4534767e-06
1.4525709e-06
1.4516361e-06
1.4506714e-06
1.4496758e-06
1.4486481e-06
1.4475872e-06
1.446492e-06
1.4453614e-06
1.444194e-06
1.4429888e-06
1.4417443e-06
1.4404593e-06
1.4391324e-06
1.4377621e-06
1.4363468e-06
1.4348851e-06
1.4333753e-06
1.4318159e-06
1.430205e-06
1.428541e-06
1.426822e-06
1.4250462e-06
1.4232115e-06
1.421316e-06
1.4193574e-06
1.4173335e-06
1.415242e-06
1.4130804e-06
1.4108461e-06
1.4085365e-06
1.406149e-06
1.4036808e-06
1.4011292e-06
1.3984914e-06
1.3957644e-06
1.3929443e-06
1.3900278e-06
1.3870083e-06
1.3838797e-06
1.3806276e-06
1.377239e-06
1.3737138e-06
1.3699786e-06
1.366104e-06
1.3623354e-06
1.3591485e-06
1.3564923e-06
1.3577255e-06
1.3655933e-06
1.3942991e-06
1.4793679e-06
1.7417681e-06
2.3726489e-06
3.6303243e-06
5.612373e-06
8.189702e-06
1.1102359e-05
1.4099152e-05
1.7067898e-05
2.0005679e-05
2.2926316e-05
2.5829326e-05
2.8712038e-05
3.1573484e-05
3.4411994e-05
3.722584e-05
4.0012216e-05
4.2771288e-05
4.5504816e-05
4.821254e-05
5.0893798e-05
5.3546995e-05
5.6170276e-05
5.8762153e-05
6.1322193e-05
6.384992e-05
6.6350134e-05
6.88046e-05
7.1306468e-05
7.3422729e-05
7.7190926e-05
1.4666875e-06
1.4662608e-06
1.4658157e-06
1.4653549e-06
1.4648788e-06
1.4643871e-06
1.4638795e-06
1.4633554e-06
1.4628143e-06
1.4622557e-06
1.461679e-06
1.4610838e-06
1.4604695e-06
1.4598355e-06
1.4591813e-06
1.4585064e-06
1.4578101e-06
1.4570917e-06
1.4563506e-06
1.455586e-06
1.454797e-06
1.4539829e-06
1.4531427e-06
1.4522756e-06
1.4513806e-06
1.4504568e-06
1.4495033e-06
1.4485189e-06
1.4475027e-06
1.4464536e-06
1.4453704e-06
1.4442521e-06
1.4430974e-06
1.4419051e-06
1.4406738e-06
1.4394022e-06
1.438089e-06
1.4367328e-06
1.435332e-06
1.4338853e-06
1.432391e-06
1.4308474e-06
1.429253e-06
1.4276058e-06
1.425904e-06
1.4241457e-06
1.4223289e-06
1.4204513e-06
1.418511e-06
1.4165056e-06
1.4144328e-06
1.4122903e-06
1.4100759e-06
1.4077869e-06
1.4054205e-06
1.4029739e-06
1.4004441e-06
1.3978279e-06
1.3951221e-06
1.3923216e-06
1.3894218e-06
1.3864094e-06
1.383272e-06
1.3800058e-06
1.3765441e-06
1.3729288e-06
1.369416e-06
1.3664313e-06
1.3640984e-06
1.3655454e-06
1.37453e-06
1.40828e-06
1.5096155e-06
1.8406402e-06
2.6126084e-06
4.1905e-06
6.5091981e-06
9.4115081e-06
1.257981e-05
1.5778321e-05
1.8941373e-05
2.2082845e-05
2.5209841e-05
2.8318786e-05
3.1407385e-05
3.4472042e-05
3.7512333e-05
4.0529678e-05
4.3522951e-05
4.6490914e-05
4.943173e-05
5.2343431e-05
5.5224194e-05
5.8072978e-05
6.0888644e-05
6.3675636e-05
6.6414201e-05
6.9205159e-05
7.1573879e-05
7.5782572e-05
1.4676082e-06
1.467244e-06
1.4668644e-06
1.4664717e-06
1.466066e-06
1.465647e-06
1.4652145e-06
1.4647679e-06
1.4643069e-06
1.463831e-06
1.4633399e-06
1.4628329e-06
1.4623097e-06
1.4617698e-06
1.4612128e-06
1.4606382e-06
1.4600453e-06
1.4594338e-06
1.4588029e-06
1.4581521e-06
1.4574806e-06
1.4567878e-06
1.4560728e-06
1.4553351e-06
1.4545737e-06
1.4537879e-06
1.4529769e-06
1.4521398e-06
1.4512757e-06
1.4503838e-06
1.449463e-06
1.4485125e-06
1.4475312e-06
1.4465181e-06
1.445472e-06
1.4443919e-06
1.4432765e-06
1.4421248e-06
1.4409355e-06
1.4397073e-06
1.438439e-06
1.4371291e-06
1.4357762e-06
1.4343788e-06
1.4329354e-06
1.4314443e-06
1.4299038e-06
1.4283122e-06
1.4266677e-06
1.4249684e-06
1.4232124e-06
1.4213977e-06
1.4195224e-06
1.4175844e-06
1.4155812e-06
1.4135104e-06
1.4113696e-06
1.4091562e-06
1.4068675e-06
1.4045011e-06
1.4020538e-06
1.3995229e-06
1.396904e-06
1.3941928e-06
1.391377e-06
1.388444e-06
1.3853903e-06
1.3821484e-06
1.3787705e-06
1.3755164e-06
1.3727409e-06
1.3711275e-06
1.3732947e-06
1.3855957e-06
1.4301206e-06
1.5732689e-06
2.0397659e-06
3.1012951e-06
5.0839131e-06
7.852174e-06
1.1122632e-05
1.4544471e-05
1.7945365e-05
2.1314062e-05
2.4666949e-05
2.8001431e-05
3.1316502e-05
3.4613836e-05
3.7891212e-05
4.1146406e-05
4.4376931e-05
4.7580469e-05
5.0754829e-05
5.3898359e-05
5.700919e-05
6.0091229e-05
6.3123034e-05
6.6212897e-05
6.8843758e-05
7.3509487e-05
1.4684855e-06
1.4681724e-06
1.4678465e-06
1.4675093e-06
1.467161e-06
1.4668013e-06
1.4664301e-06
1.4660468e-06
1.4656511e-06
1.4652428e-06
1.4648213e-06
1.4643863e-06
1.4639374e-06
1.4634743e-06
1.4629964e-06
1.4625035e-06
1.461995e-06
1.4614705e-06
1.4609295e-06
1.4603714e-06
1.4597956e-06
1.4592016e-06
1.4585887e-06
1.4579563e-06
1.4573037e-06
1.4566303e-06
1.4559353e-06
1.455218e-06
1.4544778e-06
1.4537137e-06
1.4529251e-06
1.4521111e-06
1.4512708e-06
1.4504034e-06
1.4495079e-06
1.4485834e-06
1.4476289e-06
1.4466434e-06
1.4456259e-06
1.4445752e-06
1.4434904e-06
1.4423702e-06
1.4412134e-06
1.4400188e-06
1.438785e-06
1.4375107e-06
1.4361944e-06
1.4348347e-06
1.43343e-06
1.4319788e-06
1.4304795e-06
1.4289304e-06
1.4273298e-06
1.425676e-06
1.423967e-06
1.4222007e-06
1.420375e-06
1.4184878e-06
1.4165368e-06
1.4145198e-06
1.4124343e-06
1.410278e-06
1.4080483e-06
1.4057426e-06
1.403358e-06
1.4008908e-06
1.3983367e-06
1.3956839e-06
1.3929192e-06
1.3900418e-06
1.3869785e-06
1.3837914e-06
1.3809801e-06
1.3776621e-06
1.3778423e-06
1.3817062e-06
1.4012849e-06
1.467384e-06
1.7148851e-06
2.4136037e-06
3.9789803e-06
6.5083087e-06
9.7858181e-06
1.339668e-05
1.7038961e-05
2.063862e-05
2.4217436e-05
2.7785587e-05
3.1339572e-05
3.4876741e-05
3.8393887e-05
4.1888155e-05
4.5356851e-05
4.8797619e-05
5.2207771e-05
5.559049e-05
5.8922451e-05
6.2319194e-05
6.5220391e-05
7.0357994e-05
1.4693307e-06
1.4690599e-06
1.4687781e-06
1.4684867e-06
1.4681858e-06
1.467875e-06
1.4675542e-06
1.4672231e-06
1.4668813e-06
1.4665285e-06
1.4661644e-06
1.4657887e-06
1.465401e-06
1.465001e-06
1.4645883e-06
1.4641627e-06
1.4637236e-06
1.4632708e-06
1.4628037e-06
1.4623219e-06
1.4618248e-06
1.4613121e-06
1.4607832e-06
1.4602374e-06
1.4596743e-06
1.4590933e-06
1.4584937e-06
1.457875e-06
1.4572365e-06
1.4565776e-06
1.4558975e-06
1.4551957e-06
1.4544713e-06
1.4537235e-06
1.4529517e-06
1.452155e-06
1.4513325e-06
1.4504834e-06
1.4496069e-06
1.448702e-06
1.4477677e-06
1.4468032e-06
1.4458072e-06
1.4447788e-06
1.4437169e-06
1.4426203e-06
1.4414878e-06
1.440318e-06
1.4391098e-06
1.4378618e-06
1.4365727e-06
1.435241e-06
1.4338653e-06
1.4324441e-06
1.4309757e-06
1.4294584e-06
1.4278904e-06
1.42627e-06
1.4245951e-06
1.4228639e-06
1.4210743e-06
1.4192243e-06
1.4173116e-06
1.4153341e-06
1.4132893e-06
1.4111749e-06
1.4089884e-06
1.4067271e-06
1.4043874e-06
1.4019646e-06
1.3994497e-06
1.3968159e-06
1.3941112e-06
1.3911136e-06
1.3881648e-06
1.3855523e-06
1.38319e-06
1.3842315e-06
1.3924374e-06
1.4271941e-06
1.5483271e-06
2.002614e-06
3.1436404e-06
5.3998784e-06
8.6032062e-06
1.2354747e-05
1.6233607e-05
2.0080018e-05
2.3900502e-05
2.7709229e-05
3.1503979e-05
3.5282168e-05
3.9040729e-05
4.2776498e-05
4.6485905e-05
5.017124e-05
5.3807088e-05
5.7516e-05
6.0693509e-05
6.6315203e-05
1.470153e-06
1.4699174e-06
1.4696724e-06
1.4694191e-06
1.4691575e-06
1.4688874e-06
1.4686086e-06
1.4683207e-06
1.4680237e-06
1.4677171e-06
1.4674007e-06
1.4670743e-06
1.4667374e-06
1.4663899e-06
1.4660314e-06
1.4656616e-06
1.4652802e-06
1.4648869e-06
1.4644812e-06
1.4640627e-06
1.4636311e-06
1.4631859e-06
1.4627266e-06
1.4622528e-06
1.4617639e-06
1.4612596e-06
1.4607392e-06
1.4602022e-06
1.4596482e-06
1.4590765e-06
1.4584865e-06
1.4578776e-06
1.4572493e-06
1.4566008e-06
1.4559314e-06
1.4552406e-06
1.4545276e-06
1.4537915e-06
1.4530318e-06
1.4522475e-06
1.451438e-06
1.4506022e-06
1.4497394e-06
1.4488487e-06
1.447929e-06
1.4469794e-06
1.4459988e-06
1.4449862e-06
1.4439405e-06
1.4428605e-06
1.441745e-06
1.440593e-06
1.439403e-06
1.4381739e-06
1.4369043e-06
1.4355926e-06
1.4342373e-06
1.432837e-06
1.4313899e-06
1.4298944e-06
1.4283489e-06
1.4267515e-06
1.4251004e-06
1.4233936e-06
1.4216291e-06
1.4198048e-06
1.4179186e-06
1.4159683e-06
1.4139516e-06
1.4118659e-06
1.4097091e-06
1.4074767e-06
1.4051649e-06
1.4027637e-06
1.4002473e-06
1.3976324e-06
1.3948133e-06
1.3920998e-06
1.3897321e-06
1.3889183e-06
1.3919879e-06
1.4101804e-06
1.4782197e-06
1.7566586e-06
2.581913e-06
4.5638611e-06
7.6277387e-06
1.1469647e-05
1.5575318e-05
1.9671766e-05
2.3736065e-05
2.7787879e-05
3.1826782e-05
3.5849795e-05
3.9853094e-05
4.3838103e-05
4.7777223e-05
5.1799814e-05
5.5256468e-05
6.1370618e-05
1.4709599e-06
1.4707537e-06
1.4705396e-06
1.4703182e-06
1.4700896e-06
1.4698536e-06
1.46961e-06
1.4693585e-06
1.4690989e-06
1.4688311e-06
1.4685547e-06
1.4682695e-06
1.4679752e-06
1.4676716e-06
1.4673585e-06
1.4670356e-06
1.4667025e-06
1.4663589e-06
1.4660046e-06
1.4656392e-06
1.4652624e-06
1.4648737e-06
1.4644727e-06
1.4640591e-06
1.4636324e-06
1.4631922e-06
1.4627381e-06
1.4622695e-06
1.4617861e-06
1.4612873e-06
1.4607726e-06
1.4602415e-06
1.4596935e-06
1.4591279e-06
1.4585443e-06
1.457942e-06
1.4573203e-06
1.4566787e-06
1.4560166e-06
1.4553331e-06
1.4546277e-06
1.4538995e-06
1.4531479e-06
1.452372e-06
1.451571e-06
1.450744e-06
1.4498903e-06
1.4490087e-06
1.4480985e-06
1.4471585e-06
1.4461879e-06
1.4451856e-06
1.4441504e-06
1.4430814e-06
1.4419772e-06
1.4408367e-06
1.4396586e-06
1.4384414e-06
1.4371839e-06
1.4358846e-06
1.4345421e-06
1.4331547e-06
1.431721e-06
1.4302393e-06
1.4287078e-06
1.4271247e-06
1.4254883e-06
1.4237965e-06
1.4220473e-06
1.4202388e-06
1.4183686e-06
1.4164349e-06
1.4144347e-06
1.4123669e-06
1.410226e-06
1.4080074e-06
1.4056948e-06
1.4032919e-06
1.4006976e-06
1.3980712e-06
1.3957011e-06
1.3936104e-06
1.3948257e-06
1.4043352e-06
1.4461966e-06
1.6091607e-06
2.2386671e-06
3.8608989e-06
6.7914207e-06
1.0723343e-05
1.5064016e-05
1.9423597e-05
2.3740449e-05
2.804096e-05
3.2328377e-05
3.6604772e-05
4.0841243e-05
4.5174093e-05
4.8908523e-05
5.5518055e-05
1.4717576e-06
1.4715764e-06
1.4713883e-06
1.4711939e-06
1.4709932e-06
1.4707859e-06
1.470572e-06
1.4703512e-06
1.4701233e-06
1.4698882e-06
1.4696455e-06
1.4693951e-06
1.4691368e-06