/*--------------------------------*- C++ -*----------------------------------*\
  =========                 |
  \\      /  F ield         | OpenFOAM: The Open Source CFD Toolbox
   \\    /   O peration     | Website:  https://openfoam.org
    \\  /    A nd           | Version:  12
     \\/     M anipulation  |
\*---------------------------------------------------------------------------*/
FoamFile
{
    format      ascii;
    class       volScalarField;
    location    "1400";
    object      nuTilda;
}
// * * * * * * * * * * * * * * * * * * * * * * * * * * * * * * * * * * * * * //

dimensions      [0 2 -1 0 0 0 0];

internalField   nonuniform List<scalar> 
13056
(
1.9998452e-06
1.999876e-06
2.0000089e-06
2.000283e-06
2.0006738e-06
2.0011577e-06
2.0017162e-06
2.0023346e-06
2.0030008e-06
2.0037048e-06
2.0044385e-06
2.0051958e-06
2.005972e-06
2.0067644e-06
2.0075718e-06
2.0083945e-06
2.0092359e-06
2.0100997e-06
2.0109957e-06
2.0119398e-06
2.0129034e-06
2.0141599e-06
2.0146391e-06
2.0158676e-06
2.9956121e-08
2.1965225e-08
2.0829128e-08
2.0426264e-08
2.0165853e-08
1.9946352e-08
1.9751399e-08
1.9575942e-08
1.9416548e-08
1.9270321e-08
1.91351e-08
1.9009306e-08
1.8891719e-08
1.8781346e-08
1.8677355e-08
1.8579053e-08
1.8485853e-08
1.8397254e-08
1.8312812e-08
1.823214e-08
1.8154902e-08
1.8080793e-08
1.8009559e-08
1.7940962e-08
1.7874787e-08
1.7810852e-08
1.7748989e-08
1.7689036e-08
1.7630856e-08
1.7574327e-08
1.751933e-08
1.7465752e-08
1.7413504e-08
1.7362498e-08
1.7312646e-08
1.7263868e-08
1.72161e-08
1.7169278e-08
1.7123336e-08
1.7078212e-08
1.703386e-08
1.6990232e-08
1.6947276e-08
1.6904944e-08
1.6863197e-08
1.6822e-08
1.6781313e-08
1.6741098e-08
1.6701318e-08
1.6661945e-08
1.6622951e-08
1.6584303e-08
1.6545969e-08
1.6507922e-08
1.6470139e-08
1.6432596e-08
1.6395263e-08
1.6358113e-08
1.6321124e-08
1.6284276e-08
1.6247544e-08
1.6210902e-08
1.6174324e-08
1.6137792e-08
1.6101284e-08
1.6064776e-08
1.602824e-08
1.5991652e-08
1.5954994e-08
1.5918241e-08
1.5881365e-08
1.5844337e-08
1.5807133e-08
1.576973e-08
1.5732097e-08
1.56942e-08
1.5656007e-08
1.5617492e-08
1.5578618e-08
1.5539345e-08
1.5499635e-08
1.5459452e-08
1.5418751e-08
1.5377481e-08
1.5335593e-08
1.5293037e-08
1.5249753e-08
1.520567e-08
1.5160734e-08
1.511586e-08
1.5072473e-08
1.5031e-08
1.4991302e-08
1.4953243e-08
1.4916699e-08
1.4881564e-08
1.4847744e-08
1.4815145e-08
1.4783682e-08
1.4753283e-08
1.4723884e-08
1.469542e-08
1.4667829e-08
1.464105e-08
1.4615036e-08
1.4589712e-08
1.456507e-08
1.4540834e-08
1.4517403e-08
1.4493005e-08
1.4471775e-08
1.4436283e-08
1.9998451e-06
1.9998759e-06
2.0000089e-06
2.0002829e-06
2.0006737e-06
2.0011576e-06
2.001716e-06
2.0023344e-06
2.0030006e-06
2.0037045e-06
2.0044382e-06
2.0051955e-06
2.0059717e-06
2.006764e-06
2.0075714e-06
2.008394e-06
2.0092354e-06
2.0100991e-06
2.010995e-06
2.011939e-06
2.0129025e-06
2.0141589e-06
2.0146378e-06
2.0158733e-06
8.7758093e-08
6.6191953e-08
6.2788415e-08
6.1575059e-08
6.0790557e-08
6.0129686e-08
5.9542718e-08
5.901436e-08
5.8534278e-08
5.8093799e-08
5.7686434e-08
5.7307442e-08
5.6953156e-08
5.6620585e-08
5.6307229e-08
5.6011004e-08
5.5730147e-08
5.5463145e-08
5.5208664e-08
5.496554e-08
5.4732758e-08
5.4509406e-08
5.4294711e-08
5.4087963e-08
5.3888512e-08
5.3695811e-08
5.350935e-08
5.3328645e-08
5.3153283e-08
5.2982897e-08
5.2817123e-08
5.265563e-08
5.2498142e-08
5.2344398e-08
5.2194129e-08
5.2047098e-08
5.1903111e-08
5.1761976e-08
5.162349e-08
5.1487472e-08
5.1353778e-08
5.1222265e-08
5.1092779e-08
5.0965175e-08
5.0839333e-08
5.0715146e-08
5.0592499e-08
5.0471273e-08
5.0351357e-08
5.0232669e-08
5.0115123e-08
4.999862e-08
4.9883063e-08
4.9768371e-08
4.9654475e-08
4.95413e-08
4.942876e-08
4.9316771e-08
4.9205267e-08
4.9094186e-08
4.8983457e-08
4.8872999e-08
4.8762733e-08
4.8652604e-08
4.8542549e-08
4.8432492e-08
4.8322352e-08
4.8212057e-08
4.8101546e-08
4.7990752e-08
4.7879586e-08
4.7767961e-08
4.7655807e-08
4.7543053e-08
4.7429604e-08
4.7315359e-08
4.7200223e-08
4.7084113e-08
4.6966923e-08
4.6848531e-08
4.672882e-08
4.6607682e-08
4.6484985e-08
4.636057e-08
4.6234293e-08
4.6106003e-08
4.5975517e-08
4.584262e-08
4.5707155e-08
4.5571873e-08
4.5441076e-08
4.5316051e-08
4.5196374e-08
4.5081638e-08
4.4971469e-08
4.486555e-08
4.4763593e-08
4.4665318e-08
4.4570466e-08
4.4478823e-08
4.4390194e-08
4.4304384e-08
4.4221207e-08
4.4140477e-08
4.4062054e-08
4.3985708e-08
4.3911423e-08
4.3838361e-08
4.3767725e-08
4.3694179e-08
4.363018e-08
4.3523179e-08
1.999845e-06
1.9998758e-06
2.0000087e-06
2.0002826e-06
2.0006733e-06
2.001157e-06
2.0017154e-06
2.0023337e-06
2.0029998e-06
2.0037037e-06
2.0044373e-06
2.0051945e-06
2.0059706e-06
2.0067628e-06
2.00757e-06
2.0083925e-06
2.0092337e-06
2.0100971e-06
2.0109927e-06
2.0119364e-06
2.0128995e-06
2.0141554e-06
2.0146333e-06
2.0158749e-06
1.4398743e-07
1.1131644e-07
1.0565638e-07
1.0361753e-07
1.0229965e-07
1.0119028e-07
1.0020487e-07
9.9317533e-08
9.8510982e-08
9.7770776e-08
9.7086094e-08
9.644901e-08
9.5853385e-08
9.5294207e-08
9.476729e-08
9.4269145e-08
9.3796812e-08
9.3347754e-08
9.2919733e-08
9.2510797e-08
9.2119241e-08
9.1743534e-08
9.1382376e-08
9.1034579e-08
9.0699047e-08
9.0374863e-08
9.0061169e-08
8.9757154e-08
8.9462122e-08
8.9175457e-08
8.8896548e-08
8.8624836e-08
8.8359859e-08
8.8101178e-08
8.7848342e-08
8.7600952e-08
8.7358679e-08
8.7121202e-08
8.6888183e-08
8.6659313e-08
8.6434352e-08
8.6213059e-08
8.5995175e-08
8.5780456e-08
8.5568701e-08
8.5359729e-08
8.5153348e-08
8.4949356e-08
8.4747568e-08
8.4547845e-08
8.4350042e-08
8.4153993e-08
8.3959537e-08
8.3766534e-08
8.357487e-08
8.3384419e-08
8.3195036e-08
8.3006577e-08
8.2818936e-08
8.2632006e-08
8.2445667e-08
8.2259783e-08
8.2074223e-08
8.1888891e-08
8.1703684e-08
8.1518473e-08
8.1333122e-08
8.114751e-08
8.0961533e-08
8.0775078e-08
8.0588e-08
8.0400146e-08
8.0211403e-08
8.0021649e-08
7.9830725e-08
7.9638459e-08
7.9444696e-08
7.9249291e-08
7.905207e-08
7.8852825e-08
7.865136e-08
7.8447492e-08
7.8241e-08
7.8031618e-08
7.78191e-08
7.7603194e-08
7.7383591e-08
7.7159932e-08
7.693195e-08
7.6704276e-08
7.6484147e-08
7.6273734e-08
7.6072322e-08
7.5879224e-08
7.5693811e-08
7.5515551e-08
7.534396e-08
7.5178565e-08
7.501893e-08
7.4864697e-08
7.4715535e-08
7.4571117e-08
7.4431132e-08
7.4295265e-08
7.4163279e-08
7.4034792e-08
7.3909771e-08
7.3786815e-08
7.3667935e-08
7.3544185e-08
7.3436477e-08
7.325639e-08
1.9998448e-06
1.9998756e-06
2.0000083e-06
2.000282e-06
2.0006726e-06
2.0011562e-06
2.0017144e-06
2.0023326e-06
2.0029985e-06
2.0037023e-06
2.0044357e-06
2.0051927e-06
2.0059686e-06
2.0067606e-06
2.0075675e-06
2.0083897e-06
2.0092306e-06
2.0100936e-06
2.0109887e-06
2.0119319e-06
2.0128943e-06
2.0141492e-06
2.0146256e-06
2.0158721e-06
1.9932396e-07
1.5794269e-07
1.5005139e-07
1.4716269e-07
1.4529674e-07
1.4372724e-07
1.4233271e-07
1.4107627e-07
1.3993359e-07
1.3888449e-07
1.3791382e-07
1.3701043e-07
1.3616567e-07
1.3537247e-07
1.3462494e-07
1.3391815e-07
1.3324792e-07
1.3261065e-07
1.320032e-07
1.314228e-07
1.3086703e-07
1.3033373e-07
1.2982105e-07
1.2932733e-07
1.2885099e-07
1.2839075e-07
1.2794539e-07
1.2751375e-07
1.2709486e-07
1.2668784e-07
1.2629182e-07
1.2590601e-07
1.2552976e-07
1.2516244e-07
1.2480341e-07
1.2445211e-07
1.2410807e-07
1.2377084e-07
1.2343994e-07
1.2311492e-07
1.2279545e-07
1.2248118e-07
1.2217175e-07
1.2186682e-07
1.2156609e-07
1.212693e-07
1.209762e-07
1.2068649e-07
1.203999e-07
1.2011625e-07
1.1983532e-07
1.1955688e-07
1.1928069e-07
1.1900658e-07
1.1873436e-07
1.1846386e-07
1.1819488e-07
1.1792721e-07
1.176607e-07
1.1739519e-07
1.1713053e-07
1.1686651e-07
1.1660295e-07
1.1633971e-07
1.1607665e-07
1.1581358e-07
1.1555031e-07
1.1528667e-07
1.1502251e-07
1.1475767e-07
1.1449194e-07
1.1422511e-07
1.1395702e-07
1.1368749e-07
1.1341629e-07
1.1314319e-07
1.1286797e-07
1.1259041e-07
1.1231026e-07
1.1202725e-07
1.1174107e-07
1.1145149e-07
1.1115817e-07
1.1086075e-07
1.1055887e-07
1.1025218e-07
1.0994024e-07
1.0962254e-07
1.0929869e-07
1.0897528e-07
1.0866259e-07
1.083637e-07
1.0807759e-07
1.0780329e-07
1.0753991e-07
1.0728669e-07
1.0704294e-07
1.06808e-07
1.0658123e-07
1.0636214e-07
1.0615025e-07
1.059451e-07
1.0574625e-07
1.0555325e-07
1.0536576e-07
1.0518324e-07
1.0500565e-07
1.0483099e-07
1.0466212e-07
1.0448638e-07
1.0433338e-07
1.0407755e-07
1.9998446e-06
1.9998753e-06
2.0000077e-06
2.0002812e-06
2.0006715e-06
2.0011549e-06
2.0017129e-06
2.0023309e-06
2.0029967e-06
2.0037002e-06
2.0044334e-06
2.0051901e-06
2.0059657e-06
2.0067574e-06
2.0075639e-06
2.0083857e-06
2.009226e-06
2.0100885e-06
2.0109829e-06
2.0119253e-06
2.0128866e-06
2.0141402e-06
2.0146143e-06
2.0158647e-06
2.5431073e-07
2.0666474e-07
1.9660248e-07
1.9283404e-07
1.904014e-07
1.8835664e-07
1.8653877e-07
1.8489949e-07
1.8340747e-07
1.8203685e-07
1.8076816e-07
1.7958702e-07
1.7848224e-07
1.7744467e-07
1.7646664e-07
1.7554176e-07
1.746646e-07
1.7383049e-07
1.7303531e-07
1.7227547e-07
1.7154781e-07
1.7084953e-07
1.701782e-07
1.6953165e-07
1.6890784e-07
1.6830508e-07
1.6772177e-07
1.6715643e-07
1.6660775e-07
1.660746e-07
1.6555584e-07
1.6505045e-07
1.6455756e-07
1.6407636e-07
1.6360601e-07
1.6314578e-07
1.6269504e-07
1.6225322e-07
1.6181967e-07
1.6139384e-07
1.6097526e-07
1.6056349e-07
1.6015806e-07
1.5975851e-07
1.5936446e-07
1.5897558e-07
1.5859152e-07
1.5821189e-07
1.5783637e-07
1.5746467e-07
1.5709654e-07
1.5673167e-07
1.5636976e-07
1.5601055e-07
1.5565382e-07
1.5529935e-07
1.5494686e-07
1.5459608e-07
1.5424682e-07
1.5389888e-07
1.5355204e-07
1.5320604e-07
1.5286064e-07
1.5251566e-07
1.521709e-07
1.5182614e-07
1.5148111e-07
1.511356e-07
1.507894e-07
1.504423e-07
1.5009405e-07
1.4974434e-07
1.4939298e-07
1.4903973e-07
1.486843e-07
1.4832638e-07
1.4796566e-07
1.4760188e-07
1.4723471e-07
1.4686378e-07
1.4648871e-07
1.4610916e-07
1.4572472e-07
1.4533491e-07
1.4493925e-07
1.4453727e-07
1.4412842e-07
1.4371201e-07
1.4328755e-07
1.4286365e-07
1.4245381e-07
1.4206205e-07
1.4168704e-07
1.4132752e-07
1.409823e-07
1.406504e-07
1.4033091e-07
1.4002296e-07
1.3972574e-07
1.3943857e-07
1.3916084e-07
1.3889194e-07
1.386313e-07
1.3837833e-07
1.3813258e-07
1.3789335e-07
1.3766057e-07
1.3743166e-07
1.3721032e-07
1.3698004e-07
1.367795e-07
1.3644416e-07
1.9998442e-06
1.9998748e-06
2.000007e-06
2.0002802e-06
2.0006701e-06
2.0011532e-06
2.0017109e-06
2.0023286e-06
2.0029941e-06
2.0036974e-06
2.0044303e-06
2.0051866e-06
2.0059619e-06
2.0067531e-06
2.0075591e-06
2.0083803e-06
2.0092199e-06
2.0100816e-06
2.0109751e-06
2.0119164e-06
2.0128763e-06
2.0141282e-06
2.0145992e-06
2.0158524e-06
3.0935381e-07
2.5804565e-07
2.4594684e-07
2.4127211e-07
2.3825327e-07
2.3571654e-07
2.3345891e-07
2.3142041e-07
2.2956291e-07
2.2785513e-07
2.262734e-07
2.2480012e-07
2.2342155e-07
2.221264e-07
2.2090525e-07
2.197502e-07
2.1865452e-07
2.1761244e-07
2.1661885e-07
2.1566929e-07
2.1475985e-07
2.1388702e-07
2.1304781e-07
2.122395e-07
2.1145957e-07
2.1070589e-07
2.099765e-07
2.0926953e-07
2.0858336e-07
2.0791657e-07
2.0726777e-07
2.0663565e-07
2.0601914e-07
2.0541723e-07
2.0482888e-07
2.0425316e-07
2.0368931e-07
2.0313658e-07
2.025942e-07
2.0206146e-07
2.0153777e-07
2.010226e-07
2.0051535e-07
2.0001544e-07
1.9952242e-07
1.9903584e-07
1.9855529e-07
1.9808028e-07
1.9761039e-07
1.9714529e-07
1.9668464e-07
1.9622807e-07
1.9577519e-07
1.9532569e-07
1.9487929e-07
1.944357e-07
1.9399459e-07
1.9355563e-07
1.9311856e-07
1.9268313e-07
1.9224907e-07
1.9181606e-07
1.913838e-07
1.9095206e-07
1.905206e-07
1.9008912e-07
1.8965732e-07
1.8922489e-07
1.8879161e-07
1.883572e-07
1.8792134e-07
1.8748366e-07
1.870439e-07
1.8660178e-07
1.8615693e-07
1.8570895e-07
1.8525747e-07
1.8480216e-07
1.843426e-07
1.8387833e-07
1.8340888e-07
1.8293382e-07
1.8245264e-07
1.8196472e-07
1.8146949e-07
1.8096635e-07
1.8045459e-07
1.7993338e-07
1.7940208e-07
1.7887149e-07
1.7835848e-07
1.7786811e-07
1.7739872e-07
1.7694869e-07
1.7651657e-07
1.7610112e-07
1.7570121e-07
1.7531573e-07
1.7494368e-07
1.7458422e-07
1.7423657e-07
1.7389998e-07
1.7357373e-07
1.7325707e-07
1.7294945e-07
1.7265e-07
1.7235863e-07
1.7207211e-07
1.7179505e-07
1.7150689e-07
1.7125588e-07
1.7083608e-07
1.9998438e-06
1.9998743e-06
2.0000061e-06
2.0002788e-06
2.0006682e-06
2.0011509e-06
2.0017083e-06
2.0023257e-06
2.0029908e-06
2.0036937e-06
2.0044262e-06
2.0051821e-06
2.0059569e-06
2.0067475e-06
2.0075529e-06
2.0083733e-06
2.0092121e-06
2.0100727e-06
2.010965e-06
2.0119049e-06
2.012863e-06
2.0141126e-06
2.0145797e-06
2.0158349e-06
3.6472621e-07
3.125815e-07
2.9872133e-07
2.9313389e-07
2.8951404e-07
2.864707e-07
2.8375714e-07
2.8130211e-07
2.7906133e-07
2.7699867e-07
2.7508652e-07
2.7330423e-07
2.7163557e-07
2.7006714e-07
2.6858773e-07
2.6718793e-07
2.6585972e-07
2.6459617e-07
2.6339115e-07
2.6223932e-07
2.6113596e-07
2.6007687e-07
2.5905844e-07
2.5807739e-07
2.5713068e-07
2.5621575e-07
2.5533023e-07
2.5447185e-07
2.5363868e-07
2.5282898e-07
2.5204107e-07
2.5127338e-07
2.505246e-07
2.4979351e-07
2.4907886e-07
2.4837954e-07
2.4769459e-07
2.4702313e-07
2.4636422e-07
2.4571699e-07
2.4508076e-07
2.4445484e-07
2.4383852e-07
2.4323112e-07
2.4263206e-07
2.4204083e-07
2.4145689e-07
2.4087969e-07
2.4030869e-07
2.397435e-07
2.3918371e-07
2.3862887e-07
2.3807851e-07
2.3753223e-07
2.3698972e-07
2.3645061e-07
2.3591452e-07
2.3538102e-07
2.3484981e-07
2.343206e-07
2.3379304e-07
2.3326675e-07
2.3274137e-07
2.3221661e-07
2.3169218e-07
2.3116773e-07
2.3064288e-07
2.3011726e-07
2.295906e-07
2.2906257e-07
2.2853276e-07
2.2800075e-07
2.274662e-07
2.2692877e-07
2.2638801e-07
2.2584345e-07
2.2529463e-07
2.2474115e-07
2.2418251e-07
2.2361813e-07
2.2304744e-07
2.2246994e-07
2.2188499e-07
2.2129184e-07
2.206898e-07
2.2007814e-07
2.1945601e-07
2.1882237e-07
2.1817647e-07
2.1753142e-07
2.1690775e-07
2.1631159e-07
2.1574093e-07
2.1519381e-07
2.1466847e-07
2.1416338e-07
2.1367719e-07
2.1320854e-07
2.1275622e-07
2.1231919e-07
2.1189654e-07
2.1148732e-07
2.1109066e-07
2.1070568e-07
2.1033169e-07
2.0996763e-07
2.0961339e-07
2.0926507e-07
2.0892823e-07
2.0857802e-07
2.0827287e-07
2.0776244e-07
1.9998432e-06
1.9998736e-06
2.0000049e-06
2.000277e-06
2.000666e-06
2.0011482e-06
2.0017051e-06
2.002322e-06
2.0029867e-06
2.0036891e-06
2.0044211e-06
2.0051765e-06
2.0059506e-06
2.0067405e-06
2.007545e-06
2.0083645e-06
2.0092021e-06
2.0100615e-06
2.0109523e-06
2.0118905e-06
2.0128464e-06
2.0140931e-06
2.0145553e-06
2.015812e-06
4.2057226e-07
3.706399e-07
3.5554322e-07
3.490859e-07
3.4486548e-07
3.4130946e-07
3.3812859e-07
3.3524195e-07
3.3260071e-07
3.3016501e-07
3.2790398e-07
3.2579432e-07
3.2381748e-07
3.2195809e-07
3.2020321e-07
3.1854196e-07
3.1696501e-07
3.154643e-07
3.1403267e-07
3.1266384e-07
3.1135232e-07
3.1009315e-07
3.0888209e-07
3.0771528e-07
3.0658915e-07
3.0550067e-07
3.0444703e-07
3.0342559e-07
3.0243403e-07
3.0147031e-07
3.0053245e-07
2.9961858e-07
2.9872716e-07
2.9785673e-07
2.9700583e-07
2.9617312e-07
2.9535748e-07
2.9455786e-07
2.9377315e-07
2.9300232e-07
2.9224454e-07
2.9149902e-07
2.9076491e-07
2.900414e-07
2.8932779e-07
2.8862348e-07
2.8792785e-07
2.8724021e-07
2.8655996e-07
2.858866e-07
2.8521965e-07
2.8455858e-07
2.8390284e-07
2.8325196e-07
2.8260554e-07
2.8196317e-07
2.8132437e-07
2.8068866e-07
2.8005566e-07
2.7942503e-07
2.7879636e-07
2.781692e-07
2.775431e-07
2.7691774e-07
2.7629276e-07
2.7566775e-07
2.7504225e-07
2.7441584e-07
2.7378816e-07
2.7315885e-07
2.7252741e-07
2.7189334e-07
2.7125623e-07
2.7061569e-07
2.6997118e-07
2.6932212e-07
2.6866798e-07
2.6800828e-07
2.6734242e-07
2.6666971e-07
2.6598948e-07
2.6530112e-07
2.6460388e-07
2.6389686e-07
2.6317923e-07
2.6245013e-07
2.6170854e-07
2.6095323e-07
2.6018329e-07
2.5941437e-07
2.5867092e-07
2.5796027e-07
2.5728e-07
2.566278e-07
2.5600155e-07
2.5539944e-07
2.5481985e-07
2.5426118e-07
2.5372197e-07
2.5320099e-07
2.5269714e-07
2.5220931e-07
2.5173645e-07
2.512775e-07
2.5083167e-07
2.5039767e-07
2.4997538e-07
2.4956017e-07
2.4915863e-07
2.4874132e-07
2.4837757e-07
2.47769e-07
1.9998426e-06
1.9998727e-06
2.0000035e-06
2.0002749e-06
2.0006632e-06
2.0011447e-06
2.0017011e-06
2.0023175e-06
2.0029816e-06
2.0036835e-06
2.0044149e-06
2.0051695e-06
2.0059428e-06
2.0067318e-06
2.0075353e-06
2.0083536e-06
2.0091899e-06
2.0100478e-06
2.0109367e-06
2.0118727e-06
2.0128259e-06
2.0140692e-06
2.0145253e-06
2.0157834e-06
4.7691622e-07
4.3237318e-07
4.1697107e-07
4.0978606e-07
4.0500014e-07
4.0094573e-07
3.97299e-07
3.9397364e-07
3.9091954e-07
3.8809529e-07
3.8546818e-07
3.8301305e-07
3.8070956e-07
3.7854066e-07
3.7649188e-07
3.7455101e-07
3.727075e-07
3.7095219e-07
3.6927692e-07
3.676745e-07
3.6613862e-07
3.646636e-07
3.6324453e-07
3.6187698e-07
3.6055684e-07
3.5928056e-07
3.5804491e-07
3.5684684e-07
3.5568363e-07
3.5455293e-07
3.5345243e-07
3.5237996e-07
3.5133372e-07
3.5031202e-07
3.4931316e-07
3.4833556e-07
3.4737793e-07
3.4643903e-07
3.4551759e-07
3.4461238e-07
3.4372244e-07
3.4284685e-07
3.4198462e-07
3.4113479e-07
3.4029656e-07
3.3946921e-07
3.3865202e-07
3.3784419e-07
3.37045e-07
3.3625388e-07
3.3547028e-07
3.3469354e-07
3.3392306e-07
3.3315825e-07
3.3239867e-07
3.3164382e-07
3.3089315e-07
3.301461e-07
3.2940221e-07
3.2866109e-07
3.2792225e-07
3.2718517e-07
3.2644933e-07
3.2571434e-07
3.2497979e-07
3.2424519e-07
3.2350999e-07
3.2277372e-07
3.2203594e-07
3.2129623e-07
3.2055401e-07
3.1980869e-07
3.1905978e-07
3.1830683e-07
3.175492e-07
3.1678621e-07
3.1601725e-07
3.1524173e-07
3.1445896e-07
3.1366814e-07
3.1286847e-07
3.1205923e-07
3.1123953e-07
3.1040833e-07
3.0956465e-07
3.0870749e-07
3.0783562e-07
3.0694762e-07
3.0604241e-07
3.0513838e-07
3.0426429e-07
3.0342876e-07
3.0262895e-07
3.0186213e-07
3.0112582e-07
3.0041789e-07
2.9973643e-07
2.9907957e-07
2.9844558e-07
2.9783302e-07
2.972406e-07
2.9666702e-07
2.9611104e-07
2.9557142e-07
2.9504722e-07
2.9453693e-07
2.9404042e-07
2.9355227e-07
2.9308015e-07
2.925897e-07
2.9216207e-07
2.9144641e-07
1.9998418e-06
1.9998717e-06
2.0000018e-06
2.0002724e-06
2.0006598e-06
2.0011406e-06
2.0016963e-06
2.002312e-06
2.0029754e-06
2.0036766e-06
2.0044072e-06
2.005161e-06
2.0059333e-06
2.0067212e-06
2.0075235e-06
2.0083404e-06
2.0091751e-06
2.010031e-06
2.0109177e-06
2.0118512e-06
2.0128012e-06
2.0140403e-06
2.0144891e-06
2.0157488e-06
5.3368012e-07
4.976259e-07
4.8343584e-07
4.7584619e-07
4.7059854e-07
4.6610117e-07
4.6201733e-07
4.582645e-07
4.5479752e-07
4.5157762e-07
4.4857286e-07
4.4575787e-07
4.4311154e-07
4.4061581e-07
4.3825519e-07
4.3601641e-07
4.3388797e-07
4.3185973e-07
4.2992264e-07
4.2806867e-07
4.2629076e-07
4.2458251e-07
4.2293839e-07
4.2135337e-07
4.1982281e-07
4.1834266e-07
4.1690926e-07
4.1551911e-07
4.1416913e-07
4.128566e-07
4.115789e-07
4.1033355e-07
4.0911846e-07
4.079317e-07
4.0677131e-07
4.056355e-07
4.0452276e-07
4.0343167e-07
4.0236076e-07
4.0130863e-07
4.0027415e-07
3.9925627e-07
3.9825385e-07
3.9726578e-07
3.9629113e-07
3.9532907e-07
3.9437876e-07
3.9343929e-07
3.9250983e-07
3.915897e-07
3.9067827e-07
3.8977479e-07
3.8887854e-07
3.8798887e-07
3.8710523e-07
3.8622708e-07
3.8535375e-07
3.8448461e-07
3.8361912e-07
3.8275681e-07
3.8189715e-07
3.8103951e-07
3.8018329e-07
3.7932804e-07
3.7847327e-07
3.7761842e-07
3.7676287e-07
3.7590604e-07
3.7504745e-07
3.7418659e-07
3.7332279e-07
3.7245537e-07
3.7158376e-07
3.7070742e-07
3.6982563e-07
3.689376e-07
3.6804259e-07
3.6713993e-07
3.6622883e-07
3.6530834e-07
3.6437753e-07
3.6343557e-07
3.6248143e-07
3.615139e-07
3.6053183e-07
3.5953404e-07
3.5851912e-07
3.5748542e-07
3.5643168e-07
3.553793e-07
3.5436176e-07
3.533891e-07
3.5245801e-07
3.5156533e-07
3.5070816e-07
3.4988402e-07
3.4909069e-07
3.48326e-07
3.4758793e-07
3.4687481e-07
3.4618512e-07
3.4551737e-07
3.4487011e-07
3.442419e-07
3.4363164e-07
3.4303758e-07
3.4245955e-07
3.4189132e-07
3.4134171e-07
3.4077101e-07
3.4027326e-07
3.3943994e-07
1.9998408e-06
1.9998705e-06
1.9999998e-06
2.0002693e-06
2.0006557e-06
2.0011357e-06
2.0016905e-06
2.0023054e-06
2.002968e-06
2.0036683e-06
2.0043979e-06
2.0051507e-06
2.0059219e-06
2.0067084e-06
2.0075092e-06
2.0083244e-06
2.0091571e-06
2.0100109e-06
2.0108949e-06
2.0118254e-06
2.0127714e-06
2.0140056e-06
2.0144457e-06
2.0157076e-06
5.9067816e-07
5.6593648e-07
5.5514067e-07
5.4776339e-07
5.4228213e-07
5.3747345e-07
5.3303346e-07
5.2890121e-07
5.2504767e-07
5.2144405e-07
5.1806398e-07
5.1488494e-07
5.1188706e-07
5.0905261e-07
5.0636601e-07
5.0381369e-07
5.0138362e-07
4.9906508e-07
4.9684836e-07
4.947248e-07
4.926867e-07
4.9072709e-07
4.8883983e-07
4.8701942e-07
4.8526067e-07
4.8355909e-07
4.8191059e-07
4.8031126e-07
4.7875763e-07
4.7724665e-07
4.7577536e-07
4.7434098e-07
4.7294112e-07
4.715736e-07
4.7023623e-07
4.6892696e-07
4.6764405e-07
4.6638591e-07
4.6515088e-07
4.6393734e-07
4.6274402e-07
4.615697e-07
4.6041309e-07
4.5927294e-07
4.5814816e-07
4.5703781e-07
4.5594092e-07
4.5485648e-07
4.5378351e-07
4.5272124e-07
4.5166892e-07
4.5062574e-07
4.4959085e-07
4.4856349e-07
4.4754305e-07
4.4652888e-07
4.4552025e-07
4.4451641e-07
4.4351675e-07
4.4252072e-07
4.415277e-07
4.4053699e-07
4.3954789e-07
4.3855986e-07
4.3757237e-07
4.3658476e-07
4.3559631e-07
4.3460636e-07
4.3361434e-07
4.3261967e-07
4.3162159e-07
4.306193e-07
4.2961216e-07
4.2859952e-07
4.2758056e-07
4.2655437e-07
4.255201e-07
4.2447698e-07
4.2342408e-07
4.2236031e-07
4.2128462e-07
4.20196e-07
4.1909331e-07
4.1797512e-07
4.168401e-07
4.1568691e-07
4.1451393e-07
4.1331921e-07
4.1210131e-07
4.1088498e-07
4.0970891e-07
4.0858471e-07
4.0750854e-07
4.0647676e-07
4.0548602e-07
4.0453346e-07
4.036165e-07
4.0273263e-07
4.0187954e-07
4.0105529e-07
4.0025812e-07
3.994863e-07
3.9873816e-07
3.9801205e-07
3.9730669e-07
3.9662006e-07
3.9595197e-07
3.9529524e-07
3.9466001e-07
3.9400074e-07
3.9342555e-07
3.9246214e-07
1.9998397e-06
1.9998691e-06
1.9999975e-06
2.0002657e-06
2.0006509e-06
2.0011298e-06
2.0016836e-06
2.0022974e-06
2.0029591e-06
2.0036583e-06
2.0043868e-06
2.0051383e-06
2.0059081e-06
2.0066931e-06
2.0074921e-06
2.0083053e-06
2.0091357e-06
2.0099868e-06
2.0108676e-06
2.0117945e-06
2.012736e-06
2.0139643e-06
2.014394e-06
2.0156592e-06
6.475982e-07
6.3661866e-07
6.3195461e-07
6.2581409e-07
6.2052847e-07
6.1566872e-07
6.1104537e-07
6.0664934e-07
6.02486e-07
5.9854874e-07
5.9482489e-07
5.9130016e-07
5.8795955e-07
5.8478818e-07
5.8177217e-07
5.7889895e-07
5.76157e-07
5.735357e-07
5.7102526e-07
5.6861677e-07
5.6630224e-07
5.6407434e-07
5.6192658e-07
5.5985306e-07
5.5784822e-07
5.5590719e-07
5.5402551e-07
5.5219895e-07
5.5042366e-07
5.4869629e-07
5.4701359e-07
5.4537248e-07
5.4377029e-07
5.4220461e-07
5.40673e-07
5.3917315e-07
5.3770313e-07
5.3626114e-07
5.3484534e-07
5.3345392e-07
5.3208539e-07
5.3073843e-07
5.2941157e-07
5.281034e-07
5.2681268e-07
5.2553834e-07
5.2427931e-07
5.2303442e-07
5.2180257e-07
5.2058286e-07
5.1937448e-07
5.1817647e-07
5.1698789e-07
5.1580787e-07
5.146357e-07
5.1347065e-07
5.123119e-07
5.1115857e-07
5.1000997e-07
5.0886548e-07
5.0772438e-07
5.065859e-07
5.054492e-07
5.0431369e-07
5.0317874e-07
5.020436e-07
5.0090747e-07
4.9976956e-07
4.9862925e-07
4.9748584e-07
4.9633848e-07
4.9518625e-07
4.9402841e-07
4.9286421e-07
4.9169273e-07
4.9051291e-07
4.8932377e-07
4.8812441e-07
4.869138e-07
4.8569068e-07
4.8445382e-07
4.8320209e-07
4.8193414e-07
4.8064836e-07
4.7934322e-07
4.7801716e-07
4.7666832e-07
4.7529449e-07
4.7389399e-07
4.7249527e-07
4.7114284e-07
4.6985005e-07
4.6861251e-07
4.67426e-07
4.6628668e-07
4.6519126e-07
4.6413678e-07
4.6312036e-07
4.6213933e-07
4.6119146e-07
4.6027474e-07
4.5938717e-07
4.5852685e-07
4.5769185e-07
4.5688072e-07
4.5609115e-07
4.5532289e-07
4.545678e-07
4.5383736e-07
4.5307969e-07
4.5241846e-07
4.5131029e-07
1.9998383e-06
1.9998674e-06
1.9999947e-06
2.0002615e-06
2.0006453e-06
2.0011228e-06
2.0016754e-06
2.0022881e-06
2.0029485e-06
2.0036464e-06
2.0043736e-06
2.0051236e-06
2.0058917e-06
2.0066749e-06
2.0074718e-06
2.0082825e-06
2.0091102e-06
2.0099581e-06
2.0108352e-06
2.0117579e-06
2.0126941e-06
2.0139155e-06
2.014333e-06
2.015603e-06
7.0401019e-07
7.0882174e-07
7.1336759e-07
7.0993742e-07
7.0555233e-07
7.0109065e-07
6.9659958e-07
6.921663e-07
6.8785684e-07
6.8370465e-07
6.7972324e-07
6.759152e-07
6.722763e-07
6.6879877e-07
6.654736e-07
6.6229158e-07
6.5924346e-07
6.5632009e-07
6.5351264e-07
6.5081277e-07
6.4821283e-07
6.4570564e-07
6.4328476e-07
6.4094424e-07
6.386784e-07
6.3648218e-07
6.3435096e-07
6.3228027e-07
6.3026605e-07
6.2830471e-07
6.2639281e-07
6.24527e-07
6.227044e-07
6.2092238e-07
6.1917832e-07
6.1746969e-07
6.1579434e-07
6.1415033e-07
6.1253561e-07
6.1094819e-07
6.0938642e-07
6.0784882e-07
6.0633378e-07
6.0483973e-07
6.0336528e-07
6.0190922e-07
6.0047037e-07
5.9904743e-07
5.9763914e-07
5.9624452e-07
5.9486262e-07
5.934924e-07
5.9213279e-07
5.9078279e-07
5.8944161e-07
5.8810843e-07
5.8678232e-07
5.8546229e-07
5.8414756e-07
5.8283739e-07
5.8153101e-07
5.8022752e-07
5.7892599e-07
5.7762572e-07
5.7632599e-07
5.7502599e-07
5.7372476e-07
5.7242144e-07
5.7111528e-07
5.6980551e-07
5.6849117e-07
5.6717118e-07
5.6584471e-07
5.6451091e-07
5.6316871e-07
5.6181692e-07
5.604544e-07
5.5908014e-07
5.5769295e-07
5.5629139e-07
5.5487404e-07
5.5343962e-07
5.5198659e-07
5.5051312e-07
5.4901742e-07
5.4749773e-07
5.4595191e-07
5.4437744e-07
5.4277238e-07
5.4116935e-07
5.3961937e-07
5.3813774e-07
5.3671941e-07
5.3535958e-07
5.3405383e-07
5.3279839e-07
5.3158988e-07
5.3042499e-07
5.2930066e-07
5.2821434e-07
5.2716372e-07
5.2614652e-07
5.2516055e-07
5.2420362e-07
5.2327404e-07
5.223692e-07
5.214888e-07
5.2062357e-07
5.1978654e-07
5.1891884e-07
5.1816138e-07
5.1689101e-07
1.9998367e-06
1.9998654e-06
1.9999914e-06
2.0002565e-06
2.0006386e-06
2.0011146e-06
2.0016657e-06
2.002277e-06
2.0029359e-06
2.0036324e-06
2.0043579e-06
2.0051061e-06
2.0058723e-06
2.0066532e-06
2.0074476e-06
2.0082555e-06
2.0090799e-06
2.0099242e-06
2.0107969e-06
2.0117148e-06
2.0126447e-06
2.0138582e-06
2.0142615e-06
2.0155384e-06
7.5937938e-07
7.8156754e-07
7.9856201e-07
7.9968965e-07
7.9721193e-07
7.9382372e-07
7.899647e-07
7.858737e-07
7.8170889e-07
7.7756612e-07
7.7350144e-07
7.6954618e-07
7.6571547e-07
7.6201493e-07
7.5844526e-07
7.5500431e-07
7.5168798e-07
7.4849085e-07
7.4540678e-07
7.4242943e-07
7.3955264e-07
7.367703e-07
7.3407674e-07
7.314666e-07
7.2893456e-07
7.264758e-07
7.2408586e-07
7.2176035e-07
7.1949521e-07
7.1728682e-07
7.1513171e-07
7.1302642e-07
7.1096794e-07
7.0895359e-07
7.069806e-07
7.0504628e-07
7.0314837e-07
7.0128479e-07
6.9945338e-07
6.9765198e-07
6.958788e-07
6.9413224e-07
6.9241058e-07
6.9071209e-07
6.8903525e-07
6.8737874e-07
6.8574126e-07
6.841214e-07
6.8251777e-07
6.8092925e-07
6.7935481e-07
6.7779332e-07
6.7624356e-07
6.7470444e-07
6.7317505e-07
6.7165449e-07
6.7014173e-07
6.6863566e-07
6.6713538e-07
6.6564009e-07
6.641489e-07
6.6266082e-07
6.6117479e-07
6.5969e-07
6.5820568e-07
6.5672086e-07
6.5523451e-07
6.5374562e-07
6.5225335e-07
6.5075682e-07
6.4925495e-07
6.4774652e-07
6.4623055e-07
6.447061e-07
6.4317196e-07
6.4162676e-07
6.4006921e-07
6.3849815e-07
6.3691222e-07
6.3530979e-07
6.3368925e-07
6.3204911e-07
6.3038764e-07
6.2870272e-07
6.2699234e-07
6.2525447e-07
6.2348668e-07
6.2168608e-07
6.1985047e-07
6.1801713e-07
6.1624445e-07
6.1454991e-07
6.1292776e-07
6.1137251e-07
6.098791e-07
6.0844324e-07
6.0706104e-07
6.0572873e-07
6.0444282e-07
6.0320039e-07
6.0199879e-07
6.0083542e-07
5.9970778e-07
5.9861336e-07
5.9755024e-07
5.9651544e-07
5.955086e-07
5.9451924e-07
5.9356206e-07
5.9257046e-07
5.9170465e-07
5.9025124e-07
1.9998349e-06
1.9998631e-06
1.9999876e-06
2.0002508e-06
2.0006309e-06
2.001105e-06
2.0016543e-06
2.0022639e-06
2.0029211e-06
2.0036157e-06
2.0043394e-06
2.0050854e-06
2.0058492e-06
2.0066275e-06
2.007419e-06
2.0082235e-06
2.0090442e-06
2.0098842e-06
2.0107519e-06
2.011664e-06
2.0125868e-06
2.0137911e-06
2.0141779e-06
2.0154645e-06
8.1307778e-07
8.5377577e-07
8.865309e-07
8.9433082e-07
8.9503537e-07
8.9361105e-07
8.9107145e-07
8.8786976e-07
8.8428895e-07
8.8051061e-07
8.7665142e-07
8.7278523e-07
8.6895688e-07
8.6519334e-07
8.6151121e-07
8.5792043e-07
8.5442603e-07
8.5102948e-07
8.4772992e-07
8.4452511e-07
8.4141208e-07
8.3838726e-07
8.3544692e-07
8.3258725e-07
8.2980417e-07
8.2709373e-07
8.2445226e-07
8.2187593e-07
8.1936108e-07
8.1690445e-07
8.1450281e-07
8.1215289e-07
8.0985177e-07
8.0759686e-07
8.0538547e-07
8.032149e-07
8.0108285e-07
7.9898726e-07
7.9692593e-07
7.9489663e-07
7.9289748e-07
7.9092685e-07
7.8898294e-07
7.8706394e-07
7.8516821e-07
7.8329437e-07
7.8144103e-07
7.796067e-07
7.7778987e-07
7.7598933e-07
7.7420397e-07
7.7243257e-07
7.7067382e-07
7.6892651e-07
7.6718963e-07
7.6546221e-07
7.6374313e-07
7.6203115e-07
7.6032528e-07
7.5862461e-07
7.5692819e-07
7.552349e-07
7.5354357e-07
7.5185327e-07
7.5016315e-07
7.4847214e-07
7.4677907e-07
7.450828e-07
7.4338238e-07
7.4167684e-07
7.3996494e-07
7.3824532e-07
7.3651686e-07
7.3477849e-07
7.3302884e-07
7.3126638e-07
7.2948963e-07
7.2769725e-07
7.2588772e-07
7.240592e-07
7.2220982e-07
7.2033791e-07
7.1844149e-07
7.1651816e-07
7.1456562e-07
7.1258155e-07
7.105632e-07
7.0850726e-07
7.0641121e-07
7.0431765e-07
7.0229325e-07
7.0035803e-07
6.9850541e-07
6.9672914e-07
6.9502346e-07
6.9338347e-07
6.9180474e-07
6.9028297e-07
6.8881419e-07
6.8739504e-07
6.8602252e-07
6.8469366e-07
6.8340562e-07
6.8215553e-07
6.8094119e-07
6.7975922e-07
6.7860921e-07
6.7747931e-07
6.7638606e-07
6.7525435e-07
6.7426599e-07
6.7260504e-07
1.9998328e-06
1.9998605e-06
1.9999833e-06
2.0002441e-06
2.0006219e-06
2.0010938e-06
2.001641e-06
2.0022485e-06
2.0029037e-06
2.0035962e-06
2.0043175e-06
2.005061e-06
2.005822e-06
2.0065972e-06
2.0073852e-06
2.0081859e-06
2.0090022e-06
2.0098372e-06
2.010699e-06
2.0116046e-06
2.0125191e-06
2.0137129e-06
2.0140808e-06
2.0153807e-06
8.6439079e-07
9.2429564e-07
9.7613725e-07
9.9297109e-07
9.9836219e-07
9.9997236e-07
9.9959964e-07
9.9798393e-07
9.9556628e-07
9.9263662e-07
9.893901e-07
9.8595721e-07
9.8242344e-07
9.7884573e-07
9.7526359e-07
9.7170482e-07
9.6818829e-07
9.6472625e-07
9.6132632e-07
9.5799305e-07
9.5472892e-07
9.5153478e-07
9.4841045e-07
9.4535504e-07
9.4236685e-07
9.3944381e-07
9.3658384e-07
9.3378443e-07
9.3104294e-07
9.2835697e-07
9.2572404e-07
9.2314146e-07
9.2060676e-07
9.1811775e-07
9.1567207e-07
9.1326726e-07
9.1090121e-07
9.0857202e-07
9.0627764e-07
9.040159e-07
9.0178497e-07
8.9958328e-07
8.9740909e-07
8.9526055e-07
8.9313602e-07
8.9103409e-07
8.8895338e-07
8.8689236e-07