/*--------------------------------*- C++ -*----------------------------------*\
  =========                 |
  \\      /  F ield         | OpenFOAM: The Open Source CFD Toolbox
   \\    /   O peration     | Website:  https://openfoam.org
    \\  /    A nd           | Version:  12
     \\/     M anipulation  |
\*---------------------------------------------------------------------------*/
FoamFile
{
    format      ascii;
    class       volScalarField;
    location    "1400";
    object      p;
}
// * * * * * * * * * * * * * * * * * * * * * * * * * * * * * * * * * * * * * //

dimensions      [0 2 -2 0 0 0 0];

internalField   nonuniform List<scalar> 
13056
(
0.004082954
0.0041027525
0.0041459867
0.0042006283
0.0042650257
0.0043391162
0.0044222393
0.0045136749
0.0046130857
0.0047205187
0.0048363213
0.0049611426
0.005096015
0.0052424993
0.0054028836
0.0055806033
0.005780654
0.0060114191
0.0062845151
0.0066276755
0.007065793
0.0077621097
0.0086462598
0.012588085
0.0091200072
0.0040396409
0.0039424502
0.0043970188
0.0045186934
0.0044662689
0.0043923506
0.0043239956
0.0042555703
0.0041864684
0.0041186624
0.0040536311
0.0039920126
0.0039335185
0.0038778697
0.0038248592
0.0037743328
0.0037261349
0.0036799405
0.0036357557
0.0035931915
0.0035522729
0.0035128828
0.0034746126
0.0034376711
0.003401914
0.0033669817
0.0033330186
0.0033000019
0.0032676888
0.0032359612
0.0032050114
0.0031747155
0.0031448011
0.0031153235
0.0030864242
0.0030579704
0.0030297372
0.0030017611
0.0029742125
0.0029469905
0.0029198451
0.0028928384
0.0028660532
0.0028395073
0.002813014
0.0027865203
0.0027600446
0.0027337292
0.0027074744
0.0026810734
0.0026545877
0.0026280586
0.0026015504
0.0025749139
0.0025480438
0.0025209557
0.0024937589
0.0024664386
0.0024387885
0.0024108039
0.002382469
0.0023539221
0.0023250711
0.0022956918
0.0022658284
0.0022354954
0.0022047604
0.0021734625
0.0021414537
0.0021087131
0.0020753852
0.0020413763
0.0020064016
0.0019704597
0.0019335818
0.0018957622
0.0018567593
0.001816397
0.0017747054
0.0017316739
0.0016870325
0.0016405097
0.0015921623
0.0015418678
0.0014892223
0.0014340044
0.0013762064
0.0013156451
0.0012528367
0.0011898872
0.0011279521
0.0010668383
0.0010064844
0.00094704051
0.00088840136
0.00083036347
0.00077297119
0.00071644648
0.00066077794
0.00060579926
0.00055166016
0.00049849233
0.00044661314
0.00039632671
0.0003476257
0.00030223992
0.00025856031
0.00022878567
0.00019037422
0.00031234286
-0.00024362951
0.004082954
0.0041027525
0.0041459867
0.0042006283
0.0042650257
0.0043391162
0.0044222393
0.0045136749
0.0046130857
0.0047205187
0.0048363213
0.0049611426
0.005096015
0.0052424993
0.0054028836
0.0055806034
0.0057806541
0.0060114191
0.0062845151
0.0066276755
0.007065793
0.0077621095
0.0086462601
0.012570922
0.0091208122
0.0040403036
0.0039425482
0.0043970557
0.0045187195
0.0044662911
0.00439237
0.0043240128
0.0042555857
0.0041864823
0.004118675
0.0040536427
0.0039920233
0.0039335284
0.0038778788
0.0038248677
0.0037743408
0.0037261423
0.0036799475
0.0036357623
0.0035931977
0.0035522787
0.0035128883
0.0034746178
0.0034376761
0.0034019187
0.0033669862
0.0033330229
0.003300006
0.0032676927
0.0032359649
0.0032050149
0.0031747188
0.0031448044
0.0031153266
0.0030864271
0.0030579732
0.0030297399
0.0030017637
0.002974215
0.0029469929
0.0029198474
0.0028928406
0.0028660554
0.0028395093
0.002813016
0.0027865222
0.0027600464
0.002733731
0.0027074761
0.002681075
0.0026545893
0.0026280601
0.0026015518
0.0025749153
0.0025480452
0.002520957
0.0024937602
0.0024664399
0.0024387897
0.002410805
0.0023824701
0.0023539231
0.0023250721
0.0022956928
0.0022658294
0.0022354963
0.0022047612
0.0021734633
0.0021414545
0.0021087139
0.002075386
0.0020413771
0.0020064023
0.0019704604
0.0019335825
0.0018957628
0.0018567599
0.0018163976
0.0017747059
0.0017316744
0.001687033
0.0016405102
0.0015921628
0.0015418683
0.0014892227
0.0014340048
0.0013762067
0.0013156455
0.0012528371
0.0011898876
0.0011279524
0.0010668386
0.0010064847
0.00094704078
0.00088840162
0.00083036373
0.00077297143
0.00071644672
0.00066077817
0.00060579948
0.00055166037
0.00049849254
0.00044661334
0.00039632691
0.00034762589
0.0003022401
0.00025856049
0.00022878585
0.0001903744
0.00031234307
-0.00024362937
0.004082954
0.0041027525
0.0041459867
0.0042006283
0.0042650257
0.0043391162
0.0044222393
0.0045136749
0.0046130857
0.0047205187
0.0048363213
0.0049611426
0.005096015
0.0052424993
0.0054028836
0.0055806034
0.0057806541
0.0060114191
0.0062845151
0.0066276755
0.0070657929
0.0077621091
0.0086462602
0.012554612
0.009121687
0.004041069
0.0039426644
0.0043970999
0.0045187508
0.0044663176
0.0043923933
0.0043240334
0.0042556041
0.0041864989
0.0041186902
0.0040536566
0.0039920361
0.0039335402
0.0038778898
0.0038248779
0.0037743503
0.0037261512
0.0036799558
0.0036357701
0.003593205
0.0035522857
0.0035128949
0.003474624
0.003437682
0.0034019243
0.0033669915
0.0033330279
0.0033000108
0.0032676973
0.0032359692
0.0032050191
0.0031747228
0.0031448082
0.0031153303
0.0030864307
0.0030579766
0.0030297431
0.0030017668
0.002974218
0.0029469958
0.0029198501
0.0028928433
0.0028660579
0.0028395118
0.0028130183
0.0027865245
0.0027600486
0.0027337331
0.0027074781
0.002681077
0.0026545912
0.002628062
0.0026015536
0.002574917
0.0025480469
0.0025209586
0.0024937617
0.0024664413
0.0024387911
0.0024108064
0.0023824714
0.0023539244
0.0023250734
0.002295694
0.0022658305
0.0022354975
0.0022047623
0.0021734644
0.0021414555
0.0021087148
0.0020753869
0.002041378
0.0020064032
0.0019704612
0.0019335833
0.0018957636
0.0018567606
0.0018163983
0.0017747066
0.0017316751
0.0016870337
0.0016405108
0.0015921633
0.0015418688
0.0014892232
0.0014340053
0.0013762072
0.0013156459
0.0012528375
0.001189888
0.0011279528
0.001066839
0.0010064851
0.00094704111
0.00088840194
0.00083036403
0.00077297173
0.000716447
0.00066077844
0.00060579974
0.00055166063
0.00049849278
0.00044661358
0.00039632714
0.00034762612
0.00030224032
0.00025856071
0.00022878607
0.00019037462
0.00031234332
-0.0002436292
0.004082954
0.0041027525
0.0041459867
0.0042006283
0.0042650257
0.0043391162
0.0044222393
0.0045136749
0.0046130857
0.0047205188
0.0048363213
0.0049611426
0.005096015
0.0052424993
0.0054028836
0.0055806034
0.0057806541
0.0060114191
0.0062845151
0.0066276754
0.0070657927
0.0077621085
0.0086462605
0.012540068
0.0091226673
0.0040417746
0.0039427741
0.0043971433
0.0045187816
0.0044663436
0.004392416
0.0043240536
0.0042556222
0.0041865152
0.004118705
0.0040536702
0.0039920486
0.0039335517
0.0038779005
0.0038248879
0.0037743596
0.0037261599
0.003679964
0.0036357778
0.0035932123
0.0035522925
0.0035129013
0.0034746301
0.0034376877
0.0034019298
0.0033669967
0.0033330329
0.0033000155
0.0032677018
0.0032359735
0.0032050232
0.0031747268
0.003144812
0.0031153339
0.0030864341
0.0030579799
0.0030297463
0.0030017699
0.0029742209
0.0029469986
0.0029198528
0.0028928459
0.0028660604
0.0028395142
0.0028130207
0.0027865267
0.0027600508
0.0027337352
0.0027074801
0.0026810789
0.002654593
0.0026280638
0.0026015553
0.0025749187
0.0025480485
0.0025209601
0.0024937632
0.0024664428
0.0024387925
0.0024108078
0.0023824727
0.0023539257
0.0023250746
0.0022956951
0.0022658316
0.0022354985
0.0022047634
0.0021734654
0.0021414565
0.0021087158
0.0020753878
0.0020413788
0.002006404
0.001970462
0.001933584
0.0018957643
0.0018567613
0.0018163989
0.0017747072
0.0017316757
0.0016870342
0.0016405113
0.0015921639
0.0015418693
0.0014892237
0.0014340057
0.0013762077
0.0013156464
0.0012528379
0.0011898884
0.0011279531
0.0010668394
0.0010064854
0.00094704144
0.00088840225
0.00083036433
0.00077297201
0.00071644728
0.00066077871
0.0006058
0.00055166088
0.00049849302
0.00044661381
0.00039632737
0.00034762634
0.00030224054
0.00025856092
0.00022878628
0.00019037482
0.00031234357
-0.00024362904
0.004082954
0.0041027525
0.0041459867
0.0042006283
0.0042650257
0.0043391162
0.0044222393
0.0045136749
0.0046130857
0.0047205188
0.0048363214
0.0049611426
0.005096015
0.0052424993
0.0054028836
0.0055806034
0.0057806541
0.0060114191
0.006284515
0.0066276753
0.0070657926
0.0077621076
0.0086462609
0.012525712
0.009123807
0.0040424188
0.0039428857
0.0043971883
0.0045188132
0.0044663704
0.0043924395
0.0043240743
0.0042556408
0.004186532
0.0041187203
0.0040536842
0.0039920615
0.0039335636
0.0038779116
0.0038248981
0.0037743692
0.0037261689
0.0036799724
0.0036357857
0.0035932197
0.0035522995
0.0035129079
0.0034746364
0.0034376937
0.0034019354
0.0033670021
0.003333038
0.0033000204
0.0032677064
0.003235978
0.0032050275
0.0031747308
0.0031448158
0.0031153376
0.0030864377
0.0030579833
0.0030297496
0.003001773
0.0029742239
0.0029470015
0.0029198556
0.0028928486
0.002866063
0.0028395167
0.002813023
0.002786529
0.002760053
0.0027337373
0.0027074822
0.0026810809
0.002654595
0.0026280656
0.0026015571
0.0025749204
0.0025480501
0.0025209617
0.0024937648
0.0024664443
0.0024387939
0.0024108091
0.002382474
0.0023539269
0.0023250758
0.0022956963
0.0022658328
0.0022354996
0.0022047644
0.0021734664
0.0021414574
0.0021087167
0.0020753887
0.0020413797
0.0020064049
0.0019704628
0.0019335848
0.0018957651
0.001856762
0.0018163996
0.0017747079
0.0017316763
0.0016870349
0.0016405119
0.0015921644
0.0015418699
0.0014892242
0.0014340062
0.0013762081
0.0013156468
0.0012528383
0.0011898888
0.0011279535
0.0010668397
0.0010064858
0.00094704177
0.00088840257
0.00083036464
0.00077297231
0.00071644756
0.00066077898
0.00060580026
0.00055166113
0.00049849327
0.00044661405
0.0003963276
0.00034762656
0.00030224076
0.00025856113
0.00022878649
0.00019037502
0.00031234382
-0.00024362888
0.004082954
0.0041027525
0.0041459867
0.0042006283
0.0042650257
0.0043391162
0.0044222393
0.0045136749
0.0046130857
0.0047205188
0.0048363214
0.0049611426
0.005096015
0.0052424993
0.0054028836
0.0055806034
0.005780654
0.006011419
0.006284515
0.0066276752
0.0070657924
0.0077621063
0.0086462616
0.012510963
0.0091249411
0.0040429961
0.003943006
0.004397237
0.0045188472
0.0044663991
0.0043924646
0.0043240965
0.0042556606
0.00418655
0.0041187367
0.0040536991
0.0039920753
0.0039335764
0.0038779233
0.0038249091
0.0037743794
0.0037261784
0.0036799813
0.0036357941
0.0035932276
0.003552307
0.003512915
0.0034746431
0.0034377
0.0034019415
0.0033670078
0.0033330434
0.0033000256
0.0032677114
0.0032359827
0.003205032
0.0031747351
0.0031448199
0.0031153415
0.0030864415
0.003057987
0.0030297531
0.0030017763
0.0029742271
0.0029470046
0.0029198586
0.0028928514
0.0028660658
0.0028395193
0.0028130256
0.0027865315
0.0027600553
0.0027337396
0.0027074844
0.002681083
0.002654597
0.0026280676
0.002601559
0.0025749222
0.0025480519
0.0025209634
0.0024937664
0.0024664458
0.0024387954
0.0024108106
0.0023824755
0.0023539283
0.0023250771
0.0022956976
0.002265834
0.0022355008
0.0022047656
0.0021734675
0.0021414585
0.0021087177
0.0020753897
0.0020413806
0.0020064058
0.0019704637
0.0019335856
0.0018957659
0.0018567628
0.0018164004
0.0017747086
0.001731677
0.0016870355
0.0016405125
0.001592165
0.0015418704
0.0014892248
0.0014340067
0.0013762086
0.0013156473
0.0012528388
0.0011898892
0.0011279539
0.0010668401
0.0010064861
0.00094704212
0.00088840291
0.00083036496
0.00077297262
0.00071644786
0.00066077927
0.00060580054
0.00055166141
0.00049849354
0.0004466143
0.00039632785
0.0003476268
0.00030224099
0.00025856136
0.00022878672
0.00019037524
0.00031234409
-0.00024362872
0.004082954
0.0041027525
0.0041459867
0.0042006283
0.0042650257
0.0043391162
0.0044222394
0.0045136749
0.0046130857
0.0047205188
0.0048363214
0.0049611426
0.005096015
0.0052424993
0.0054028836
0.0055806034
0.005780654
0.006011419
0.0062845149
0.006627675
0.0070657921
0.0077621045
0.0086462625
0.012495794
0.0091260959
0.0040435792
0.0039431392
0.0043972911
0.0045188847
0.0044664306
0.0043924921
0.0043241209
0.0042556824
0.0041865697
0.0041187546
0.0040537155
0.0039920903
0.0039335903
0.0038779362
0.0038249211
0.0037743906
0.0037261889
0.0036799911
0.0036358033
0.0035932363
0.0035523152
0.0035129227
0.0034746504
0.0034377069
0.003401948
0.0033670141
0.0033330494
0.0033000312
0.0032677167
0.0032359878
0.0032050369
0.0031747398
0.0031448244
0.0031153458
0.0030864456
0.0030579909
0.0030297568
0.00300178
0.0029742306
0.0029470079
0.0029198618
0.0028928545
0.0028660687
0.0028395222
0.0028130284
0.0027865342
0.0027600579
0.002733742
0.0027074868
0.0026810853
0.0026545992
0.0026280697
0.0026015611
0.0025749242
0.0025480538
0.0025209653
0.0024937682
0.0024664476
0.0024387971
0.0024108122
0.002382477
0.0023539298
0.0023250786
0.002295699
0.0022658353
0.0022355021
0.0022047668
0.0021734687
0.0021414596
0.0021087188
0.0020753908
0.0020413817
0.0020064067
0.0019704646
0.0019335866
0.0018957668
0.0018567636
0.0018164012
0.0017747094
0.0017316777
0.0016870362
0.0016405132
0.0015921656
0.001541871
0.0014892254
0.0014340073
0.0013762091
0.0013156478
0.0012528393
0.0011898896
0.0011279543
0.0010668405
0.0010064865
0.0009470425
0.00088840327
0.00083036531
0.00077297296
0.00071644819
0.00066077959
0.00060580085
0.0005516617
0.00049849382
0.00044661458
0.00039632811
0.00034762706
0.00030224125
0.00025856161
0.00022878697
0.00019037548
0.00031234439
-0.00024362853
0.004082954
0.0041027525
0.0041459867
0.0042006283
0.0042650257
0.0043391162
0.0044222394
0.0045136749
0.0046130857
0.0047205188
0.0048363214
0.0049611426
0.005096015
0.0052424993
0.0054028836
0.0055806033
0.005780654
0.0060114189
0.0062845147
0.0066276747
0.0070657918
0.0077621022
0.0086462637
0.012480253
0.0091272823
0.0040442963
0.0039432913
0.0043973529
0.0045189271
0.0044664661
0.004392523
0.0043241482
0.0042557068
0.0041865917
0.0041187746
0.0040537338
0.0039921071
0.0039336058
0.0038779506
0.0038249344
0.003774403
0.0037262005
0.003680002
0.0036358135
0.0035932459
0.0035523242
0.0035129313
0.0034746585
0.0034377146
0.0034019553
0.003367021
0.003333056
0.0033000375
0.0032677227
0.0032359935
0.0032050423
0.003174745
0.0031448294
0.0031153506
0.0030864501
0.0030579953
0.003029761
0.003001784
0.0029742345
0.0029470116
0.0029198654
0.002892858
0.002866072
0.0028395254
0.0028130314
0.0027865371
0.0027600607
0.0027337448
0.0027074894
0.0026810878
0.0026546016
0.002628072
0.0026015633
0.0025749264
0.0025480559
0.0025209673
0.0024937702
0.0024664495
0.0024387989
0.002410814
0.0023824787
0.0023539314
0.0023250801
0.0022957005
0.0022658368
0.0022355035
0.0022047682
0.00217347
0.0021414609
0.0021087201
0.0020753919
0.0020413828
0.0020064078
0.0019704656
0.0019335875
0.0018957677
0.0018567646
0.001816402
0.0017747102
0.0017316785
0.001687037
0.0016405139
0.0015921664
0.0015418717
0.001489226
0.0014340079
0.0013762097
0.0013156483
0.0012528398
0.0011898901
0.0011279548
0.001066841
0.001006487
0.00094704292
0.00088840368
0.0008303657
0.00077297333
0.00071644855
0.00066077993
0.00060580118
0.00055166202
0.00049849413
0.00044661488
0.00039632841
0.00034762735
0.00030224152
0.00025856188
0.00022878724
0.00019037574
0.00031234471
-0.00024362833
0.004082954
0.0041027525
0.0041459867
0.0042006283
0.0042650257
0.0043391162
0.0044222394
0.0045136749
0.0046130857
0.0047205188
0.0048363214
0.0049611426
0.005096015
0.0052424993
0.0054028836
0.0055806033
0.0057806539
0.0060114188
0.0062845146
0.0066276744
0.0070657913
0.0077620992
0.0086462652
0.012464391
0.0091281816
0.0040452499
0.0039434731
0.0043974261
0.0045189767
0.0044665073
0.0043925589
0.0043241799
0.004255735
0.0041866171
0.0041187976
0.0040537548
0.0039921264
0.0039336236
0.0038779671
0.0038249497
0.0037744173
0.0037262138
0.0036800145
0.0036358252
0.0035932569
0.0035523346
0.0035129411
0.0034746677
0.0034377234
0.0034019636
0.0033670288
0.0033330634
0.0033000446
0.0032677295
0.003236
0.0032050485
0.0031747509
0.003144835
0.003115356
0.0030864553
0.0030580002
0.0030297658
0.0030017885
0.0029742388
0.0029470158
0.0029198694
0.0028928618
0.0028660758
0.002839529
0.0028130349
0.0027865404
0.0027600639
0.0027337478
0.0027074924
0.0026810907
0.0026546044
0.0026280747
0.0026015659
0.0025749289
0.0025480583
0.0025209696
0.0024937724
0.0024664516
0.002438801
0.0024108159
0.0023824806
0.0023539333
0.0023250819
0.0022957022
0.0022658384
0.0022355051
0.0022047697
0.0021734714
0.0021414623
0.0021087214
0.0020753932
0.002041384
0.002006409
0.0019704668
0.0019335887
0.0018957688
0.0018567656
0.001816403
0.0017747112
0.0017316794
0.0016870378
0.0016405148
0.0015921671
0.0015418725
0.0014892267
0.0014340086
0.0013762104
0.001315649
0.0012528404
0.0011898907
0.0011279554
0.0010668415
0.0010064875
0.00094704339
0.00088840412
0.00083036613
0.00077297375
0.00071644895
0.00066078032
0.00060580156
0.00055166238
0.00049849448
0.00044661522
0.00039632874
0.00034762767
0.00030224183
0.00025856218
0.00022878754
0.00019037603
0.00031234506
-0.00024362811
0.004082954
0.0041027525
0.0041459867
0.0042006283
0.0042650257
0.0043391162
0.0044222394
0.0045136749
0.0046130857
0.0047205188
0.0048363214
0.0049611426
0.005096015
0.0052424993
0.0054028836
0.0055806033
0.0057806539
0.0060114187
0.0062845144
0.0066276739
0.0070657907
0.0077620954
0.0086462672
0.012448289
0.0091284644
0.0040465297
0.0039437038
0.0043975171
0.0045190374
0.0044665574
0.0043926023
0.004324218
0.0042557689
0.0041866475
0.0041188252
0.00405378
0.0039921495
0.0039336448
0.0038779867
0.0038249679
0.0037744341
0.0037262296
0.0036800292
0.003635839
0.0035932699
0.0035523468
0.0035129525
0.0034746786
0.0034377336
0.0034019733
0.0033670381
0.0033330722
0.0033000529
0.0032677374
0.0032360075
0.0032050557
0.0031747578
0.0031448416
0.0031153623
0.0030864613
0.003058006
0.0030297713
0.0030017938
0.0029742439
0.0029470207
0.0029198741
0.0028928663
0.0028660801
0.0028395331
0.0028130389
0.0027865443
0.0027600676
0.0027337514
0.0027074958
0.002681094
0.0026546076
0.0026280778
0.0026015689
0.0025749317
0.002548061
0.0025209722
0.0024937749
0.002466454
0.0024388033
0.0024108182
0.0023824828
0.0023539354
0.002325084
0.0022957042
0.0022658403
0.0022355069
0.0022047714
0.0021734731
0.0021414639
0.002108723
0.0020753947
0.0020413855
0.0020064104
0.0019704681
0.0019335899
0.00189577
0.0018567668
0.0018164042
0.0017747122
0.0017316805
0.0016870388
0.0016405157
0.001592168
0.0015418733
0.0014892276
0.0014340094
0.0013762111
0.0013156497
0.001252841
0.0011898913
0.001127956
0.0010668421
0.001006488
0.00094704392
0.00088840464
0.00083036662
0.00077297422
0.0007164494
0.00066078076
0.00060580198
0.00055166279
0.00049849488
0.0004466156
0.00039632911
0.00034762803
0.00030224219
0.00025856252
0.00022878789
0.00019037635
0.00031234547
-0.00024362785
0.004082954
0.0041027525
0.0041459867
0.0042006283
0.0042650258
0.0043391162
0.0044222394
0.0045136749
0.0046130858
0.0047205188
0.0048363214
0.0049611426
0.005096015
0.0052424993
0.0054028836
0.0055806032
0.0057806538
0.0060114186
0.0062845141
0.0066276733
0.0070657899
0.0077620904
0.0086462697
0.012432052
0.0091284369
0.0040482435
0.0039440149
0.0043976372
0.0045191158
0.0044666214
0.0043926574
0.0043242662
0.0042558117
0.0041866858
0.0041188597
0.0040538114
0.0039921782
0.0039336711
0.003878011
0.0038249904
0.003774455
0.003726249
0.0036800473
0.003635856
0.0035932858
0.0035523618
0.0035129666
0.0034746919
0.0034377462
0.0034019852
0.0033670493
0.0033330829
0.0033000631
0.0032677471
0.0032360167
0.0032050645
0.0031747662
0.0031448496
0.0031153699
0.0030864686
0.003058013
0.003029778
0.0030018002
0.0029742501
0.0029470266
0.0029198797
0.0028928718
0.0028660853
0.0028395381
0.0028130437
0.0027865489
0.0027600721
0.0027337557
0.0027074999
0.002681098
0.0026546114
0.0026280814
0.0026015724
0.0025749351
0.0025480643
0.0025209754
0.002493778
0.002466457
0.0024388062
0.0024108209
0.0023824854
0.0023539379
0.0023250864
0.0022957065
0.0022658426
0.0022355091
0.0022047735
0.0021734751
0.0021414659
0.0021087248
0.0020753965
0.0020413872
0.0020064121
0.0019704697
0.0019335915
0.0018957715
0.0018567682
0.0018164055
0.0017747135
0.0017316817
0.00168704
0.0016405168
0.0015921691
0.0015418743
0.0014892285
0.0014340103
0.001376212
0.0013156505
0.0012528418
0.0011898921
0.0011279567
0.0010668428
0.0010064887
0.00094704455
0.00088840523
0.0008303672
0.00077297477
0.00071644993
0.00066078127
0.00060580247
0.00055166327
0.00049849534
0.00044661605
0.00039632954
0.00034762845
0.0003022426
0.00025856292
0.00022878829
0.00019037673
0.00031234594
-0.00024362756
0.004082954
0.0041027525
0.0041459867
0.0042006283
0.0042650258
0.0043391162
0.0044222394
0.004513675
0.0046130858
0.0047205188
0.0048363214
0.0049611427
0.005096015
0.0052424993
0.0054028836
0.0055806032
0.0057806537
0.0060114184
0.0062845137
0.0066276725
0.0070657889
0.0077620841
0.0086462728
0.01241579
0.0091285427
0.0040505363
0.0039444591
0.0043978064
0.0045192237
0.0044667082
0.0043927317
0.0043243308
0.0042558685
0.0041867364
0.0041189053
0.0040538527
0.0039922158
0.0039337056
0.0038780427
0.0038250197
0.0037744821
0.0037262742
0.0036800708
0.0036358779
0.0035933063
0.003552381
0.0035129848
0.003474709
0.0034377623
0.0034020004
0.0033670637
0.0033330965
0.0033000761
0.0032677594
0.0032360285
0.0032050756
0.0031747768
0.0031448597
0.0031153796
0.0030864778
0.0030580218
0.0030297864
0.0030018083
0.0029742578
0.002947034
0.0029198869
0.0028928786
0.0028660919
0.0028395444
0.0028130497
0.0027865547
0.0027600777
0.0027337611
0.0027075051
0.0026811029
0.0026546162
0.002628086
0.0026015768
0.0025749394
0.0025480684
0.0025209793
0.0024937817
0.0024664606
0.0024388097
0.0024108243
0.0023824887
0.002353941
0.0023250894
0.0022957094
0.0022658454
0.0022355118
0.0022047761
0.0021734776
0.0021414683
0.0021087271
0.0020753987
0.0020413893
0.0020064141
0.0019704717
0.0019335933
0.0018957732
0.0018567699
0.0018164071
0.0017747151
0.0017316832
0.0016870414
0.0016405182
0.0015921704
0.0015418756
0.0014892297
0.0014340114
0.0013762131
0.0013156515
0.0012528428
0.001189893
0.0011279576
0.0010668436
0.0010064895
0.0009470453
0.00088840596
0.00083036789
0.00077297544
0.00071645058
0.00066078189
0.00060580307
0.00055166384
0.00049849589
0.00044661659
0.00039633006
0.00034762896
0.00030224309
0.0002585634
0.00022878877
0.00019037719
0.00031234651
-0.0002436272
0.004082954
0.0041027525
0.0041459867
0.0042006283
0.0042650258
0.0043391162
0.0044222394
0.004513675
0.0046130858
0.0047205188
0.0048363214
0.0049611426
0.005096015
0.0052424993
0.0054028835
0.0055806031
0.0057806535
0.0060114181
0.0062845132
0.0066276715
0.0070657876
0.0077620759
0.0086462768
0.01239959
0.0091288354
0.0040536618
0.0039451184
0.0043980591
0.0045193808
0.0044668327
0.0043928372
0.0043244218
0.0042559482
0.0041868071
0.0041189686
0.0040539098
0.0039922677
0.003933753
0.0038780861
0.0038250597
0.0037745191
0.0037263085
0.0036801027
0.0036359077
0.0035933342
0.0035524071
0.0035130092
0.003474732
0.003437784
0.0034020209
0.0033670831
0.0033331148
0.0033000934
0.0032677758
0.0032360441
0.0032050905
0.0031747909
0.0031448732
0.0031153924
0.0030864901
0.0030580335
0.0030297976
0.003001819
0.0029742681
0.0029470438
0.0029198963
0.0028928876
0.0028661005
0.0028395527
0.0028130577
0.0027865623
0.002760085
0.0027337681
0.0027075118
0.0026811094
0.0026546224
0.002628092
0.0026015826
0.0025749449
0.0025480737
0.0025209845
0.0024937867
0.0024664654
0.0024388142
0.0024108287
0.0023824929
0.0023539451
0.0023250933
0.0022957131
0.002265849
0.0022355152
0.0022047794
0.0021734808
0.0021414713
0.0021087301
0.0020754015
0.002041392
0.0020064167
0.0019704741
0.0019335957
0.0018957755
0.0018567721
0.0018164092
0.0017747171
0.0017316851
0.0016870433
0.0016405199
0.0015921721
0.0015418772
0.0014892312
0.0014340128
0.0013762144
0.0013156528
0.001252844
0.0011898942
0.0011279587
0.0010668446
0.0010064905
0.00094704626
0.00088840687
0.00083036877
0.00077297628
0.00071645138
0.00066078267
0.00060580382
0.00055166457
0.00049849659
0.00044661726
0.00039633072
0.00034762959
0.00030224371
0.00025856401
0.00022878937
0.00019037776
0.00031234721
-0.00024362675
0.004082954
0.0041027525
0.0041459867
0.0042006283
0.0042650258
0.0043391162
0.0044222394
0.004513675
0.0046130858
0.0047205188
0.0048363214
0.0049611426
0.005096015
0.0052424992
0.0054028834
0.005580603
0.0057806533
0.0060114177
0.0062845126
0.0066276703
0.0070657859
0.0077620656
0.0086462818
0.012383478
0.0091292228
0.0040579693
0.0039461046
0.0043984485
0.0045196192
0.0044670187
0.0043929934
0.0043245556
0.0042560645
0.0041869097
0.0041190601
0.004053992
0.0039923421
0.0039338207
0.0038781481
0.0038251166
0.0037745717
0.0037263571
0.0036801478
0.0036359497
0.0035933733
0.0035524437
0.0035130436
0.0034747642
0.0034378143
0.0034020495
0.0033671101
0.0033331404
0.0033001176
0.0032677987
0.0032360658
0.0032051111
0.0031748106
0.0031448919
0.0031154102
0.0030865071
0.0030580497
0.0030298131
0.0030018338
0.0029742822
0.0029470573
0.0029199092
0.0028929
0.0028661123
0.0028395641
0.0028130686
0.0027865728
0.002760095
0.0027337777
0.0027075211
0.0026811183
0.0026546309
0.0026281002
0.0026015904
0.0025749525
0.002548081
0.0025209914
0.0024937934
0.0024664718
0.0024388204
0.0024108347
0.0023824986
0.0023539506
0.0023250986
0.0022957182
0.0022658538
0.0022355199
0.0022047839
0.0021734851
0.0021414755
0.002108734
0.0020754053
0.0020413957
0.0020064202
0.0019704775
0.0019335989
0.0018957786
0.001856775
0.001816412
0.0017747198
0.0017316877
0.0016870457
0.0016405223
0.0015921743
0.0015418793
0.0014892332
0.0014340147
0.0013762162
0.0013156545
0.0012528456
0.0011898957
0.0011279601
0.001066846
0.0010064918
0.00094704751
0.00088840807
0.00083036992
0.00077297739
0.00071645245
0.00066078369
0.0006058048
0.00055166552
0.00049849751
0.00044661815
0.00039633158
0.00034763042
0.00030224452
0.00025856479
0.00022879015
0.00019037851
0.00031234814
-0.00024362617
0.004082954
0.0041027525
0.0041459867
0.0042006283
0.0042650258
0.0043391163
0.0044222394
0.004513675
0.0046130858
0.0047205188
0.0048363214
0.0049611426
0.005096015
0.0052424992
0.0054028833
0.0055806028
0.005780653
0.0060114172
0.0062845118
0.0066276686
0.0070657837
0.0077620523
0.008646288
0.012367407
0.0091296054
0.0040636241
0.0039475484
0.0043990504
0.0045199852
0.0044673005
0.0043932283
0.0043247556
0.0042562377
0.0041870617
0.0041191951
0.0040541131
0.0039924514
0.0039339199
0.0038782387
0.0038251996
0.0037746481
0.0037264277
0.0036802133
0.0036360105
0.00359343
0.0035524967
0.0035130931
0.0034748107
0.003437858
0.0034020906
0.0033671489
0.003333177
0.0033001522
0.0032678316
0.0032360969
0.0032051406
0.0031748386
0.0031449186
0.0031154356
0.0030865313
0.0030580728
0.0030298351
0.0030018548
0.0029743023
0.0029470765
0.0029199275
0.0028929175
0.0028661292
0.0028395802
0.002813084
0.0027865876
0.0027601092
0.0027337913
0.0027075341
0.0026811308
0.002654643
0.0026281118
0.0026016015
0.0025749631
0.0025480912
0.0025210013
0.0024938028
0.0024664809
0.0024388291
0.002410843
0.0023825066
0.0023539583
0.002325106
0.0022957253
0.0022658607
0.0022355265
0.0022047902
0.0021734911
0.0021414812
0.0021087396
0.0020754107
0.0020414007
0.002006425
0.0019704821
0.0019336034
0.0018957829
0.0018567791
0.0018164159
0.0017747235
0.0017316912
0.0016870491
0.0016405255
0.0015921773
0.0015418822
0.001489236
0.0014340173
0.0013762187
0.0013156568
0.0012528478
0.0011898978
0.0011279621
0.0010668479
0.0010064936
0.00094704924
0.00088840972
0.0008303715
0.0007729789
0.0007164539
0.00066078509
0.00060580615
0.00055166681
0.00049849876
0.00044661936
0.00039633275
0.00034763156
0.00030224563
0.00025856587
0.00022879122
0.00019037953
0.00031234939
-0.00024362538
0.004082954
0.0041027525
0.0041459867
0.0042006283
0.0042650258
0.0043391163
0.0044222394
0.004513675
0.0046130858
0.0047205188
0.0048363214
0.0049611426
0.0050960149
0.0052424991
0.0054028832
0.0055806026
0.0057806527
0.0060114166
0.0062845107
0.0066276665
0.0070657809
0.0077620353
0.0086462959
0.012351253
0.0091298832
0.0040704578
0.0039495793
0.0043999593
0.0045205379
0.0044677223
0.0043935782
0.0043250528
0.0042564943
0.0041872865
0.0041193943
0.0040542912
0.0039926119
0.0039340654
0.0038783713
0.0038253211
0.0037747597
0.0037265307
0.0036803086
0.003636099
0.0035935125
0.0035525736
0.0035131651
0.0034748782
0.0034379214
0.0034021503
0.0033672051
0.0033332301
0.0033002024
0.003267879
0.0032361419
0.0032051833
0.0031748791
0.0031449571
0.0031154723
0.0030865662
0.0030581061
0.0030298668
0.0030018851
0.0029743312
0.0029471042
0.002919954
0.0028929428
0.0028661534
0.0028396034
0.0028131062
0.0027866089
0.0027601296
0.0027338109
0.0027075529
0.0026811488
0.0026546603
0.0026281284
0.0026016175
0.0025749784
0.0025481059
0.0025210154
0.0024938164
0.0024664939
0.0024388416
0.002410855
0.0023825181
0.0023539693
0.0023251166
0.0022957355
0.0022658704
0.0022355358
0.0022047992
0.0021734998
0.0021414895
0.0021087475
0.0020754182
0.002041408
0.002006432
0.0019704888
0.0019336097
0.0018957889
0.0018567849
0.0018164214
0.0017747288
0.0017316962
0.0016870539
0.00164053
0.0015921817
0.0015418863
0.0014892399
0.0014340211
0.0013762222
0.0013156602
0.001252851
0.0011899008
0.0011279649
0.0010668506
0.0010064961
0.00094705168
0.00088841206
0.00083037373
0.00077298104
0.00071645596
0.00066078706
0.00060580805
0.00055166864
0.00049850053
0.00044662107
0.0003963344
0.00034763315
0.00030224718
0.00025856737
0.00022879273
0.00019038096
0.00031235116
-0.00024362427
0.004082954
0.0041027525
0.0041459867
0.0042006283
0.0042650258
0.0043391163
0.0044222394
0.004513675
0.0046130858
0.0047205188
0.0048363214
0.0049611426
0.0050960149
0.005242499
0.005402883
0.0055806023
0.0057806522
0.0060114158
0.0062845094
0.0066276637
0.0070657774
0.0077620136
0.0086463062
0.012334859
0.0091299135
0.0040782946
0.0039523205
0.0044012774
0.0045213437
0.004468333
0.0043940837
0.0043254818
0.0042568646
0.0041876106
0.0041196814
0.0040545478
0.0039928429
0.0039342748
0.0038785619
0.0038254956
0.0037749201
0.0037266786
0.0036804455
0.0036362261
0.0035936307
0.003552684
0.0035132684
0.003474975
0.0034380123
0.0034022358
0.0033672856
0.0033333061
0.0033002742
0.003267947
0.0032362063
0.0032052444
0.0031749372
0.0031450123
0.0031155248
0.0030866162
0.0030581537
0.0030299123
0.0030019285
0.0029743726
0.0029471438
0.0029199919
0.0028929791
0.0028661881
0.0028396366
0.002813138
0.0027866394
0.0027601589
0.002733839
0.0027075798
0.0026811746
0.002654685
0.0026281521
0.0026016403