/*--------------------------------*- C++ -*----------------------------------*\
  =========                 |
  \\      /  F ield         | OpenFOAM: The Open Source CFD Toolbox
   \\    /   O peration     | Website:  https://openfoam.org
    \\  /    A nd           | Version:  12
     \\/     M anipulation  |
\*---------------------------------------------------------------------------*/
FoamFile
{
    format      ascii;
    class       surfaceScalarField;
    location    "1400";
    object      phi;
}
// * * * * * * * * * * * * * * * * * * * * * * * * * * * * * * * * * * * * * //

dimensions      [0 3 -1 0 0 0 0];

internalField   nonuniform List<scalar> 
14782
(
0.00078635951
7.1540665e-06
-0.00079351357
0.0007767072
9.6523106e-06
0.0007658735
1.0833698e-05
0.00075456079
1.1312711e-05
0.00074277659
1.17842e-05
0.00073057043
1.2206161e-05
0.00071798124
1.2589187e-05
0.00070505641
1.2924831e-05
0.00069186819
1.3188221e-05
0.00067854034
1.3327845e-05
0.00066526305
1.3277291e-05
0.00065229909
1.2963961e-05
0.00063998427
1.231482e-05
0.00062867402
1.1310249e-05
0.00061863853
1.0035497e-05
0.00060999133
8.6471939e-06
0.00060268999
7.301344e-06
0.00059648517
6.2048141e-06
0.00059125839
5.2267858e-06
0.00058675726
4.5011287e-06
0.00058277083
3.9864252e-06
0.00057920438
3.56645e-06
0.00057588956
3.3148213e-06
0.00057272029
3.1692739e-06
0.00056965893
3.0613628e-06
0.00056668493
2.9739995e-06
0.00056378925
2.8956817e-06
0.00056097543
2.8138154e-06
0.0005582466
2.7288325e-06
0.00055560847
2.6381248e-06
0.00055305975
2.5487252e-06
0.00055058893
2.4708124e-06
0.00054816494
2.4239908e-06
0.00054574629
2.4186526e-06
0.00054331211
2.4341813e-06
0.00054086778
2.4443293e-06
0.00053843508
2.4326964e-06
0.0005360427
2.3923813e-06
0.00053371609
2.3266117e-06
0.00053147008
2.2460108e-06
0.00052930895
2.1611322e-06
0.0005272308
2.0781515e-06
0.00052522891
2.0018823e-06
0.00052329436
1.9345573e-06
0.00052140328
1.8910779e-06
0.00051950479
1.8984896e-06
0.00051751399
1.9908036e-06
0.00051529224
2.221747e-06
0.00051267695
2.6152838e-06
0.00050967183
3.0051228e-06
0.00050654734
3.1244919e-06
0.00050360682
2.940517e-06
0.0005009844
2.6224198e-06
0.00049866602
2.3183814e-06
0.00049656958
2.0964403e-06
0.00049461669
1.9528945e-06
0.00049274439
1.8722991e-06
0.00049092725
1.8171401e-06
0.00048916413
1.7631141e-06
0.00048744648
1.7176537e-06
0.00048576612
1.6803619e-06
0.0004841141
1.6520231e-06
0.00048248349
1.6306026e-06
0.00048086936
1.6141381e-06
0.0004792675
1.6018513e-06
0.00047767536
1.5921424e-06
0.00047609189
1.5834719e-06
0.00047451602
1.5758743e-06
0.00047294622
1.5697939e-06
0.00047138104
1.5651801e-06
0.00046981899
1.5620537e-06
0.00046825871
1.5602753e-06
0.00046669916
1.5595518e-06
0.00046513913
1.5600271e-06
0.00046357751
1.5616203e-06
0.0004620133
1.5642123e-06
0.0004604453
1.5679989e-06
0.00045887251
1.57279e-06
0.00045729406
1.5784574e-06
0.00045570879
1.5852622e-06
0.00045411646
1.5923305e-06
0.00045251739
1.599072e-06
0.00045091607
1.6013245e-06
0.00044937084
1.5452227e-06
0.00044844273
9.2811611e-07
0.00045247539
-4.0326625e-06
0.00045898101
-6.5056173e-06
0.00046251365
-3.5326491e-06
0.00046434389
-1.8302343e-06
0.00046491791
-5.7402315e-07
0.00046482467
9.3236978e-08
0.0004643589
4.657724e-07
0.00046367751
6.813865e-07
0.00046286336
8.1414866e-07
0.00046196336
8.9999559e-07
0.00046100704
9.5632809e-07
0.00045999908
1.0079513e-06
0.00045892878
1.0703061e-06
0.00045782693
1.1018475e-06
1.3410343e-06
0.00082497994
6.7727169e-06
-0.00082459859
0.00082537756
9.2546931e-06
0.00082558801
1.0623245e-05
0.00082568236
1.1218367e-05
0.00082565474
1.1811817e-05
0.00082550148
1.235942e-05
0.00082521615
1.2874518e-05
0.00082477678
1.3364203e-05
0.00082412795
1.3837048e-05
0.00082317468
1.4281113e-05
0.0008217925
1.4659477e-05
0.00081981229
1.4944173e-05
0.0008170331
1.5094005e-05
0.00081325804
1.5085312e-05
0.00080836505
1.4928483e-05
0.00080235398
1.4658264e-05
0.000795337
1.4318324e-05
0.00078750795
1.4033868e-05
0.00077904803
1.3686702e-05
0.00077019969
1.3349473e-05
0.00076120879
1.297732e-05
0.0007523104
1.2464839e-05
0.00074370217
1.1923054e-05
0.00073551323
1.135821e-05
0.00072781161
1.0762989e-05
0.00072062854
1.0157063e-05
0.00071396637
9.5578583e-06
0.00070779558
8.9846068e-06
0.000702059
8.4654105e-06
0.00069668853
8.0085965e-06
0.0006916177
7.6195514e-06
0.00068678446
7.3040518e-06
0.0006821506
7.0578541e-06
0.00067770482
6.8644303e-06
0.00067343778
6.7012198e-06
0.00066933718
6.5449328e-06
0.0006653863
6.3835761e-06
0.00066156563
6.2130462e-06
0.00065785895
6.0332957e-06
0.00065425615
5.84881e-06
0.00065075243
5.6648564e-06
0.00064734613
5.4844441e-06
0.00064403551
5.3125085e-06
0.0006408185
5.15156e-06
0.00063769771
5.011869e-06
0.0006346854
4.9108051e-06
0.00063180912
4.8670786e-06
0.00062912445
4.9064164e-06
0.00062669846
5.0412737e-06
0.00062449384
5.2097488e-06
0.00062233045
5.2878836e-06
0.0006200526
5.2183613e-06
0.00061762984
5.0451827e-06
0.00061511243
4.835799e-06
0.00061256812
4.640747e-06
0.00061004001
4.4810061e-06
0.0006075451
4.3672111e-06
0.00060508884
4.2733947e-06
0.00060267553
4.1764208e-06
0.00060030786
4.0853302e-06
0.00059798554
4.0026757e-06
0.0005957065
3.9310685e-06
0.00059346854
3.8685628e-06
0.00059126946
3.8132126e-06
0.00058910671
3.7646049e-06
0.00058697852
3.7203292e-06
0.00058488402
3.6779791e-06
0.00058282213
3.6377637e-06
0.00058079155
3.6003713e-06
0.00057879108
3.5656521e-06
0.00057681949
3.533647e-06
0.00057487561
3.5041497e-06
0.00057295851
3.4766516e-06
0.00057106719
3.4513513e-06
0.00056920072
3.4280834e-06
0.00056735832
3.4066135e-06
0.00056553907
3.3872475e-06
0.0005637422
3.3696656e-06
0.00056196696
3.3536925e-06
0.00056021241
3.3398179e-06
0.00055847807
3.3266696e-06
0.0005567634
3.3137447e-06
0.00055506633
3.2983927e-06
0.00055337932
3.2322356e-06
0.00055163561
2.6718197e-06
0.0005488599
-1.2569569e-06
0.00054619976
-3.8454737e-06
0.00054485482
-2.1877067e-06
0.0005437289
-7.0431386e-07
0.00054259817
5.5670194e-07
0.0005413683
1.3231083e-06
0.00054005694
1.77713e-06
0.00053869642
2.0419055e-06
0.00053731073
2.199837e-06
0.00053591046
2.300264e-06
0.0005345087
2.3580925e-06
0.00053307879
2.4378637e-06
0.00053166185
2.4872401e-06
0.00053001267
2.7510273e-06
2.7422845e-06
0.00085269513
6.4991492e-06
-0.00085242157
0.00085309937
8.8504616e-06
0.00085347221
1.0250397e-05
0.00085376219
1.0928394e-05
0.00085402544
1.1548563e-05
0.00085425018
1.2134681e-05
0.00085444815
1.2676547e-05
0.0008546302
1.3182155e-05
0.00085480267
1.3664574e-05
0.00085496413
1.4119653e-05
0.00085511459
1.4509013e-05
0.00085524228
1.4816485e-05
0.00085533127
1.5005019e-05
0.0008553558
1.5060777e-05
0.00085528317
1.5001116e-05
0.00085507245
1.4868986e-05
0.00085466759
1.4723179e-05
0.00085402653
1.4674932e-05
0.00085305894
1.4654296e-05
0.00085166904
1.4739371e-05
0.00084972586
1.4920498e-05
0.00084709654
1.5094155e-05
0.00084371945
1.5300152e-05
0.00083956931
1.5508345e-05
0.00083465803
1.5674272e-05
0.00082903058
1.5784514e-05
0.00082280374
1.5784698e-05
0.00081615319
1.5635157e-05
0.00080925206
1.5366541e-05
0.00080226745
1.4993207e-05
0.00079534809
1.4538905e-05
0.00078861119
1.4040959e-05
0.00078213716
1.3531879e-05
0.00077596371
1.3037878e-05
0.0007700886
1.257633e-05
0.00076448532
1.2148213e-05
0.00075911597
1.1752929e-05
0.00075394258
1.1386433e-05
0.00074893688
1.1039e-05
0.00074408084
1.0704846e-05
0.00073936396
1.0381742e-05
0.00073477875
1.0069649e-05
0.00073031745
9.773809e-06
0.00072597489
9.4941237e-06
0.00072175456
9.2322011e-06
0.00071766809
8.9972667e-06
0.00071373174
8.8034286e-06
0.00070997008
8.6680771e-06
0.00070640961
8.6017481e-06
0.00070304258
8.5767772e-06
0.00069980852
8.5219414e-06
0.00069663428
8.3925981e-06
0.00069347351
8.2059586e-06
0.00069031227
7.9970354e-06
0.00068716054
7.792478e-06
0.00068403497
7.6065785e-06
0.00068094962
7.4525564e-06
0.00067791349
7.3095257e-06
0.00067493142
7.1584904e-06
0.00067200524
7.0115055e-06
0.00066913484
6.8730844e-06
0.00066631968
6.7462252e-06
0.00066355922
6.6290217e-06
0.00066085219
6.5202393e-06
0.00065819658
6.4202218e-06
0.00065559105
6.3258526e-06
0.00065303458
6.2344482e-06
0.00065052558
6.1467717e-06
0.00064806243
6.0635214e-06
0.0006456438
5.9842742e-06
0.0006432684
5.909052e-06
0.00064093492
5.8376248e-06
0.00063864225
5.7693241e-06
0.00063638921
5.704387e-06
0.00063417474
5.6425633e-06
0.00063199785
5.5835013e-06
0.00062985751
5.5275866e-06
0.00062775279
5.4743874e-06
0.00062568279
5.4236895e-06
0.00062364643
5.3761806e-06
0.00062164299
5.3301103e-06
0.00061967153
5.2851956e-06
0.00061772854
5.241385e-06
0.00061579502
5.1657572e-06
0.00061372928
4.7375645e-06
0.00061061504
1.8572756e-06
0.00060723238
-4.6280492e-07
0.00060479487
2.4980242e-07
0.00060277782
1.312729e-06
0.00060097267
2.3618534e-06
0.00059922355
3.0722329e-06
0.00059748529
3.5153835e-06
0.00059575076
3.7764399e-06
0.00059402454
3.926057e-06
0.00059230642
4.0183883e-06
0.00059060503
4.0594803e-06
0.00058888405
4.1588438e-06
0.00058720604
4.1652453e-06
0.00058520904
4.7480263e-06
4.2975395e-06
0.00088128051
6.296243e-06
-0.0008810776
0.00088165814
8.4728326e-06
0.00088203217
9.8763621e-06
0.00088232612
1.0634445e-05
0.00088259676
1.1277923e-05
0.00088283549
1.1895952e-05
0.0008830495
1.246254e-05
0.0008832494
1.2982254e-05
0.00088344322
1.3470752e-05
0.00088363191
1.3930959e-05
0.00088381835
1.4322572e-05
0.00088399717
1.4637666e-05
0.00088416259
1.4839604e-05
0.00088430488
1.4918486e-05
0.00088441728
1.4888713e-05
0.0008844972
1.4789072e-05
0.00088454284
1.4677535e-05
0.00088457251
1.464526e-05
0.00088457776
1.4649044e-05
0.00088456256
1.4754574e-05
0.00088452724
1.4955817e-05
0.00088444648
1.5174921e-05
0.00088429731
1.5449317e-05
0.00088404332
1.5762333e-05
0.00088362779
1.6089808e-05
0.0008829831
1.6429198e-05
0.00088199723
1.6770572e-05
0.00088053038
1.7102009e-05
0.00087847296
1.7423957e-05
0.00087574107
1.7725099e-05
0.00087228839
1.7991581e-05
0.00086811336
1.8215988e-05
0.00086329106
1.8354178e-05
0.00085796054
1.8368406e-05
0.00085227338
1.8263485e-05
0.00084638206
1.8039534e-05
0.00084042269
1.7712298e-05
0.00083450215
1.7306969e-05
0.00082869041
1.6850739e-05
0.0008230187
1.6376561e-05
0.0008174895
1.5910946e-05
0.00081209186
1.5467286e-05
0.00080681412
1.5051548e-05
0.0008016503
1.4657942e-05
0.0007966011
1.4281401e-05
0.00079167379
1.3924578e-05
0.00078687953
1.3597687e-05
0.00078223075
1.3316863e-05
0.00077773731
1.309518e-05
0.00077339879
1.2915303e-05
0.00076919821
1.2722524e-05
0.00076511016
1.2480638e-05
0.00076111192
1.2204198e-05
0.00075718618
1.1922776e-05
0.00075332422
1.1654438e-05
0.00074952527
1.1405528e-05
0.00074579293
1.1184897e-05
0.00074212936
1.0973099e-05
0.0007385346
1.0753254e-05
0.00073500888
1.0537222e-05
0.00073155227
1.0329691e-05
0.00072816428
1.0134214e-05
0.00072484416
9.9491477e-06
0.00072159048
9.7739144e-06
0.00071840131
9.6093906e-06
0.00071527535
9.4518111e-06
0.00071221106
9.2987429e-06
0.00070920626
9.1515707e-06
0.00070625911
9.0106768e-06
0.00070336807
8.8753116e-06
0.00070053162
8.7455037e-06
0.00069774821
8.6210283e-06
0.00069501646
8.5010811e-06
0.00069233491
8.3859369e-06
0.00068970221
8.2752618e-06
0.00068711713
8.168583e-06
0.00068457836
8.0663488e-06
0.00068208474
7.9680129e-06
0.00067963512
7.8733094e-06
0.00067722821
7.7830927e-06
0.00067486307
7.6952441e-06
0.00067253861
7.6096544e-06
0.00067025157
7.5284286e-06
0.00066798732
7.4300017e-06
0.00066565899
7.0659038e-06
0.00066279339
4.7228678e-06
0.00065971131
2.6192841e-06
0.00065705766
2.9034449e-06
0.00065469905
3.6713446e-06
0.00065253675
4.5241484e-06
0.0006504611
5.1478873e-06
0.00064842308
5.5534036e-06
0.00064640575
5.7937659e-06
0.00064440759
5.9242256e-06
0.00064242521
6.0007635e-06
0.00064046686
6.0178346e-06
0.00063849182
6.1338769e-06
0.00063657937
6.0776967e-06
0.00063427688
7.0505148e-06
6.0193845e-06
0.0009108415
6.1334538e-06
-0.00091067871
0.00091118259
8.1317401e-06
0.00091153227
9.5266889e-06
0.00091181582
1.0350892e-05
0.00091207469
1.1019051e-05
0.00091231051
1.1660134e-05
0.00091252572
1.2247325e-05
0.0009127285
1.2779479e-05
0.00091292631
1.3272944e-05
0.00091312002
1.3737246e-05
0.00091331176
1.4130827e-05
0.00091349662
1.4452812e-05
0.00091366918
1.4667041e-05
0.00091382135
1.4766323e-05
0.00091394633
1.4763727e-05
0.00091404111
1.4694293e-05
0.00091410606
1.4612585e-05
0.00091415781
1.4593513e-05
0.00091419364
1.4613216e-05
0.00091422269
1.4725522e-05
0.00091425455
1.4923959e-05
0.00091428273
1.5146736e-05
0.00091431038
1.5421672e-05
0.00091433849
1.5734222e-05
0.00091436337
1.6064925e-05
0.00091438144
1.6411129e-05
0.00091438582
1.6766194e-05
0.00091436374
1.7124083e-05
0.00091429685
1.7490847e-05
0.00091415442
1.7867525e-05
0.00091388949
1.8256515e-05
0.00091344071
1.8664766e-05
0.00091270541
1.9089483e-05
0.00091155196
1.9521855e-05
0.00090986506
1.9950388e-05
0.00090755365
2.0350936e-05
0.00090456457
2.0701381e-05
0.00090090065
2.0970889e-05
0.00089663784
2.1113552e-05
0.00089190116
2.111324e-05
0.00088682873
2.0983379e-05
0.00088155401
2.0742005e-05
0.00087618956
2.0415996e-05
0.00087081369
2.0033814e-05
0.00086546778
1.9627307e-05
0.00086017026
1.9222104e-05
0.00085493246
1.8835488e-05
0.00084976815
1.848117e-05
0.00084469374
1.8169587e-05
0.0008397218
1.7887245e-05
0.00083485565
1.7588673e-05
0.00083009108
1.7245206e-05
0.00082542177
1.6873507e-05
0.0008208413
1.6503245e-05
0.00081634475
1.6150987e-05
0.00081193013
1.5820156e-05
0.00080759772
1.5517301e-05
0.0008033456
1.5225224e-05
0.00079917084
1.492801e-05
0.00079507316
1.4634907e-05
0.00079105318
1.4349664e-05
0.00078711075
1.4076642e-05
0.00078324514
1.3814765e-05
0.00077945535
1.35637e-05
0.00077574001
1.3324731e-05
0.00077209739
1.3094435e-05
0.00076852568
1.2870448e-05
0.0007650231
1.265415e-05
0.00076158791
1.2445873e-05
0.00075821852
1.2244697e-05
0.00075491333
1.2050692e-05
0.00075167071
1.1863647e-05
0.00074848915
1.168264e-05
0.00074536709
1.1508002e-05
0.00074230302
1.1339333e-05
0.00073929555
1.1176049e-05
0.00073634323
1.1018667e-05
0.00073344471
1.086653e-05
0.0007305987
1.0719321e-05
0.00072780375
1.0578048e-05
0.00072505877
1.0440222e-05
0.00072236257
1.0305856e-05
0.00071971235
1.0178652e-05
0.00071709826
1.0044087e-05
0.00071447656
9.6876038e-06
0.00071161684
7.5825927e-06
0.00070863692
5.5992025e-06
0.00070585379
5.6865746e-06
0.00070325916
6.2659723e-06
0.00070081617
6.9671429e-06
0.00069845896
7.5050987e-06
0.00069614775
7.8646091e-06
0.00069386452
8.0769996e-06
0.00069160543
8.1833157e-06
0.00068936589
8.2403065e-06
0.00068715465
8.2290678e-06
0.00068492806
8.3604699e-06
0.00068278088
8.22488e-06
0.00068017568
9.6557083e-06
7.9194342e-06
0.00094139062
6.0020803e-06
-0.00094125924
0.00094169104
7.8313172e-06
0.00094201731
9.2004182e-06
0.00094229574
1.0072465e-05
0.00094254997
1.0764817e-05
0.00094278749
1.1422611e-05
0.00094300723
1.2027592e-05
0.00094321422
1.2572482e-05
0.00094341466
1.3072511e-05
0.00094361157
1.3540327e-05
0.00094380378
1.3938624e-05
0.00094398928
1.4267314e-05
0.00094416197
1.4494351e-05
0.0009443145
1.4613792e-05
0.00094444078
1.4637442e-05
0.00094453817
1.4596905e-05
0.00094460762
1.4543133e-05
0.00094466246
1.4538677e-05
0.00094470215
1.4573522e-05
0.00094473554
1.4692139e-05
0.0009447713
1.4888195e-05
0.00094480503
1.5113002e-05
0.00094483982
1.5386885e-05
0.00094487715
1.5696892e-05
0.00094491554
1.6026533e-05
0.00094495472
1.637195e-05
0.0009449939
1.6727015e-05
0.00094503142
1.7086561e-05
0.00094506713
1.7455139e-05
0.00094509992
1.7834737e-05
0.00094512821
1.8228227e-05
0.00094515006
1.8642914e-05
0.00094516005
1.9079496e-05
0.00094514731
1.9534591e-05
0.00094509238
2.0005319e-05
0.00094496076
2.0482558e-05
0.00094470089
2.0961253e-05
0.00094423264
2.1439136e-05
0.00094343668
2.1909508e-05
0.00094218221
2.236771e-05
0.00094035997
2.2805618e-05
0.00093789457
2.3207408e-05
0.00093476827
2.3542296e-05
0.0009310388
2.3763288e-05
0.00092681553
2.385057e-05
0.00092222569
2.3811952e-05
0.00091739371
2.3667464e-05
0.00091242443
2.3450449e-05
0.00090739259
2.3201429e-05
0.00090234183
2.2938005e-05
0.00089729419
2.2636315e-05
0.00089226315
2.2276248e-05
0.00088726202
2.1874636e-05
0.00088230378
2.1461484e-05
0.00087739831
2.1056456e-05
0.00087255231
2.0666153e-05
0.00086777127
2.0298341e-05
0.00086305796
1.9938534e-05
0.00085841334
1.9572628e-05
0.00085383907
1.9209187e-05
0.00084933708
1.8851648e-05
0.00084490904
1.8504686e-05
0.00084055611
1.8167693e-05
0.00083627926
1.7840548e-05
0.00083207881
1.7525182e-05
0.00082795373
1.7219511e-05
0.00082390295
1.6921232e-05
0.00081992577
1.663133e-05
0.00081602122
1.6350418e-05
0.00081218828
1.6077636e-05
0.00080842576
1.5813218e-05
0.00080473236
1.5557043e-05
0.00080110686
1.5308138e-05
0.00079754791
1.5066956e-05
0.00079405416
1.4833084e-05
0.00079062433
1.4605878e-05
0.00078725704
1.4385962e-05
0.00078395097
1.4172599e-05
0.00078070484
1.3965445e-05
0.00077751721
1.3765685e-05
0.00077438697
1.357046e-05
0.00077131293
1.3379893e-05
0.00076829273
1.3198857e-05
0.0007653198
1.3017017e-05
0.00076237476
1.263264e-05
0.00075934125
1.0616106e-05
0.00075625799
8.6824646e-06
0.00075328212
8.6624375e-06
0.00075043308
9.1150196e-06
0.0007477027
9.6975199e-06
0.00074505421
1.0153589e-05
0.00074245796
1.0460862e-05
0.00073989693
1.063803e-05
0.00073736573
1.0714515e-05
0.00073485845
1.0747587e-05
0.00073238404
1.0703481e-05
0.00072989585
1.0848653e-05
0.00072750351
1.061722e-05
0.00072458658
1.2572641e-05
1.001129e-05
0.0009729581
5.8947626e-06
-0.00097285078
0.00097322213
7.5672849e-06
0.00097352715
8.8954038e-06
0.00097379982
9.7997955e-06
0.00097404922
1.0515416e-05
0.00097428556
1.1186269e-05
0.00097450706
1.1806086e-05
0.0009747164
1.236315e-05
0.00097491815
1.2870759e-05
0.00097511808
1.3340395e-05
0.00097531108
1.3745626e-05
0.00097549809
1.4080298e-05
0.00097567212
1.4320325e-05
0.00097582652
1.4459389e-05
0.0009759556
1.4508367e-05
0.00097605665
1.4495857e-05
0.00097613103
1.4468743e-05
0.00097618972
1.4479991e-05
0.0009762337
1.4529543e-05
0.00097627116
1.4654682e-05
0.00097630959
1.4849761e-05
0.00097634596
1.5076636e-05
0.00097638305
1.5349792e-05
0.00097642227
1.5657669e-05
0.00097646269
1.5986118e-05
0.00097650406
1.6330576e-05
0.00097654584
1.6685234e-05
0.0009765869
1.70455e-05
0.00097662717
1.7414869e-05
0.00097666617
1.7795738e-05
0.0009767037
1.8190703e-05
0.00097674062
1.8605993e-05
0.00097677743
1.9042684e-05
0.00097681406
1.9497958e-05
0.00097685049
1.9968891e-05
0.00097688534
2.0447707e-05
0.00097691631
2.093028e-05
0.00097693898
2.1416468e-05
0.00097694389
2.1904598e-05
0.00097691391
2.239769e-05
0.00097681832
2.2901213e-05
0.0009766078
2.341792e-05
0.00097620127
2.3948826e-05
0.00097547675
2.4487816e-05
0.00097429964
2.502768e-05
0.00097255684
2.5554748e-05
0.00097017238
2.6051929e-05
0.0009671466
2.6476229e-05
0.00096355802
2.6790005e-05
0.00095951935
2.6976681e-05
0.00095515249
2.7003167e-05
0.00095056541
2.6863326e-05
0.00094583837
2.6601676e-05
0.00094102189
2.6277965e-05
0.00093614671
2.5931641e-05
0.00093123644
2.5576422e-05
0.00092631407
2.5220707e-05
0.00092139908
2.4853524e-05
0.00091650549
2.446622e-05
0.00091164364
2.4071035e-05
0.0009068218
2.3673489e-05
0.00090204729
2.3279203e-05
0.00089732647
2.2888513e-05
0.00089266459
2.2502423e-05
0.0008880657
2.2124077e-05
0.00088353227
2.1752934e-05
0.00087906596
2.1387546e-05
0.00087466812
2.1029168e-05
0.00087033972
2.0678817e-05
0.00086608143
2.0335926e-05
0.00086189347
2.0001185e-05
0.00085777571
1.9674801e-05
0.00085372792
1.9355926e-05
0.00084974957
1.9045302e-05
0.00084584002
1.8742635e-05
0.00084199857
1.8447334e-05
0.0008382243
1.8160232e-05
0.0008345163
1.7880593e-05
0.00083087363
1.7608116e-05
0.00082729509
1.7344223e-05
0.00082377983
1.7085727e-05
0.00082032683
1.6832886e-05
0.0008169342
1.6591491e-05
0.00081359749
1.6353723e-05
0.00081030967
1.5920462e-05
0.00080700637
1.3919406e-05
0.00080369814
1.1990693e-05
0.00080046747
1.1893106e-05
0.00079733205
1.2250448e-05
0.00079429507
1.2734498e-05
0.00079133751
1.3111143e-05
0.00078843855
1.3359825e-05
0.00078558306
1.3493519e-05
0.00078276455
1.3533024e-05
0.00077997562
1.3536522e-05
0.00077722495
1.3454153e-05
0.00077446265
1.3610947e-05
0.00077181275
1.3267123e-05
0.0007685721
1.581329e-05
1.2308092e-05
0.001005578
5.8048688e-06
-0.0010054881
0.0010058105
7.3347819e-06
0.0010060941
8.6117765e-06
0.0010063587
9.5351575e-06
0.0010066029
1.0271277e-05
0.001006837
1.0952177e-05
0.0010070597
1.1583343e-05
0.0010072715
1.215135e-05
0.0010074761
1.2666143e-05
0.001007678
1.3138493e-05
0.0010078733
1.3550384e-05
0.0010080619
1.3891706e-05
0.0010082376
1.4144633e-05
0.0010083941
1.4302856e-05
0.0010085261
1.437631e-05
0.001008631
1.4390951e-05
0.0010087103
1.438945e-05
0.001008773
1.4417291e-05
0.0010088212
1.4481415e-05
0.0010088623
1.4613517e-05
0.0010089031
1.4808978e-05
0.0010089417
1.5038078e-05
0.0010089806
1.5310839e-05
0.0010090213
1.5616993e-05
0.0010090631
1.5944338e-05
0.0010091057
1.6287941e-05
0.0010091487
1.6642298e-05
0.0010091909
1.7003305e-05
0.0010092322
1.7373498e-05
0.0010092726
1.7755391e-05
0.0010093119
1.8151417e-05
0.0010093509
1.8566952e-05
0.0010093903
1.9003311e-05
0.0010094304
1.9457848e-05
0.0010094715
1.9927745e-05
0.001009513
2.0406282e-05
0.0010095539
2.0889281e-05
0.0010095941
2.137627e-05
0.0010096328
2.1865971e-05
0.0010096692
2.2361309e-05
0.0010097027
2.2867705e-05
0.0010097318
2.3388777e-05
0.0010097527
2.3927964e-05
0.0010097555
2.4484963e-05
0.0010097211
2.5062137e-05
0.0010096125
2.5663309e-05
0.0010093715
2.6292928e-05
0.0010088939
2.6953834e-05
0.0010080395
2.7644392e-05
0.001006678
2.833819e-05
0.0010047068
2.8974334e-05
0.0010020924
2.9477763e-05
0.00099888624
2.980783e-05
0.00099519022
2.9973985e-05
0.00099112304
2.9998823e-05
0.00098679282
2.9906641e-05
0.00098228029
2.9733239e-05
0.00097763662
2.9497197e-05
0.0009728955
2.9207335e-05
0.00096808555
2.8880989e-05
0.00096323308
2.8525955e-05
0.00095836042
2.8151867e-05
0.00095348516
2.7763766e-05
0.00094862138
2.7366205e-05
0.00094378095
2.6964514e-05
0.00093897369
2.6560191e-05
0.00093420731
2.6153924e-05
0.0009294879
2.5748582e-05
0.00092482049
2.5346227e-05
0.00092020931
2.4947099e-05
0.00091565762
2.455288e-05
0.00091116787
2.4164551e-05
0.00090674203
2.378176e-05
0.00090238147
2.340587e-05
0.00089808712
2.3036985e-05
0.00089385966
2.2674793e-05
0.00088969934
2.232055e-05
0.00088560625
2.1973681e-05
0.00088158029
2.1634075e-05
0.00087762099
2.1303529e-05
0.0008737281
2.0978615e-05
0.00086990117
2.0659816e-05
0.00086613891
2.0353745e-05
0.00086243847
2.0054168e-05
0.00085879878
1.9560149e-05
0.00085517936
1.7538827e-05
0.0008515824
1.5587654e-05
0.00084805637
1.5419137e-05
0.00084461093
1.569589e-05
0.00084125215
1.6093273e-05
0.00083797133
1.639197e-05
0.00083475483
1.6576326e-05
0.00083159006
1.6658281e-05
0.00082847013
1.6652956e-05
0.00082538628
1.6620372e-05
0.00082234673
1.6493702e-05
0.00081929812
1.6659561e-05
0.0008163786
1.6186644e-05
0.00081280184
1.9390054e-05
1.4821908e-05
0.0010392849
5.7274569e-06
-0.0010392075
0.0010394902
7.129483e-06
0.0010397526
8.3493791e-06
0.001040008
9.2797998e-06
0.0010402471
1.0032151e-05
0.0010404786
1.0720632e-05
0.0010407019
1.1360046e-05
0.0010409157
1.1937521e-05
0.0010411226
1.2459297e-05
0.0010413259
1.2935233e-05
0.001041523
1.3353283e-05
0.0010417127
1.3701987e-05
0.0010418897
1.3967586e-05
0.0010420482
1.4144417e-05
0.001042183
1.4241459e-05
0.0010422917
1.4282286e-05
0.0010423757
1.4305421e-05
0.0010424426
1.4350434e-05
0.001042495
1.4428993e-05
0.0010425401
1.4568417e-05
0.0010425837
1.4765322e-05
0.0010426251
1.499675e-05
0.0010426665
1.5269397e-05
0.0010427093
1.5574215e-05
0.001042753
1.5900622e-05
0.0010427974
1.6243536e-05
0.001042842
1.6597724e-05
0.0010428858
1.6959492e-05
0.0010429287
1.733061e-05
0.0010429705
1.7713565e-05
0.0010430113
1.8110669e-05
0.0010430517
1.8526558e-05
0.0010430923
1.8962689e-05
0.0010431334
1.9416696e-05
0.0010431754
1.9885736e-05
0.0010432179
2.0363823e-05
0.0010432603
2.0846835e-05
0.0010433025
2.1334121e-05
0.0010433438
2.1824669e-05
0.001043384
2.232105e-05
0.0010434232
2.2828533e-05
0.0010434611
2.3350913e-05
0.0010434978
2.3891239e-05
0.0010435332
2.4449563e-05
0.0010435668
2.5028499e-05
0.0010435979
2.5632233e-05
0.0010436245
2.6266369e-05
0.0010436407
2.6937573e-05
0.0010436333
2.7651797e-05
0.0010435727
2.8398795e-05
0.0010434039
2.9143158e-05
0.0010430257
2.985594e-05
0.0010422952
3.0538403e-05
0.0010410701
3.1199062e-05
0.0010392396
3.182931e-05
0.0010367697
3.237658e-05
0.0010337138
3.278911e-05
0.0010301714
3.3039589e-05
0.0010262562
3.3122498e-05
0.0010220678
3.3069443e-05
0.0010176764
3.2917309e-05
0.0010131283
3.2699977e-05
0.001008459
3.243307e-05
0.001003701
3.212423e-05
0.00099888315
3.1782354e-05
0.00099402909
3.1414246e-05
0.00098915756
3.1025456e-05
0.00098428404
3.0622105e-05
0.00097942167
3.0208599e-05
0.00097458145
2.9787318e-05
0.00096977232
2.9362009e-05
0.00096500168
2.893519e-05
0.00096027574
2.8507698e-05
0.00095559944
2.8082166e-05
0.00095097683
2.7659595e-05
0.00094641124
2.724039e-05
0.00094190518
2.682661e-05
0.0009374607
2.6418159e-05
0.00093307939
2.6015386e-05
0.00092876221
2.5620709e-05
0.00092451018
2.5230643e-05
0.00092032392
2.4846075e-05
0.00091620318
2.4474481e-05
0.00091214662
2.4110732e-05
0.00090815625
2.3550517e-05
0.00090420293
2.149215e-05
0.00090028785
1.9502736e-05
0.00089644477
1.9262215e-05
0.00089267619
1.9464474e-05
0.00088898728
1.9782177e-05
0.00088537487
2.0004381e-05
0.00088183096
2.0120243e-05
0.00087834589
2.014335e-05
0.00087491316
2.0085689e-05
0.00087152313
2.0010392e-05
0.00086818364
1.9833198e-05
0.00086483773
2.000547e-05
0.00086163762
1.9386754e-05
0.00085771291
2.331476e-05
1.7563733e-05
0.0010741149
5.6590903e-06
-0.0010740465
0.001074297
6.9473737e-06
0.0010745391
8.1073441e-06
0.0010747843
9.0345335e-06
0.0010750183
9.7981746e-06
0.0010752468
1.0492141e-05
0.0010754697
1.1137147e-05
0.0010756848
1.1722405e-05
0.0010758933
1.2250767e-05
0.0010760978
1.273073e-05
0.0010762966
1.3154563e-05
0.0010764875
1.3511079e-05
0.0010766659
1.3789107e-05
0.0010768264
1.398396e-05
0.0010769641
1.4103727e-05
0.0010770766
1.4169773e-05
0.0010771654
1.4216674e-05
0.0010772366
1.4279236e-05
0.0010772934
1.4372152e-05
0.0010773425
1.4519292e-05
0.0010773893
1.4718612e-05
0.0010774334
1.4952584e-05
0.0010774773
1.522548e-05
0.0010775222
1.5529377e-05
0.0010775677
1.5855055e-05
0.0010776138
1.6197437e-05
0.00107766
1.6551558e-05
0.0010777054
1.6914068e-05
0.0010777499
1.7286141e-05
0.0010777933
1.7670146e-05
0.0010778357
1.8068296e-05
0.0010778777
1.8484588e-05
0.0010779198
1.8920538e-05
0.0010779624
1.937407e-05
0.0010780058
1.984236e-05
0.0010780496
2.0320043e-05
0.0010780933
2.0803113e-05
0.0010781367
2.1290763e-05
0.0010781791
2.1782233e-05
0.0010782204
2.2279794e-05
0.0010782606
2.2788344e-05
0.0010782998
2.3311636e-05
0.0010783385
2.3852588e-05
0.0010783765
2.4411523e-05
0.0010784141
2.4990885e-05
0.0010784513
2.5595032e-05
0.001078488
2.6229664e-05
0.0010785247
2.6900917e-05
0.0010785625
2.7613963e-05
0.001078602
2.8359296e-05
0.0010786402
2.9105036e-05
0.0010786687
2.9827412e-05
0.0010786722
3.0534896e-05
0.0010786196
3.1251668e-05
0.0010784552
3.1993724e-05
0.0010780716
3.2760121e-05
0.0010773178
3.3542899e-05
0.0010760473
3.4310128e-05
0.0010741573
3.5012486e-05
0.0010716351
3.5591615e-05
0.0010685504
3.6002043e-05
0.0010650084
3.6241938e-05
0.0010611165
3.6324969e-05
0.0010569587
3.6282093e-05
0.0010525919
3.6149107e-05
0.0010480587
3.5947502e-05
0.0010433965
3.5687616e-05
0.0010386392
3.5379437e-05
0.0010338147
3.5033114e-05
0.0010289458
3.4656226e-05
0.0010240516
3.4256195e-05
0.0010191484
3.3838359e-05
0.00101425
3.3406126e-05
0.0010093676
3.2964555e-05
0.0010045108
3.2516408e-05
0.00099968758
3.2063586e-05
0.00099490455
3.1609643e-05
0.0009901672
3.1155501e-05
0.00098548014
3.0702454e-05
0.00098084687
3.0253974e-05
0.00097627067
2.9806845e-05
0.00097175407
2.936267e-05
0.00096729857
2.8929989e-05
0.00096290471
2.8504592e-05
0.00095857662
2.7878607e-05
0.00095429104
2.5777727e-05
0.0009500508
2.3742979e-05
0.00094588433
2.3428685e-05
0.00094178955
2.3559254e-05
0.00093776957
2.3802156e-05
0.00093382381
2.3950143e-05
0.00092994843
2.399562e-05
0.00092613686
2.3954916e-05
0.00092238377
2.3838783e-05
0.00091867929
2.3714866e-05
0.00091503116
2.3481335e-05
0.00091137893
2.3657695e-05
0.00090788893
2.2876761e-05
0.00090360585
2.759784e-05
2.0543382e-05
0.0011101054
5.597375e-06
-0.0011100437
0.001110268
6.7848276e-06
0.0011104909
7.8844041e-06
0.0011107255
8.7999828e-06
0.0011109539
9.5697349e-06
0.0011111789
1.0267121e-05
0.0011114007
1.0915399e-05
0.0011116165
1.1506607e-05
0.0011118263
1.2040913e-05
0.0011120319
1.252511e-05
0.001112232
1.2954511e-05
0.001112424
1.3319035e-05
0.0011126039
1.3609284e-05
0.0011127662
1.3821573e-05
0.0011129068
1.396321e-05
0.001113023
1.4053509e-05
0.0011131163
1.4123363e-05
0.0011131919
1.420367e-05
0.0011132532
1.4310882e-05
0.0011133063
1.4466132e-05
0.0011133562
1.4668723e-05
0.0011134033
1.4905495e-05
0.0011134498
1.5178998e-05
0.0011134968
1.548235e-05
0.0011135444
1.58075e-05
0.0011135923
1.6149494e-05
0.0011136402
1.6503646e-05
0.0011136874
1.6866893e-05
0.0011137336
1.7239951e-05
0.0011137787
1.7625011e-05
0.0011138228
1.8024189e-05
0.0011138665
1.8440935e-05
0.0011139103
1.8876761e-05
0.0011139545
1.9329865e-05
0.0011139993
1.9797483e-05
0.0011140446
2.0274789e-05
0.0011140898
2.0757938e-05
0.0011141346
2.1245988e-05
0.0011141784
2.1738381e-05
0.0011142211
2.2237145e-05
0.0011142626
2.2746813e-05
0.0011143032
2.3271064e-05
0.001114343
2.3812714e-05
0.0011143822
2.4372362e-05
0.0011144207
2.4952328e-05
0.0011144589
2.5556847e-05
0.0011144971
2.6191479e-05
0.0011145359
2.6862089e-05
0.001114577
2.7572918e-05
0.0011146215
2.8314797e-05
0.0011146678
2.9058707e-05
0.0011147131
2.9782148e-05
0.0011147557
3.0492271e-05
0.0011147951
3.1212295e-05
0.0011148301
3.1958713e-05
0.0011148549
3.2735267e-05
0.0011148532
3.3544669e-05
0.0011147869
3.4376452e-05
0.001114581
3.5218358e-05
0.0011141042
3.606841e-05
0.0011131935
3.6912704e-05
0.0011117078
3.7727662e-05
0.0011095832
3.84496e-05
0.0011068533