/*--------------------------------*- C++ -*----------------------------------*\
  =========                 |
  \\      /  F ield         | OpenFOAM: The Open Source CFD Toolbox
   \\    /   O peration     | Website:  https://openfoam.org
    \\  /    A nd           | Version:  12
     \\/     M anipulation  |
\*---------------------------------------------------------------------------*/
FoamFile
{
    format      ascii;
    class       volScalarField;
    location    "1400";
    object      yPlus;
}
// * * * * * * * * * * * * * * * * * * * * * * * * * * * * * * * * * * * * * //

dimensions      [];

internalField   uniform 0;

boundaryField
{
    inlet
    {
        type            calculated;
        value           uniform 0;
    }
    top
    {
        type            calculated;
        value           uniform 0;
    }
    outlet
    {
        type            calculated;
        value           uniform 0;
    }
    slipsurface
    {
        type            calculated;
        value           uniform 0;
    }
    bottom
    {
        type            calculated;
        value           nonuniform List<scalar> 
100
(
116.32487
115.15009
113.84573
112.43927
110.95408
109.41068
107.8167
106.17442
104.48799
102.77018
101.04084
99.329013
97.674538
96.125661
94.727885
93.508373
92.469549
91.591207
90.850707
90.216565
89.664761
89.173841
88.724781
88.299564
87.889816
87.492361
87.105197
86.728134
86.361704
86.006903
85.66416
85.332559
85.010257
84.690563
84.369
84.045028
83.72057
83.399423
83.085481
82.781485
82.488626
82.206965
81.935929
81.674321
81.420949
81.170588
80.914864
80.63963
80.322091
79.941028
79.518602
79.106173
78.733112
78.405458
78.11307
77.844348
77.590148
77.342597
77.102996
76.86984
76.642174
76.418786
76.19857
75.980769
75.764781
75.550123
75.336599
75.124103
74.912462
74.701457
74.490889
74.280568
74.070334
73.860038
73.649524
73.438646
73.227259
73.015208
72.802368
72.588602
72.373797
72.15792
71.941082
71.72494
71.526012
71.469085
72.634271
73.226972
73.583292
73.717318
73.736276
73.691134
73.609988
73.506804
73.390119
73.263141
73.133217
72.988219
72.863987
72.616408
)
;
    }
    frontandback
    {
        type            empty;
    }
}


// ************************************************************************* //
