/*--------------------------------*- C++ -*----------------------------------*\
  =========                 |
  \\      /  F ield         | OpenFOAM: The Open Source CFD Toolbox
   \\    /   O peration     | Website:  https://openfoam.org
    \\  /    A nd           | Version:  12
     \\/     M anipulation  |
\*---------------------------------------------------------------------------*/
FoamFile
{
    format      ascii;
    class       volScalarField;
    location    "1600";
    object      nuTilda;
}
// * * * * * * * * * * * * * * * * * * * * * * * * * * * * * * * * * * * * * //

dimensions      [0 2 -1 0 0 0 0];

internalField   nonuniform List<scalar> 
13056
(
1.9998175e-06
1.999841e-06
1.99995e-06
2.0001924e-06
2.0005515e-06
2.0010058e-06
2.0015362e-06
2.0021269e-06
2.002765e-06
2.0034395e-06
2.0041416e-06
2.0048642e-06
2.0056021e-06
2.0063518e-06
2.0071112e-06
2.0078799e-06
2.00866e-06
2.0094542e-06
2.0102682e-06
2.0111194e-06
2.0119685e-06
2.0130634e-06
2.0134075e-06
2.0133855e-06
2.9950509e-08
2.1962502e-08
2.0827215e-08
2.0424752e-08
2.0164556e-08
1.9945202e-08
1.9750383e-08
1.9575045e-08
1.9415745e-08
1.9269591e-08
1.913443e-08
1.9008688e-08
1.8891149e-08
1.8780819e-08
1.8676867e-08
1.85786e-08
1.8485432e-08
1.8396862e-08
1.8312446e-08
1.8231798e-08
1.8154581e-08
1.8080492e-08
1.8009276e-08
1.7940696e-08
1.7874536e-08
1.7810615e-08
1.7748765e-08
1.7688824e-08
1.7630655e-08
1.7574137e-08
1.7519149e-08
1.7465581e-08
1.7413341e-08
1.7362343e-08
1.7312498e-08
1.7263727e-08
1.7215966e-08
1.716915e-08
1.7123214e-08
1.7078095e-08
1.7033748e-08
1.6990125e-08
1.6947173e-08
1.6904846e-08
1.6863103e-08
1.6821909e-08
1.6781226e-08
1.6741014e-08
1.6701237e-08
1.6661868e-08
1.6622877e-08
1.6584231e-08
1.65459e-08
1.6507856e-08
1.6470076e-08
1.6432535e-08
1.6395204e-08
1.6358056e-08
1.6321069e-08
1.6284223e-08
1.6247493e-08
1.6210853e-08
1.6174277e-08
1.6137747e-08
1.6101241e-08
1.6064734e-08
1.60282e-08
1.5991614e-08
1.5954957e-08
1.5918205e-08
1.5881331e-08
1.5844304e-08
1.5807102e-08
1.5769701e-08
1.5732069e-08
1.5694173e-08
1.5655982e-08
1.5617467e-08
1.5578594e-08
1.5539323e-08
1.5499614e-08
1.5459432e-08
1.5418732e-08
1.5377463e-08
1.5335576e-08
1.5293021e-08
1.5249738e-08
1.5205656e-08
1.5160721e-08
1.5115847e-08
1.5072461e-08
1.5030989e-08
1.4991292e-08
1.4953233e-08
1.4916689e-08
1.4881555e-08
1.4847735e-08
1.4815137e-08
1.4783673e-08
1.4753275e-08
1.4723876e-08
1.4695412e-08
1.4667822e-08
1.4641043e-08
1.4615029e-08
1.4589705e-08
1.4565064e-08
1.4540828e-08
1.4517397e-08
1.4492998e-08
1.4471769e-08
1.4436277e-08
1.9998175e-06
1.999841e-06
1.9999499e-06
2.0001923e-06
2.0005514e-06
2.0010056e-06
2.001536e-06
2.0021266e-06
2.0027647e-06
2.0034392e-06
2.0041412e-06
2.0048638e-06
2.0056017e-06
2.0063512e-06
2.0071106e-06
2.0078793e-06
2.0086593e-06
2.0094535e-06
2.0102674e-06
2.0111185e-06
2.0119674e-06
2.0130622e-06
2.0134062e-06
2.0133904e-06
8.7742851e-08
6.6183752e-08
6.2782657e-08
6.1570506e-08
6.0786651e-08
6.0126222e-08
5.9539659e-08
5.9011658e-08
5.8531861e-08
5.8091601e-08
5.7684416e-08
5.7305582e-08
5.6951439e-08
5.6618998e-08
5.6305759e-08
5.600964e-08
5.5728879e-08
5.5461963e-08
5.520756e-08
5.4964508e-08
5.4731791e-08
5.4508499e-08
5.4293858e-08
5.4087161e-08
5.3887755e-08
5.3695097e-08
5.3508675e-08
5.3328007e-08
5.3152679e-08
5.2982324e-08
5.281658e-08
5.2655114e-08
5.2497651e-08
5.2343931e-08
5.2193685e-08
5.2046675e-08
5.1902707e-08
5.176159e-08
5.1623122e-08
5.1487119e-08
5.1353441e-08
5.1221943e-08
5.109247e-08
5.0964879e-08
5.0839049e-08
5.0714873e-08
5.0592237e-08
5.0471021e-08
5.0351115e-08
5.0232437e-08
5.0114899e-08
4.9998404e-08
4.9882856e-08
4.9768171e-08
4.9654283e-08
4.9541115e-08
4.9428582e-08
4.9316599e-08
4.9205101e-08
4.9094027e-08
4.8983304e-08
4.8872852e-08
4.8762591e-08
4.8652467e-08
4.8542418e-08
4.8432366e-08
4.8322231e-08
4.8211941e-08
4.8101435e-08
4.7990645e-08
4.7879484e-08
4.7767863e-08
4.7655714e-08
4.7542964e-08
4.7429519e-08
4.7315277e-08
4.7200146e-08
4.7084039e-08
4.6966852e-08
4.6848464e-08
4.6728757e-08
4.6607622e-08
4.6484927e-08
4.6360516e-08
4.6234242e-08
4.6105954e-08
4.5975471e-08
4.5842577e-08
4.5707115e-08
4.5571836e-08
4.544104e-08
4.5316017e-08
4.5196342e-08
4.5081607e-08
4.4971439e-08
4.4865521e-08
4.4763566e-08
4.4665292e-08
4.4570441e-08
4.4478799e-08
4.439017e-08
4.4304361e-08
4.4221185e-08
4.4140456e-08
4.4062033e-08
4.3985688e-08
4.3911403e-08
4.3838342e-08
4.3767706e-08
4.3694161e-08
4.3630162e-08
4.3523162e-08
1.9998174e-06
1.9998409e-06
1.9999497e-06
2.000192e-06
2.000551e-06
2.0010051e-06
2.0015353e-06
2.0021258e-06
2.0027637e-06
2.0034381e-06
2.00414e-06
2.0048624e-06
2.0056002e-06
2.0063496e-06
2.0071088e-06
2.0078773e-06
2.008657e-06
2.009451e-06
2.0102646e-06
2.0111154e-06
2.011964e-06
2.0130582e-06
2.0134017e-06
2.0133908e-06
1.4396283e-07
1.1130266e-07
1.0564671e-07
1.0360988e-07
1.0229309e-07
1.0118446e-07
1.0019973e-07
9.9312991e-08
9.8506919e-08
9.7767083e-08
9.7082703e-08
9.6445883e-08
9.5850498e-08
9.5291538e-08
9.4764819e-08
9.4266851e-08
9.3794679e-08
9.3345766e-08
9.2917877e-08
9.2509062e-08
9.2117615e-08
9.1742009e-08
9.1380942e-08
9.1033229e-08
9.0697775e-08
9.0373662e-08
9.0060035e-08
8.9756081e-08
8.9461107e-08
8.9174494e-08
8.8895634e-08
8.8623968e-08
8.8359035e-08
8.8100394e-08
8.7847595e-08
8.760024e-08
8.7357999e-08
8.7120554e-08
8.6887564e-08
8.6658721e-08
8.6433785e-08
8.6212517e-08
8.5994655e-08
8.5779958e-08
8.5568223e-08
8.535927e-08
8.5152907e-08
8.4948933e-08
8.4747161e-08
8.4547454e-08
8.4349666e-08
8.4153631e-08
8.3959188e-08
8.3766199e-08
8.3574547e-08
8.3384108e-08
8.3194736e-08
8.3006289e-08
8.2818658e-08
8.2631739e-08
8.244541e-08
8.2259536e-08
8.2073985e-08
8.1888662e-08
8.1703464e-08
8.1518261e-08
8.1332919e-08
8.1147315e-08
8.0961346e-08
8.0774899e-08
8.0587828e-08
8.0399981e-08
8.0211246e-08
8.0021498e-08
7.9830581e-08
7.9638322e-08
7.9444566e-08
7.9249167e-08
7.9051952e-08
7.8852713e-08
7.8651253e-08
7.8447391e-08
7.8240904e-08
7.8031527e-08
7.7819014e-08
7.7603112e-08
7.7383515e-08
7.715986e-08
7.6931882e-08
7.6704212e-08
7.6484087e-08
7.6273677e-08
7.6072268e-08
7.5879172e-08
7.5693762e-08
7.5515504e-08
7.5343915e-08
7.5178521e-08
7.5018888e-08
7.4864656e-08
7.4715495e-08
7.4571079e-08
7.4431095e-08
7.4295229e-08
7.4163244e-08
7.4034758e-08
7.3909738e-08
7.3786782e-08
7.3667903e-08
7.3544154e-08
7.3436446e-08
7.3256361e-08
1.9998172e-06
1.9998406e-06
1.9999494e-06
2.0001914e-06
2.0005502e-06
2.0010041e-06
2.0015341e-06
2.0021244e-06
2.0027621e-06
2.0034362e-06
2.0041379e-06
2.0048601e-06
2.0055976e-06
2.0063467e-06
2.0071056e-06
2.0078737e-06
2.0086531e-06
2.0094466e-06
2.0102598e-06
2.01111e-06
2.011958e-06
2.0130512e-06
2.0133939e-06
2.0133868e-06
1.9928971e-07
1.5792315e-07
1.5003771e-07
1.4715186e-07
1.4528743e-07
1.4371899e-07
1.4232542e-07
1.4106983e-07
1.3992783e-07
1.3887926e-07
1.3790901e-07
1.3700599e-07
1.3616157e-07
1.3536869e-07
1.3462144e-07
1.3391489e-07
1.3324489e-07
1.3260783e-07
1.3200057e-07
1.3142034e-07
1.3086472e-07
1.3033156e-07
1.2981902e-07
1.2932541e-07
1.2884919e-07
1.2838905e-07
1.2794378e-07
1.2751223e-07
1.2709342e-07
1.2668647e-07
1.2629052e-07
1.2590478e-07
1.2552859e-07
1.2516132e-07
1.2480235e-07
1.244511e-07
1.2410711e-07
1.2376992e-07
1.2343906e-07
1.2311408e-07
1.2279464e-07
1.2248041e-07
1.2217101e-07
1.2186611e-07
1.2156541e-07
1.2126865e-07
1.2097557e-07
1.2068589e-07
1.2039932e-07
1.2011569e-07
1.1983478e-07
1.1955636e-07
1.192802e-07
1.190061e-07
1.187339e-07
1.1846342e-07
1.1819445e-07
1.179268e-07
1.176603e-07
1.1739481e-07
1.1713016e-07
1.1686616e-07
1.1660261e-07
1.1633939e-07
1.1607633e-07
1.1581328e-07
1.1555002e-07
1.1528639e-07
1.1502224e-07
1.1475741e-07
1.144917e-07
1.1422488e-07
1.139568e-07
1.1368727e-07
1.1341609e-07
1.13143e-07
1.1286778e-07
1.1259023e-07
1.1231009e-07
1.1202709e-07
1.1174092e-07
1.1145134e-07
1.1115804e-07
1.1086062e-07
1.1055875e-07
1.1025207e-07
1.0994014e-07
1.0962244e-07
1.092986e-07
1.0897519e-07
1.086625e-07
1.0836362e-07
1.0807751e-07
1.0780322e-07
1.0753984e-07
1.0728662e-07
1.0704288e-07
1.0680793e-07
1.0658117e-07
1.0636208e-07
1.0615019e-07
1.0594505e-07
1.057462e-07
1.055532e-07
1.0536571e-07
1.0518319e-07
1.050056e-07
1.0483095e-07
1.0466208e-07
1.0448634e-07
1.0433334e-07
1.0407751e-07
1.9998169e-06
1.9998403e-06
1.9999488e-06
2.0001906e-06
2.0005491e-06
2.0010026e-06
2.0015323e-06
2.0021224e-06
2.0027598e-06
2.0034336e-06
2.0041349e-06
2.0048567e-06
2.0055938e-06
2.0063425e-06
2.0071009e-06
2.0078686e-06
2.0086474e-06
2.0094403e-06
2.0102527e-06
2.0111021e-06
2.0119493e-06
2.013041e-06
2.0133825e-06
2.0133782e-06
2.542662e-07
2.0663922e-07
1.9658463e-07
1.9281989e-07
1.9038924e-07
1.8834586e-07
1.8652925e-07
1.8489108e-07
1.8339993e-07
1.8203e-07
1.8076187e-07
1.7958122e-07
1.7847689e-07
1.7743972e-07
1.7646205e-07
1.755375e-07
1.7466064e-07
1.7382679e-07
1.7303186e-07
1.7227224e-07
1.7154479e-07
1.708467e-07
1.7017554e-07
1.6952914e-07
1.6890548e-07
1.6830285e-07
1.6771967e-07
1.6715443e-07
1.6660586e-07
1.6607281e-07
1.6555415e-07
1.6504884e-07
1.6455603e-07
1.640749e-07
1.6360462e-07
1.6314445e-07
1.6269378e-07
1.6225201e-07
1.6181852e-07
1.6139274e-07
1.609742e-07
1.6056248e-07
1.6015709e-07
1.5975758e-07
1.5936358e-07
1.5897473e-07
1.585907e-07
1.5821111e-07
1.5783561e-07
1.5746395e-07
1.5709584e-07
1.56731e-07
1.5636911e-07
1.5600993e-07
1.5565322e-07
1.5529877e-07
1.549463e-07
1.5459555e-07
1.5424631e-07
1.5389839e-07
1.5355156e-07
1.5320558e-07
1.528602e-07
1.5251523e-07
1.521705e-07
1.5182575e-07
1.5148074e-07
1.5113523e-07
1.5078905e-07
1.5044197e-07
1.5009373e-07
1.4974404e-07
1.4939269e-07
1.4903945e-07
1.4868404e-07
1.4832612e-07
1.4796541e-07
1.4760164e-07
1.4723449e-07
1.4686357e-07
1.4648851e-07
1.4610897e-07
1.4572455e-07
1.4533474e-07
1.4493909e-07
1.4453712e-07
1.4412828e-07
1.4371188e-07
1.4328742e-07
1.4286354e-07
1.424537e-07
1.4206194e-07
1.4168694e-07
1.4132742e-07
1.4098221e-07
1.4065031e-07
1.4033083e-07
1.4002288e-07
1.3972566e-07
1.3943849e-07
1.3916076e-07
1.3889187e-07
1.3863123e-07
1.3837826e-07
1.3813251e-07
1.3789328e-07
1.3766051e-07
1.374316e-07
1.3721026e-07
1.3697998e-07
1.3677945e-07
1.364441e-07
1.9998166e-06
1.9998399e-06
1.9999482e-06
2.0001895e-06
2.0005475e-06
2.0010007e-06
2.00153e-06
2.0021196e-06
2.0027566e-06
2.00343e-06
2.0041308e-06
2.0048522e-06
2.0055887e-06
2.0063369e-06
2.0070947e-06
2.0078616e-06
2.0086397e-06
2.0094318e-06
2.0102433e-06
2.0110916e-06
2.0119375e-06
2.0130273e-06
2.0133672e-06
2.0133651e-06
3.0929811e-07
2.5801383e-07
2.4592467e-07
2.4125449e-07
2.3823811e-07
2.3570311e-07
2.3344704e-07
2.3140992e-07
2.2955351e-07
2.2784659e-07
2.2626555e-07
2.2479288e-07
2.2341486e-07
2.2212022e-07
2.2089952e-07
2.1974488e-07
2.1864957e-07
2.1760783e-07
2.1661455e-07
2.1566526e-07
2.1475607e-07
2.1388348e-07
2.1304448e-07
2.1223636e-07
2.1145662e-07
2.107031e-07
2.0997387e-07
2.0926704e-07
2.08581e-07
2.0791434e-07
2.0726565e-07
2.0663364e-07
2.0601723e-07
2.0541541e-07
2.0482714e-07
2.0425151e-07
2.0368773e-07
2.0313508e-07
2.0259277e-07
2.0206008e-07
2.0153646e-07
2.0102135e-07
2.0051414e-07
2.0001429e-07
1.9952131e-07
1.9903478e-07
1.9855427e-07
1.980793e-07
1.9760945e-07
1.9714439e-07
1.9668377e-07
1.9622723e-07
1.9577439e-07
1.9532492e-07
1.9487855e-07
1.9443498e-07
1.939939e-07
1.9355496e-07
1.9311792e-07
1.9268251e-07
1.9224847e-07
1.9181549e-07
1.9138325e-07
1.9095153e-07
1.9052009e-07
1.9008863e-07
1.8965685e-07
1.8922444e-07
1.8879118e-07
1.8835679e-07
1.8792094e-07
1.8748328e-07
1.8704354e-07
1.8660144e-07
1.861566e-07
1.8570863e-07
1.8525717e-07
1.8480187e-07
1.8434233e-07
1.8387807e-07
1.8340863e-07
1.8293359e-07
1.8245242e-07
1.8196451e-07
1.8146929e-07
1.8096616e-07
1.8045442e-07
1.7993321e-07
1.7940192e-07
1.7887134e-07
1.7835834e-07
1.7786798e-07
1.7739859e-07
1.7694857e-07
1.7651646e-07
1.7610101e-07
1.757011e-07
1.7531563e-07
1.7494359e-07
1.7458413e-07
1.7423648e-07
1.738999e-07
1.7357364e-07
1.7325698e-07
1.7294937e-07
1.7264992e-07
1.7235855e-07
1.7207203e-07
1.7179497e-07
1.7150681e-07
1.7125581e-07
1.7083601e-07
1.9998161e-06
1.9998394e-06
1.9999473e-06
2.0001881e-06
2.0005456e-06
2.0009982e-06
2.001527e-06
2.0021161e-06
2.0027525e-06
2.0034253e-06
2.0041256e-06
2.0048463e-06
2.0055822e-06
2.0063296e-06
2.0070866e-06
2.0078527e-06
2.0086298e-06
2.0094208e-06
2.0102311e-06
2.0110781e-06
2.0119224e-06
2.0130097e-06
2.0133476e-06
2.0133472e-06
3.6465824e-07
3.1254305e-07
2.9869465e-07
2.9311262e-07
2.894957e-07
2.8645446e-07
2.8374279e-07
2.8128941e-07
2.7904996e-07
2.7698833e-07
2.7507702e-07
2.7329546e-07
2.7162747e-07
2.7005965e-07
2.6858079e-07
2.6718149e-07
2.6585372e-07
2.6459057e-07
2.6338593e-07
2.6223443e-07
2.6113138e-07
2.6007258e-07
2.590544e-07
2.5807359e-07
2.571271e-07
2.5621237e-07
2.5532703e-07
2.5446883e-07
2.5363582e-07
2.5282627e-07
2.520385e-07
2.5127094e-07
2.5052228e-07
2.497913e-07
2.4907676e-07
2.4837753e-07
2.4769268e-07
2.4702131e-07
2.4636248e-07
2.4571533e-07
2.4507916e-07
2.4445332e-07
2.4383706e-07
2.4322973e-07
2.4263072e-07
2.4203954e-07
2.4145566e-07
2.408785e-07
2.4030755e-07
2.3974241e-07
2.3918266e-07
2.3862785e-07
2.3807753e-07
2.3753129e-07
2.3698882e-07
2.3644974e-07
2.3591368e-07
2.3538021e-07
2.3484904e-07
2.3431985e-07
2.3379232e-07
2.3326606e-07
2.327407e-07
2.3221597e-07
2.3169157e-07
2.3116714e-07
2.3064231e-07
2.3011672e-07
2.2959008e-07
2.2906207e-07
2.2853228e-07
2.2800029e-07
2.2746576e-07
2.2692835e-07
2.2638761e-07
2.2584307e-07
2.2529427e-07
2.247408e-07
2.2418218e-07
2.2361781e-07
2.2304714e-07
2.2246965e-07
2.2188472e-07
2.2129159e-07
2.2068956e-07
2.2007792e-07
2.1945579e-07
2.1882217e-07
2.1817628e-07
2.1753124e-07
2.1690758e-07
2.1631143e-07
2.1574077e-07
2.1519367e-07
2.1466833e-07
2.1416325e-07
2.1367706e-07
2.1320842e-07
2.127561e-07
2.1231908e-07
2.1189642e-07
2.1148721e-07
2.1109056e-07
2.1070558e-07
2.1033159e-07
2.0996753e-07
2.0961329e-07
2.0926497e-07
2.0892814e-07
2.0857794e-07
2.0827279e-07
2.0776236e-07
1.9998156e-06
1.9998387e-06
1.9999462e-06
2.0001864e-06
2.0005432e-06
2.0009951e-06
2.0015232e-06
2.0021117e-06
2.0027474e-06
2.0034195e-06
2.0041191e-06
2.004839e-06
2.005574e-06
2.0063205e-06
2.0070765e-06
2.0078415e-06
2.0086174e-06
2.0094071e-06
2.0102159e-06
2.0110612e-06
2.0119036e-06
2.0129878e-06
2.013323e-06
2.0133248e-06
4.2049074e-07
3.7059451e-07
3.5551187e-07
3.4906077e-07
3.4484377e-07
3.4129024e-07
3.381116e-07
3.352269e-07
3.3258723e-07
3.3015274e-07
3.2789271e-07
3.2578391e-07
3.2380786e-07
3.2194919e-07
3.2019496e-07
3.185343e-07
3.1695788e-07
3.1545765e-07
3.1402646e-07
3.1265804e-07
3.1134688e-07
3.1008805e-07
3.0887729e-07
3.0771076e-07
3.0658489e-07
3.0549665e-07
3.0444323e-07
3.03422e-07
3.0243063e-07
3.0146709e-07
3.0052939e-07
2.9961568e-07
2.987244e-07
2.9785411e-07
2.9700333e-07
2.9617074e-07
2.9535521e-07
2.9455569e-07
2.9377108e-07
2.9300034e-07
2.9224265e-07
2.9149721e-07
2.9076318e-07
2.9003974e-07
2.893262e-07
2.8862196e-07
2.8792638e-07
2.872388e-07
2.865586e-07
2.8588529e-07
2.852184e-07
2.8455738e-07
2.8390168e-07
2.8325084e-07
2.8260447e-07
2.8196214e-07
2.8132337e-07
2.806877e-07
2.8005474e-07
2.7942414e-07
2.787955e-07
2.7816838e-07
2.7754231e-07
2.7691698e-07
2.7629203e-07
2.7566705e-07
2.7504158e-07
2.7441519e-07
2.7378754e-07
2.7315825e-07
2.7252684e-07
2.7189279e-07
2.7125571e-07
2.7061519e-07
2.699707e-07
2.6932167e-07
2.6866755e-07
2.6800786e-07
2.6734202e-07
2.6666934e-07
2.6598913e-07
2.6530078e-07
2.6460356e-07
2.6389656e-07
2.6317894e-07
2.6244986e-07
2.6170829e-07
2.6095299e-07
2.6018307e-07
2.5941416e-07
2.5867072e-07
2.5796008e-07
2.5727982e-07
2.5662763e-07
2.5600138e-07
2.5539928e-07
2.548197e-07
2.5426104e-07
2.5372183e-07
2.5320085e-07
2.52697e-07
2.5220918e-07
2.5173632e-07
2.5127738e-07
2.5083155e-07
2.5039755e-07
2.4997526e-07
2.4956006e-07
2.4915853e-07
2.4874121e-07
2.4837747e-07
2.477689e-07
1.9998149e-06
1.9998379e-06
1.9999448e-06
2.0001843e-06
2.0005402e-06
2.0009914e-06
2.0015186e-06
2.0021062e-06
2.0027412e-06
2.0034124e-06
2.004111e-06
2.00483e-06
2.005564e-06
2.0063094e-06
2.0070641e-06
2.0078278e-06
2.0086022e-06
2.0093903e-06
2.0101972e-06
2.0110404e-06
2.0118805e-06
2.0129609e-06
2.0132929e-06
2.0132977e-06
4.7681971e-07
4.323206e-07
4.1693495e-07
4.097569e-07
4.0497486e-07
4.0092333e-07
3.9727919e-07
3.9395609e-07
3.909038e-07
3.8808096e-07
3.85455e-07
3.8300088e-07
3.8069831e-07
3.7853025e-07
3.7648223e-07
3.7454204e-07
3.7269916e-07
3.7094441e-07
3.6926965e-07
3.6766769e-07
3.6613224e-07
3.6465761e-07
3.6323891e-07
3.6187169e-07
3.6055184e-07
3.5927584e-07
3.5804046e-07
3.5684263e-07
3.5567965e-07
3.5454915e-07
3.5344884e-07
3.5237656e-07
3.5133049e-07
3.5030895e-07
3.4931023e-07
3.4833277e-07
3.4737527e-07
3.464365e-07
3.4551516e-07
3.4461007e-07
3.4372023e-07
3.4284473e-07
3.4198259e-07
3.4113285e-07
3.402947e-07
3.3946742e-07
3.386503e-07
3.3784254e-07
3.3704342e-07
3.3625236e-07
3.3546881e-07
3.3469214e-07
3.339217e-07
3.3315695e-07
3.3239741e-07
3.3164261e-07
3.3089199e-07
3.3014498e-07
3.2940114e-07
3.2866005e-07
3.2792125e-07
3.2718421e-07
3.2644841e-07
3.2571346e-07
3.2497894e-07
3.2424437e-07
3.2350921e-07
3.2277296e-07
3.2203522e-07
3.2129554e-07
3.2055335e-07
3.1980805e-07
3.1905917e-07
3.1830624e-07
3.1754864e-07
3.1678568e-07
3.1601674e-07
3.1524124e-07
3.144585e-07
3.136677e-07
3.1286806e-07
3.1205883e-07
3.1123915e-07
3.1040798e-07
3.0956432e-07
3.0870717e-07
3.0783532e-07
3.0694733e-07
3.0604214e-07
3.0513813e-07
3.0426406e-07
3.0342854e-07
3.0262873e-07
3.0186193e-07
3.0112562e-07
3.004177e-07
2.9973625e-07
2.990794e-07
2.9844541e-07
2.9783286e-07
2.9724044e-07
2.9666687e-07
2.9611089e-07
2.9557128e-07
2.9504708e-07
2.945368e-07
2.9404028e-07
2.9355214e-07
2.9308003e-07
2.9258958e-07
2.9216195e-07
2.9144629e-07
1.9998141e-06
1.9998369e-06
1.9999432e-06
2.0001817e-06
2.0005367e-06
2.0009868e-06
2.001513e-06
2.0020997e-06
2.0027336e-06
2.0034038e-06
2.0041013e-06
2.0048191e-06
2.0055518e-06
2.0062958e-06
2.0070491e-06
2.0078112e-06
2.0085838e-06
2.0093699e-06
2.0101746e-06
2.0110153e-06
2.0118527e-06
2.0129284e-06
2.0132566e-06
2.0132664e-06
5.3356705e-07
4.9756603e-07
4.8339497e-07
4.7581284e-07
4.7056949e-07
4.6607542e-07
4.6199454e-07
4.5824428e-07
4.5477937e-07
4.5156108e-07
4.4855765e-07
4.4574381e-07
4.4309854e-07
4.4060377e-07
4.3824402e-07
4.3600603e-07
4.338783e-07
4.3185071e-07
4.2991421e-07
4.2806079e-07
4.2628337e-07
4.2457558e-07
4.2293187e-07
4.2134723e-07
4.1981702e-07
4.183372e-07
4.169041e-07
4.1551423e-07
4.1416451e-07
4.1285222e-07
4.1157474e-07
4.103296e-07
4.0911471e-07
4.0792813e-07
4.0676792e-07
4.0563227e-07
4.0451967e-07
4.0342872e-07
4.0235795e-07
4.0130594e-07
4.0027158e-07
3.9925381e-07
3.9825149e-07
3.9726352e-07
3.9628897e-07
3.9532699e-07
3.9437676e-07
3.9343738e-07
3.9250799e-07
3.9158794e-07
3.9067657e-07
3.8977316e-07
3.8887697e-07
3.8798736e-07
3.8710378e-07
3.8622568e-07
3.8535241e-07
3.8448331e-07
3.8361788e-07
3.8275562e-07
3.8189599e-07
3.810384e-07
3.8018223e-07
3.7932701e-07
3.7847228e-07
3.7761747e-07
3.7676196e-07
3.7590517e-07
3.7504662e-07
3.7418579e-07
3.7332202e-07
3.7245463e-07
3.7158306e-07
3.7070675e-07
3.6982499e-07
3.6893698e-07
3.68042e-07
3.6713937e-07
3.6622829e-07
3.6530783e-07
3.6437705e-07
3.6343511e-07
3.62481e-07
3.6151349e-07
3.6053144e-07
3.5953367e-07
3.5851878e-07
3.5748509e-07
3.5643137e-07
3.55379e-07
3.5436148e-07
3.5338884e-07
3.5245776e-07
3.5156509e-07
3.5070793e-07
3.498838e-07
3.4909048e-07
3.483258e-07
3.4758773e-07
3.4687462e-07
3.4618494e-07
3.4551719e-07
3.4486994e-07
3.4424174e-07
3.4363148e-07
3.4303742e-07
3.424594e-07
3.4189117e-07
3.4134156e-07
3.4077087e-07
3.4027312e-07
3.394398e-07
1.9998131e-06
1.9998357e-06
1.9999413e-06
2.0001787e-06
2.0005324e-06
2.0009813e-06
2.0015064e-06
2.0020918e-06
2.0027245e-06
2.0033934e-06
2.0040896e-06
2.004806e-06
2.0055373e-06
2.0062796e-06
2.0070312e-06
2.0077913e-06
2.0085618e-06
2.0093456e-06
2.0101476e-06
2.0109853e-06
2.0118193e-06
2.0128896e-06
2.0132131e-06
2.0132312e-06
5.905469e-07
5.6586937e-07
5.5509526e-07
5.4772582e-07
5.4224918e-07
5.3744421e-07
5.3300755e-07
5.288782e-07
5.2502698e-07
5.2142517e-07
5.1804658e-07
5.1486885e-07
5.1187216e-07
5.0903881e-07
5.0635321e-07
5.0380178e-07
5.0137253e-07
4.9905473e-07
4.9683869e-07
4.9471575e-07
4.9267821e-07
4.9071911e-07
4.8883233e-07
4.8701235e-07
4.8525401e-07
4.8355281e-07
4.8190465e-07
4.8030564e-07
4.7875231e-07
4.7724161e-07
4.7577058e-07
4.7433644e-07
4.729368e-07
4.715695e-07
4.7023233e-07
4.6892324e-07
4.676405e-07
4.6638253e-07
4.6514764e-07
4.6393425e-07
4.6274106e-07
4.6156687e-07
4.6041038e-07
4.5927034e-07
4.5814567e-07
4.5703542e-07
4.5593863e-07
4.5485428e-07
4.537814e-07
4.5271921e-07
4.5166697e-07
4.5062387e-07
4.4958905e-07
4.4856176e-07
4.4754138e-07
4.4652727e-07
4.4551871e-07
4.4451492e-07
4.4351532e-07
4.4251934e-07
4.4152637e-07
4.4053572e-07
4.3954667e-07
4.3855869e-07
4.3757124e-07
4.3658367e-07
4.3559527e-07
4.3460535e-07
4.3361338e-07
4.3261875e-07
4.3162071e-07
4.3061846e-07
4.2961135e-07
4.2859874e-07
4.2757982e-07
4.2655367e-07
4.2551943e-07
4.2447633e-07
4.2342346e-07
4.2235973e-07
4.2128406e-07
4.2019548e-07
4.1909281e-07
4.1797464e-07
4.1683965e-07
4.1568649e-07
4.1451352e-07
4.1331883e-07
4.1210095e-07
4.1088464e-07
4.0970859e-07
4.085844e-07
4.0750825e-07
4.0647649e-07
4.0548576e-07
4.0453321e-07
4.0361626e-07
4.027324e-07
4.0187932e-07
4.0105507e-07
4.0025791e-07
3.9948609e-07
3.9873797e-07
3.9801186e-07
3.973065e-07
3.9661988e-07
3.9595179e-07
3.9529507e-07
3.9465985e-07
3.9400058e-07
3.9342539e-07
3.9246199e-07
1.999812e-06
1.9998343e-06
1.9999391e-06
2.0001751e-06
2.0005274e-06
2.0009749e-06
2.0014985e-06
2.0020825e-06
2.0027137e-06
2.0033811e-06
2.0040758e-06
2.0047905e-06
2.0055199e-06
2.0062603e-06
2.0070098e-06
2.0077676e-06
2.0085356e-06
2.0093166e-06
2.0101155e-06
2.0109497e-06
2.0117798e-06
2.0128435e-06
2.0131617e-06
2.0131929e-06
6.4744716e-07
6.3654442e-07
6.3190508e-07
6.2577243e-07
6.2049161e-07
6.1563592e-07
6.1101627e-07
6.0662343e-07
6.0246265e-07
5.9852739e-07
5.9480519e-07
5.9128192e-07
5.8794265e-07
5.847725e-07
5.8175762e-07
5.7888541e-07
5.7614437e-07
5.7352391e-07
5.7101423e-07
5.6860645e-07
5.6629256e-07
5.6406524e-07
5.6191802e-07
5.5984499e-07
5.5784062e-07
5.5590001e-07
5.5401873e-07
5.5219253e-07
5.5041758e-07
5.4869053e-07
5.4700813e-07
5.4536729e-07
5.4376536e-07
5.4219992e-07
5.4066853e-07
5.3916889e-07
5.3769907e-07
5.3625727e-07
5.3484164e-07
5.3345038e-07
5.3208201e-07
5.3073519e-07
5.2940847e-07
5.2810043e-07
5.2680984e-07
5.2553561e-07
5.2427669e-07
5.2303191e-07
5.2180015e-07
5.2058054e-07
5.1937225e-07
5.1817433e-07
5.1698583e-07
5.1580589e-07
5.1463379e-07
5.1346882e-07
5.1231013e-07
5.1115687e-07
5.1000834e-07
5.0886391e-07
5.0772287e-07
5.0658444e-07
5.0544781e-07
5.0431235e-07
5.0317745e-07
5.0204236e-07
5.0090628e-07
4.9976842e-07
4.9862815e-07
4.9748479e-07
4.9633748e-07
4.9518529e-07
4.9402748e-07
4.9286333e-07
4.9169188e-07
4.905121e-07
4.89323e-07
4.8812368e-07
4.869131e-07
4.8569002e-07
4.8445319e-07
4.8320148e-07
4.8193356e-07
4.8064782e-07
4.793427e-07
4.7801667e-07
4.7666786e-07
4.7529405e-07
4.7389357e-07
4.7249488e-07
4.7114248e-07
4.6984971e-07
4.6861218e-07
4.6742568e-07
4.6628638e-07
4.6519097e-07
4.641365e-07
4.6312009e-07
4.6213907e-07
4.6119121e-07
4.6027449e-07
4.5938694e-07
4.5852662e-07
4.5769163e-07
4.568805e-07
4.5609094e-07
4.5532269e-07
4.545676e-07
4.5383716e-07
4.530795e-07
4.5241827e-07
4.5131012e-07
1.9998106e-06
1.9998327e-06
1.9999364e-06
2.0001709e-06
2.0005215e-06
2.0009673e-06
2.0014892e-06
2.0020715e-06
2.002701e-06
2.0033666e-06
2.0040593e-06
2.004772e-06
2.0054993e-06
2.0062375e-06
2.0069844e-06
2.0077396e-06
2.0085046e-06
2.0092823e-06
2.0100776e-06
2.0109076e-06
2.0117331e-06
2.0127892e-06
2.0131012e-06
2.0131521e-06
7.0383789e-07
7.087405e-07
7.133145e-07
7.0989204e-07
7.0551172e-07
7.0105438e-07
6.9656734e-07
6.9213753e-07
6.8783082e-07
6.836808e-07
6.7970118e-07
6.7589473e-07
6.7225731e-07
6.6878113e-07
6.654572e-07
6.6227631e-07
6.5922921e-07
6.5630677e-07
6.5350017e-07
6.5080108e-07
6.4820186e-07
6.4569533e-07
6.4327506e-07
6.4093509e-07
6.3866977e-07
6.3647403e-07
6.3434326e-07
6.3227298e-07
6.3025914e-07
6.2829816e-07
6.2638659e-07
6.245211e-07
6.2269878e-07
6.2091705e-07
6.1917324e-07
6.1746485e-07
6.1578972e-07
6.1414592e-07
6.125314e-07
6.1094417e-07
6.0938257e-07
6.0784513e-07
6.0633026e-07
6.0483635e-07
6.0336204e-07
6.0190612e-07
6.0046739e-07
5.9904457e-07
5.976364e-07
5.9624188e-07
5.9486008e-07
5.9348997e-07
5.9213044e-07
5.9078054e-07
5.8943945e-07
5.8810635e-07
5.8678031e-07
5.8546036e-07
5.841457e-07
5.828356e-07
5.815293e-07
5.8022587e-07
5.7892441e-07
5.7762419e-07
5.7632453e-07
5.7502458e-07
5.7372341e-07
5.7242014e-07
5.7111403e-07
5.6980432e-07
5.6849002e-07
5.6717009e-07
5.6584366e-07
5.645099e-07
5.6316775e-07
5.61816e-07
5.6045353e-07
5.5907931e-07
5.5769215e-07
5.5629063e-07
5.5487332e-07
5.5343894e-07
5.5198594e-07
5.505125e-07
5.4901683e-07
5.4749717e-07
5.4595139e-07
5.4437694e-07
5.4277191e-07
5.4116891e-07
5.3961896e-07
5.3813734e-07
5.3671903e-07
5.3535922e-07
5.3405348e-07
5.3279806e-07
5.3158956e-07
5.3042468e-07
5.2930036e-07
5.2821405e-07
5.2716344e-07
5.2614625e-07
5.2516029e-07
5.2420337e-07
5.232738e-07
5.2236896e-07
5.2148857e-07
5.2062335e-07
5.1978632e-07
5.1891863e-07
5.1816117e-07
5.1689081e-07
1.999809e-06
1.9998308e-06
1.9999333e-06
2.000166e-06
2.0005146e-06
2.0009583e-06
2.0014783e-06
2.0020586e-06
2.002686e-06
2.0033495e-06
2.00404e-06
2.0047503e-06
2.0054751e-06
2.0062106e-06
2.0069546e-06
2.0077066e-06
2.0084682e-06
2.0092421e-06
2.0100331e-06
2.0108583e-06
2.0116785e-06
2.0127256e-06
2.0130307e-06
2.0131085e-06
7.5918451e-07
7.8147945e-07
7.9850593e-07
7.9964115e-07
7.9716794e-07
7.9378428e-07
7.8992958e-07
7.8584227e-07
7.8168036e-07
7.7753985e-07
7.7347706e-07
7.695235e-07
7.6569439e-07
7.6199533e-07
7.58427e-07
7.5498728e-07
7.5167206e-07
7.4847595e-07
7.4539282e-07
7.4241633e-07
7.3954032e-07
7.3675872e-07
7.3406583e-07
7.3145631e-07
7.2892485e-07
7.2646662e-07
7.2407717e-07
7.2175213e-07
7.1948741e-07
7.1727943e-07
7.1512469e-07
7.1301975e-07
7.109616e-07
7.0894756e-07
7.0697485e-07
7.0504081e-07
7.0314315e-07
7.012798e-07
6.9944862e-07
6.9764743e-07
6.9587444e-07
6.9412807e-07
6.9240659e-07
6.9070827e-07
6.8903159e-07
6.8737523e-07
6.8573789e-07
6.8411817e-07
6.8251466e-07
6.8092626e-07
6.7935194e-07
6.7779056e-07
6.762409e-07
6.7470188e-07
6.7317259e-07
6.7165213e-07
6.7013945e-07
6.6863347e-07
6.6713328e-07
6.6563806e-07
6.6414696e-07
6.6265895e-07
6.6117299e-07
6.5968828e-07
6.5820402e-07
6.5671927e-07
6.5523298e-07
6.5374416e-07
6.5225194e-07
6.5075547e-07
6.4925365e-07
6.4774528e-07
6.4622937e-07
6.4470497e-07
6.4317087e-07
6.4162572e-07
6.4006822e-07
6.384972e-07
6.3691132e-07
6.3530893e-07
6.3368843e-07
6.3204833e-07
6.303869e-07
6.2870202e-07
6.2699167e-07
6.2525384e-07
6.2348609e-07
6.2168552e-07
6.1984993e-07
6.1801663e-07
6.1624397e-07
6.1454946e-07
6.1292733e-07
6.1137209e-07
6.0987871e-07
6.0844286e-07
6.0706068e-07
6.0572838e-07
6.0444249e-07
6.0320007e-07
6.0199847e-07
6.0083511e-07
5.9970748e-07
5.9861308e-07
5.9754996e-07
5.9651517e-07
5.9550834e-07
5.9451898e-07
5.9356181e-07
5.9257022e-07
5.9170441e-07
5.9025101e-07
1.9998072e-06
1.9998285e-06
1.9999297e-06
2.0001604e-06
2.0005066e-06
2.000948e-06
2.0014655e-06
2.0020434e-06
2.0026684e-06
2.0033294e-06
2.0040173e-06
2.0047249e-06
2.0054468e-06
2.006179e-06
2.0069197e-06
2.007668e-06
2.0084255e-06
2.009195e-06
2.009981e-06
2.0108007e-06
2.0116147e-06
2.0126513e-06
2.0129493e-06
2.0130607e-06
8.128593e-07
8.5368083e-07
8.8647245e-07
8.942799e-07
8.9498854e-07
8.9356889e-07
8.9103389e-07
8.8783607e-07
8.8425823e-07
8.8048219e-07
8.7662493e-07
8.7276052e-07
8.6893385e-07
8.6517188e-07
8.6149118e-07
8.5790171e-07
8.544085e-07
8.5101304e-07
8.4771449e-07
8.4451061e-07
8.4139843e-07
8.3837441e-07
8.354348e-07
8.3257581e-07
8.2979335e-07
8.270835e-07
8.2444257e-07
8.2186675e-07
8.1935237e-07
8.1689618e-07
8.1449495e-07
8.1214542e-07
8.0984466e-07
8.075901e-07
8.0537902e-07
8.0320876e-07
8.0107699e-07
7.9898166e-07
7.9692058e-07
7.9489151e-07
7.9289259e-07
7.9092216e-07
7.8897845e-07
7.8705964e-07
7.8516409e-07
7.8329041e-07
7.8143723e-07
7.7960305e-07
7.7778637e-07
7.7598596e-07
7.7420074e-07
7.7242946e-07
7.7067083e-07
7.6892363e-07
7.6718686e-07
7.6545955e-07
7.6374057e-07
7.6202869e-07
7.6032291e-07
7.5862234e-07
7.56926e-07
7.552328e-07
7.5354155e-07
7.5185133e-07
7.5016128e-07
7.4847035e-07
7.4677735e-07
7.4508115e-07
7.433808e-07
7.4167532e-07
7.3996348e-07
7.3824393e-07
7.3651553e-07
7.3477721e-07
7.3302762e-07
7.3126521e-07
7.2948851e-07
7.2769618e-07
7.258867e-07
7.2405822e-07
7.222089e-07
7.2033703e-07
7.1844065e-07
7.1651737e-07
7.1456486e-07
7.1258083e-07
7.1056252e-07
7.0850661e-07
7.064106e-07
7.0431707e-07
7.0229271e-07
7.0035751e-07
6.9850491e-07
6.9672867e-07
6.9502301e-07
6.9338304e-07
6.9180432e-07
6.9028257e-07
6.888138e-07
6.8739467e-07
6.8602216e-07
6.8469332e-07
6.8340529e-07
6.8215521e-07
6.8094088e-07
6.7975891e-07
6.786089e-07
6.7747901e-07
6.7638578e-07
6.7525407e-07
6.7426571e-07
6.7260478e-07
1.9998051e-06
1.999826e-06
1.9999256e-06
2.0001538e-06
2.0004973e-06
2.0009359e-06
2.0014507e-06
2.0020258e-06
2.002648e-06
2.003306e-06
2.0039909e-06
2.0046952e-06
2.0054136e-06
2.0061422e-06
2.0068789e-06
2.0076228e-06
2.0083757e-06
2.0091401e-06
2.0099203e-06
2.0107336e-06
2.0115405e-06
2.012565e-06
2.0128564e-06
2.0130075e-06
8.6414804e-07
9.2419347e-07
9.7607717e-07
9.9291847e-07
9.9831308e-07
9.99928e-07
9.9956016e-07
9.979485e-07
9.9553385e-07
9.9260646e-07
9.8936187e-07
9.8593078e-07
9.8239875e-07
9.7882266e-07
9.7524202e-07
9.7168461e-07
9.6816932e-07
9.6470843e-07
9.6130956e-07
9.5797727e-07
9.5471404e-07
9.5152074e-07
9.4839718e-07
9.453425e-07
9.4235497e-07
9.3943256e-07
9.3657318e-07
9.3377431e-07
9.3103333e-07
9.2834784e-07
9.2571536e-07
9.231332e-07
9.2059889e-07
9.1811025e-07
9.1566492e-07
9.1326044e-07
9.1089469e-07
9.0856579e-07
9.0627169e-07
9.0401021e-07
9.0177952e-07
8.9957806e-07
8.9740409e-07
8.9525576e-07
8.9313142e-07
8.9102967e-07