/*--------------------------------*- C++ -*----------------------------------*\
  =========                 |
  \\      /  F ield         | OpenFOAM: The Open Source CFD Toolbox
   \\    /   O peration     | Website:  https://openfoam.org
    \\  /    A nd           | Version:  12
     \\/     M anipulation  |
\*---------------------------------------------------------------------------*/
FoamFile
{
    format      ascii;
    class       volScalarField;
    location    "1600";
    object      p;
}
// * * * * * * * * * * * * * * * * * * * * * * * * * * * * * * * * * * * * * //

dimensions      [0 2 -2 0 0 0 0];

internalField   nonuniform List<scalar> 
7480
(
0.008717093
0.0081282874
0.0070201786
0.0064119874
0.0061121892
0.0058667357
0.0056062654
0.0053526928
0.0051126045
0.0048747051
0.0046318809
0.0043832005
0.004139649
0.0039209886
0.0037507274
0.0036395612
0.0035849294
0.0035524101
0.0035288693
0.0035125567
0.0035034189
0.0034937085
0.0034813024
0.0034551456
0.0034163133
0.003373414
0.0033306154
0.0032903379
0.0032499326
0.003210056
0.0031716304
0.0031346456
0.0030996679
0.0030647161
0.0030264276
0.0029853174
0.0029431482
0.0029014807
0.0028616667
0.0028235682
0.0027865071
0.0027504782
0.0027155357
0.0026816223
0.0026483374
0.00261509
0.0025814261
0.002547679
0.0025139464
0.0024789039
0.0024411579
0.0024032506
0.0023676282
0.0023346274
0.0023020477
0.002268487
0.0022331583
0.0021953647
0.0021561892
0.0021170061
0.0020777917
0.0020380849
0.0019979616
0.0019574749
0.0019163978
0.0018747556
0.001832685
0.0017901094
0.0017469946
0.0017034
0.0016592035
0.0016143629
0.0015689366
0.0015228051
0.0014759759
0.0014284599
0.0013801188
0.0013309906
0.001281045
0.0012301029
0.0011783747
0.0011255256
0.0010712374
0.0010158435
0.00095826812
0.00089060826
0.00081686436
0.00076201271
0.00070787035
0.0006501596
0.00059209494
0.00053549614
0.00048021607
0.00042550765
0.00037321245
0.00032032158
0.00028390905
0.00022600694
0.00038489856
-0.00027975385
0.0082807168
0.0076994621
0.0068348813
0.0063081385
0.0060393366
0.0058145089
0.0055723208
0.0053354436
0.0051150054
0.0049027119
0.0046925021
0.0044829025
0.0042821226
0.0041015885
0.0039516138
0.0038379696
0.0037547647
0.0036996689
0.0036591937
0.0036255586
0.0035933229
0.003560137
0.0035209291
0.0034757568
0.0034287696
0.0033816882
0.0033376382
0.0032969323
0.0032569978
0.0032178693
0.0031800409
0.0031434038
0.0031081529
0.00307248
0.0030337975
0.0029927346
0.0029508632
0.0029095467
0.0028699435
0.0028318141
0.002794514
0.0027581349
0.0027227959
0.0026884805
0.0026547134
0.0026209033
0.002586693
0.0025522346
0.002517643
0.0024818038
0.002444363
0.0024072593
0.0023724435
0.0023394173
0.0023063177
0.0022722263
0.0022365501
0.0021985875
0.0021593191
0.0021200457
0.0020807395
0.0020409446
0.002000739
0.0019601726
0.0019190147
0.0018772915
0.0018351388
0.001792478
0.0017492761
0.0017055946
0.0016613125
0.0016163881
0.00157088
0.0015246687
0.0014777621
0.0014301708
0.0013817585
0.0013325647
0.0012825575
0.0012315567
0.0011797723
0.0011268688
0.0010725256
0.0010170679
0.00095925009
0.00089012448
0.00081948554
0.00076662928
0.00071216245
0.00065347828
0.00059474312
0.00053765691
0.00048199133
0.00042699076
0.00037449238
0.00032145236
0.00028492701
0.00022701743
0.00038595489
-0.00027898676
0.0079896937
0.0075790544
0.0069020145
0.0063869618
0.0060969392
0.0058590964
0.0056106641
0.0053669425
0.0051393349
0.0049197066
0.0047017443
0.0044826415
0.0042705246
0.0040762897
0.003911865
0.0037860207
0.0036995011
0.0036490983
0.0036196392
0.0035974845
0.0035744869
0.0035484969
0.0035177674
0.0034843172
0.0034478433
0.0034081392
0.0033670644
0.0033253781
0.0032835032
0.0032418033
0.0032008095
0.0031605656
0.0031217104
0.0030833857
0.00304333
0.0030016553
0.0029595212
0.0029181087
0.0028784739
0.0028402878
0.0028028547
0.0027662838
0.0027307054
0.0026961242
0.0026619688
0.0026276519
0.0025929434
0.0025580501
0.0025229975
0.0024868446
0.0024494256
0.0024121704
0.0023769796
0.0023434939
0.0023100583
0.0022757856
0.0022400187
0.002202029
0.0021627395
0.0021234134
0.0020840251
0.002044131
0.0020038215
0.0019631502
0.0019218885
0.0018800676
0.0018378217
0.0017950679
0.0017517736
0.0017080016
0.0016636313
0.0016186215
0.0015730309
0.0015267396
0.0014797558
0.0014320901
0.001383605
0.0013343399
0.0012842633
0.0012331957
0.0011813478
0.0011283833
0.0010739834
0.0010184832
0.00096052665
0.00089094511
0.0008237227
0.00077107955
0.00071614504
0.00065693325
0.00059775197
0.00054024381
0.00048420028
0.00042889473
0.00037615859
0.00032291336
0.00028623123
0.00022831959
0.00038717183
-0.00027802624
0.0077640114
0.0074468279
0.0068507652
0.0063462849
0.0060458366
0.0058103981
0.0055700547
0.0053330282
0.0051112214
0.0048983685
0.0046882934
0.004478584
0.0042771235
0.0040939907
0.0039401105
0.0038228218
0.00374197
0.0036917813
0.0036580316
0.0036282453
0.0035971285
0.0035640851
0.0035283614
0.0034909836
0.0034510606
0.0034093333
0.0033668524
0.0033243077
0.0032834527
0.0032441102
0.00320605
0.0031689457
0.0031321112
0.0030944155
0.0030546605
0.0030128407
0.0029699942
0.002927466
0.0028866943
0.002847663
0.0028096935
0.0027727542
0.0027368896
0.0027021338
0.0026678523
0.0026333609
0.002598416
0.0025633394
0.0025280111
0.0024915593
0.0024538566
0.0024162526
0.0023807011
0.0023469292
0.0023133165
0.0022789239
0.0022430751
0.0022050685
0.0021657821
0.0021264235
0.0020869681
0.0020469936
0.0020066069
0.0019658574
0.0019245152
0.0018826201
0.0018403018
0.0017974715
0.0017540986
0.0017102482
0.0016657994
0.0016207121
0.0015750453
0.0015286783
0.0014816204
0.0014338819
0.0013853238
0.0013359853
0.0012858367
0.0012346985
0.0011827828
0.0011297523
0.0010752918
0.001019738
0.00096177089
0.00089337333
0.00082724612
0.0007740829
0.00071881971
0.00065937349
0.00059995016
0.00054219968
0.00048594518
0.00043045169
0.00037754298
0.00032414695
0.0002873511
0.00022932956
0.00038821834
-0.00027721785
0.0075576221
0.0072962576
0.0067813151
0.0063227406
0.0060321183
0.0058053646
0.0055737184
0.0053416994
0.0051224776
0.0049120588
0.0047049466
0.0044991118
0.0043014194
0.0041209577
0.0039671653
0.0038467796
0.0037599833
0.0037017449
0.0036607065
0.00362614
0.003592966
0.0035597179
0.0035248188
0.0034882067
0.0034491506
0.003408261
0.0033663066
0.0033241437
0.0032834428
0.0032440106
0.0032058013
0.0031688835
0.0031320894
0.0030943585
0.0030554392
0.0030152108
0.0029743828
0.0029338206
0.0028941205
0.0028553686
0.0028173689
0.0027799945
0.0027433795
0.0027078993
0.0026731236
0.0026383205
0.0026031406
0.0025679038
0.0025324358
0.0024958324
0.0024579803
0.0024202386
0.0023845038
0.002350507
0.0023166856
0.0022821144
0.0022461348
0.00220808
0.0021687765
0.002129371
0.0020898471
0.0020498014
0.0020093494
0.0019685302
0.0019271157
0.0018851589
0.0018427776
0.0017998763
0.0017564302
0.0017125066
0.0016679839
0.0016228228
0.0015770826
0.0015306421
0.0014835114
0.001435701
0.0013870711
0.0013376621
0.0012874439
0.001236237
0.0011842551
0.0011311592
0.0010766359
0.0010210192
0.00096305238
0.00089569381
0.00083021952
0.00077689978
0.00072144608
0.00066179732
0.00060214074
0.00054415929
0.0004877004
0.00043201618
0.00037893279
0.00032539502
0.00028848466
0.00023031744
0.00038923721
-0.00027632399
0.0073686552
0.0071507391
0.0067135061
0.0063004163
0.0060145601
0.005787748
0.0055593702
0.0053301416
0.0051127151
0.0049052669
0.0047011431
0.0045005147
0.0043080998
0.0041321458
0.0039813258
0.0038618924
0.0037743418
0.0037141848
0.0036715566
0.0036362695
0.0036027333
0.0035689273
0.0035332897
0.0034957271
0.0034559093
0.0034143932
0.0033719192
0.0033293706
0.0032881201
0.0032480904
0.0032092372
0.003171499
0.0031337498
0.0030951889
0.0030557141
0.0030151862
0.002974343
0.0029339732
0.0028943124
0.002855814
0.0028187129
0.0027826761
0.002747425
0.0027127214
0.0026781867
0.002643384
0.0026079266
0.0025722475
0.0025364052
0.0024995683
0.0024615954
0.0024238026
0.002387974
0.0023538127
0.0023198224
0.0022851167
0.0022490457
0.002210956
0.0021716356
0.0021321935
0.0020926217
0.0020525224
0.0020120201
0.0019711443
0.0019296704
0.0018876639
0.0018452304
0.0018022686
0.0017587597
0.0017147731
0.0016701856
0.001624959
0.0015791533
0.0015326462
0.0014854492
0.0014375726
0.0013888763
0.001339402
0.0012891189
0.0012378473
0.0011858033
0.0011326454
0.0010780613
0.0010223809
0.0009643939
0.00089773362
0.0008329779
0.00077978828
0.00072427538
0.00066446674
0.00060457994
0.0005463472
0.0004896474
0.00043374526
0.00038047229
0.00032677545
0.00028972471
0.00023139952
0.00039027447
-0.00027523458
0.0071961151
0.0070121819
0.0066408008
0.0062686275
0.0059899341
0.0057654414
0.0055438174
0.0053212526
0.0051085623
0.0049060563
0.0047059121
0.0045108327
0.0043236729
0.0041520023
0.0040038323
0.0038848326
0.0037956352
0.0037321774
0.0036857901
0.0036471065
0.0036106446
0.0035743961
0.0035370043
0.003498245
0.0034578061
0.0034160035
0.0033734636
0.0033309641
0.0032896557
0.003249587
0.0032106731
0.0031727913
0.0031349896
0.0030965289
0.0030572037
0.0030168357
0.0029760459
0.0029355121
0.0028955255
0.0028566923
0.0028193081
0.0027831127
0.0027478088
0.0027129775
0.0026785656
0.0026444227
0.00261006
0.002575244
0.002539761
0.0025031362
0.0024651795
0.0024272109
0.0023911056
0.0023566727
0.0023224784
0.0022876533
0.0022515397
0.0022134611
0.0021741599
0.0021347183
0.0020951345
0.0020550109
0.0020144845
0.0019735783
0.0019320678
0.0018900275
0.001847558
0.0018045537
0.0017609989
0.0017169647
0.0016723265
0.0016270475
0.0015811885
0.0015346258
0.0014873727
0.0014394393
0.001390685
0.0013411529
0.0012908115
0.0012394814
0.0011873808
0.0011341658
0.0010795251
0.0010237838
0.00096576721
0.00089967527
0.00083563926
0.00078262511
0.00072711792
0.00066720526
0.00060711905
0.00054864495
0.000491702
0.00043557713
0.00038210796
0.00032824368
0.00029103565
0.00023254442
0.0003912844
-0.0002739349
0.0070379712
0.0068802139
0.0065637601
0.0062303351
0.0059630319
0.0057428196
0.005528067
0.0053118398
0.0051033012
0.0049039549
0.0047080762
0.004517434
0.0043348085
0.0041669882
0.0040212277
0.0039026377
0.0038119648
0.0037456211
0.0036960434
0.0036547636
0.0036164682
0.003579005
0.0035409633
0.0035018545
0.0034613028
0.003419484
0.0033769691
0.0033344836
0.0032930435
0.0032527947
0.0032136351
0.0031754245
0.0031373466
0.0030986784
0.0030591814
0.0030187334
0.0029778908
0.0029373141
0.0028973492
0.0028585338
0.0028210852
0.0027847205
0.0027491065
0.0027138853
0.0026791232
0.0026447312
0.0026103132
0.0025753919
0.0025398403
0.0025036346
0.0024665491
0.0024294109
0.0023936775
0.0023593257
0.0023250192
0.0022899694
0.0022536881
0.0022155579
0.0021762531
0.00213682
0.0020972552
0.0020571428
0.002016628
0.0019757274
0.0019342105
0.0018921616
0.0018496798
0.0018066553
0.0017630753
0.0017190128
0.0016743415
0.0016290266
0.0015831296
0.0015365253
0.001489229
0.0014412507
0.001392449
0.001342869
0.0012924783
0.0012410974
0.0011889478
0.0011356822
0.0010809907
0.0010251928
0.00096714763
0.00090159348
0.0008382207
0.00078535128
0.0007298752
0.00066990047
0.00060964839
0.00055095546
0.00049378391
0.00043744488
0.00038378244
0.00032975237
0.0002923787
0.00023371401
0.00039221855
-0.00027241084
0.0068922911
0.0067549135
0.0064843032
0.0061870583
0.0059334696
0.0057183048
0.005509964
0.0053001838
0.0050963184
0.0049008499
0.0047098218
0.0045239393
0.0043461681
0.0041825071
0.0040394479
0.003921619
0.0038298628
0.0037610543
0.0037085827
0.0036648082
0.0036245858
0.0035856129
0.003546447
0.0035064616
0.0034652883
0.0034230429
0.0033802435
0.0033375572
0.0032958674
0.0032553655
0.0032159375
0.0031774208
0.0031390954
0.0031002657
0.0030606837
0.0030202629
0.0029794856
0.0029389725
0.0028990713
0.0028602479
0.0028227119
0.0027862319
0.0027505056
0.0027152232
0.0026804073
0.0026459145
0.0026113115
0.0025761178
0.0025403055
0.0025039417
0.002466875
0.0024297513
0.0023939396
0.0023597464
0.0023259693
0.002291426
0.0022554047
0.0022174546
0.0021781764
0.0021386618
0.0020990329
0.0020588958
0.002018387
0.0019775128
0.0019360185
0.001893991
0.0018515269
0.0018085093
0.0017649291
0.0017208618
0.0016761784
0.0016308469
0.0015849299
0.0015383006
0.0014909766
0.0014429677
0.0013941317
0.0013445159
0.0012940871
0.0012426653
0.0011904762
0.0011371684
0.0010824335
0.0010265853
0.00096851691
0.00090348484
0.00084072178
0.00078796789
0.00073253373
0.00067252494
0.0006121346
0.00055324535
0.00049586198
0.00043932047
0.0003854713
0.00033128067
0.0002937356
0.00023489034
0.00039304071
-0.00027063145
0.0067572896
0.0066361133
0.006403659
0.0061393863
0.0059008154
0.0056917597
0.00548998
0.0052870944
0.0050885649
0.0048974343
0.0047111725
0.0045299802
0.0043568481
0.0041971075
0.0040565696
0.0039394502
0.0038466626
0.0037755165
0.003720235
0.0036739572
0.0036317633
0.0035912585
0.0035509913
0.0035102379
0.0034686031
0.0034261211
0.0033832216
0.0033404945
0.0032986988
0.0032580496
0.0032184351
0.0031796763
0.0031411383
0.0031021674
0.00306251
0.0030221005
0.0029813574
0.0029408612
0.002900964
0.0028620891
0.002824451
0.0027878571
0.0027520191
0.0027166427
0.0026817084
0.0026470742
0.0026123439
0.0025770851
0.0025412603
0.0025048918
0.0024678067
0.0024305737
0.0023945258
0.0023600725
0.0023261538
0.0022914719
0.0022553871
0.0022177547
0.0021790464
0.0021399685
0.0021005415
0.0020604794
0.0020199324
0.0019790142
0.0019375039
0.001895485
0.0018530486
0.0018100595
0.0017665047
0.0017224587
0.0016777878
0.0016324624
0.0015865466
0.0015399113
0.0014925773
0.0014445544
0.0013956992
0.0013460619
0.0012956079
0.0012441572
0.00119194
0.0011386003
0.0010838312
0.0010279413
0.00096985676
0.00090533026
0.00084313598
0.00079047609
0.00073508947
0.00067506789
0.00061456315
0.00055549896
0.00049792071
0.00044118938
0.00038716149
0.00033281684
0.0002950952
0.00023606221
0.00039371912
-0.00026855653
0.0066315293
0.0065235114
0.0063227618
0.0060880691
0.0058652208
0.0056634076
0.005468399
0.0052725849
0.0050797548
0.0048932017
0.0047116482
0.0045351865
0.0043666449
0.0042107962
0.0040728437
0.0039566195
0.0038630752
0.0037899179
0.0037321057
0.0036835032
0.0036394528
0.0035975017
0.0035561797
0.0035146778
0.003472556
0.0034297763
0.0033866897
0.0033438223
0.0033018337
0.003260954
0.0032210829
0.0031820305
0.0031432346
0.0031040858
0.0030643241
0.0030238972
0.0029831711
0.0029426863
0.0029027962
0.0028638876
0.0028261684
0.0027894728
0.0027535243
0.0027180446
0.0026829914
0.0026482318
0.0026133993
0.0025780845
0.0025422192
0.0025058145
0.0024687427
0.0024315499
0.0023954795
0.0023609111
0.0023268068
0.0022918889
0.0022555987
0.0022178831
0.0021791794
0.0021400697
0.0021007089
0.0020610248
0.0020208839
0.0019801968
0.0019388048
0.0018967911
0.0018543311
0.0018113308
0.0017677873
0.001723769
0.0016791278
0.0016338304
0.0015879384
0.0015413184
0.0014939945
0.0014459761
0.0013971185
0.0013474757
0.0012970112
0.0012455453
0.0011933131
0.0011399533
0.0010851609
0.0010292397
0.00097114752
0.00090710982
0.0008454486
0.00079286411
0.00073752906
0.00067751373
0.00061691724
0.00055769963
0.00049994442
0.0004430374
0.00038884016
0.00033434925
0.00029644642
0.00023721796
0.00039422075
-0.00026613989
0.0065138477
0.0064167127
0.0062423211
0.0060338705
0.005826903
0.0056332853
0.0054452488
0.0052565766
0.0050697586
0.0048880906
0.0047113332
0.0045396756
0.0043756993
0.0042237007
0.0040883472
0.0039731197
0.0038789924
0.0038040386
0.0037438731
0.0036930324
0.003647147
0.0036037415
0.0035613277
0.0035190342
0.003476379
0.0034332653
0.0033899715
0.0033469597
0.0033047986
0.0032637166
0.0032236223
0.0031843167
0.0031452968
0.003105997
0.0030661538
0.0030257235
0.0029850277
0.0029445663
0.0029046898
0.0028657522
0.0028279522
0.0027911498
0.0027550853
0.0027194986
0.0026843294
0.0026494477
0.0026145088
0.0025791225
0.0025432021
0.0025067608
0.0024697112
0.0024325606
0.0023964481
0.0023617401
0.0023274802
0.0022924629
0.0022561394
0.0022184235
0.0021796704
0.0021404283
0.0021009355
0.0020612109
0.0020210243
0.0019803226
0.001939169
0.0018975145
0.0018553097
0.0018124278
0.0017689027
0.0017248718
0.0016802254
0.0016349433
0.0015890803
0.0015424898
0.0014951949
0.0014472005
0.0013983589
0.001348728
0.0012982692
0.0012468027
0.00119457
0.001141203
0.0010863995
0.0010304592
0.00097236898
0.00090880271
0.00084763892
0.0007951125
0.00073983331
0.00067984297
0.00061917739
0.00055982868
0.00050191592
0.000444849
0.00039049333
0.00033586531
0.00029777739
0.00023834541
0.00039448671
-0.00026333169
0.0064032761
0.0063152825
0.0061628561
0.0059774929
0.0057861187
0.0056014284
0.005420598
0.0052391182
0.0050585732
0.0048820807
0.0047102109
0.0045433743
0.004383915
0.004235713
0.0041029666
0.0039888405
0.0038943194
0.0038178085
0.0037555073
0.0037025683
0.0036549248
0.0036101116
0.0035666273
0.0035235547
0.0034803712
0.0034369251
0.0033934233
0.0033502625
0.0033079285
0.0032666396
0.0032263142
0.0031867502
0.0031474958
0.00310803
0.0030680899
0.0030276375
0.0029869559
0.0029465048
0.0029066288
0.0028676533
0.0028297673
0.0027928548
0.0027566735
0.0027209785
0.0026856931
0.0026506878
0.0026156391
0.0025801784
0.002544206
0.0025077347
0.0024707062
0.002433588
0.0023974253
0.0023625797
0.0023281765
0.002293065
0.0022566914
0.0022189613
0.0021802094
0.00214097
0.0021014783
0.0020617102
0.0020214152
0.0019805857
0.0019393663
0.0018976785
0.0018554539
0.0018127303
0.0017695051
0.0017257054
0.0016811654
0.0016359037
0.0015900365
0.001543448
0.0014961722
0.0014482084
0.0013993954
0.0013497924
0.0012993562
0.0012479046
0.0011956868
0.0011423268
0.0010875252
0.0010315789
0.00097350134
0.00091038759
0.00084968386
0.00079719887
0.00074198055
0.0006820344
0.00062132292
0.0005618665
0.00050381711
0.00044660779
0.0003921062
0.00033735173
0.00029907551
0.00023943073
0.00039448176
-0.00026008206
0.0062989993
0.0062187889
0.0060847326
0.0059195612
0.0057431689
0.0055679081
0.0053945233
0.0052202642
0.0050461755
0.0048751026
0.0047082155
0.0045462111
0.0043912408
0.0042468074
0.0041166951
0.0040037844
0.0039090607
0.0038312254
0.0037669996
0.003712099
0.0036627673
0.0036165811
0.0035720334
0.0035281746
0.0034844451
0.0034406434
0.0033969092
0.003353576
0.0033110567
0.0032695531
0.0032289938
0.0031891764
0.0031496927
0.0031100639
0.0030700306
0.0030295561
0.0029888899
0.0029484527
0.0029085793
0.0028695705
0.0028316047
0.0027945872
0.0027582924
0.0027224894
0.0026870882
0.0026519598
0.0026168016
0.002581266
0.0025452423
0.0025087403
0.0024717266
0.0024346344
0.002398423
0.0023634459
0.0023289009
0.0022936883
0.002257256
0.002219511
0.0021807681
0.002141531
0.002102025
0.0020622252
0.0020219127
0.0019810821
0.0019398389
0.0018980738
0.0018557345
0.0018129378
0.0017696804
0.0017258602
0.0016814545
0.0016364477
0.0015907726
0.0015442711
0.0014970082
0.0014490456
0.0014002434
0.0013506625
0.0013002558
0.001248831
0.0011966425
0.0011433038
0.0010885178
0.00103258
0.00097452602
0.0009118442
0.00085156091
0.00079910058
0.00074394843
0.00068406611
0.00062333257
0.00056379283
0.00050562916
0.00044829658
0.0003936632
0.00033879445
0.00030032749
0.00024045914
0.00039415883
-0.00025633016
0.0062003275
0.006126822
0.0060081948
0.0058606154
0.0056983788
0.0055328225
0.0053670933
0.0052000663
0.0050325531
0.0048671038
0.004705303
0.0045481468
0.0043976453
0.00425696
0.0041295085
0.0040179196
0.0039231733
0.0038442344
0.0037782906
0.0037215711
0.0036706311
0.0036231168
0.0035775247
0.0035328839
0.0034886028
0.0034444348
0.0034004573
0.0033569426
0.0033142372
0.0032725223
0.0032317335
0.0031916712
0.0031519639
0.003112173
0.0030720449
0.0030315425
0.0029908854
0.0029504573
0.0029105811
0.0028715357
0.002833489
0.0027963645
0.0027599538
0.002724039
0.0026885197
0.0026532672
0.0026179983
0.0025823852
0.0025463083
0.0025097738
0.0024727706
0.0024357006
0.0023994414
0.0023643348
0.0023296464
0.00229433
0.0022578394
0.0022200812
0.002181346
0.0021421053
0.0021025807
0.0020627547
0.0020224295
0.0019815879
0.0019403202
0.0018985353
0.0018561923
0.0018133796
0.001770058
0.001726134
0.001681661
0.0016366218
0.0015909342
0.0015445803
0.0014975344
0.0014497104
0.0014009748
0.0013514015
0.0013009989
0.0012495888
0.0011974291
0.0011441189
0.0010893601
0.0010334451
0.00097542625
0.00091315448
0.00085325007
0.00080079683
0.00074571556
0.00068591664
0.00062518509
0.00056558717
0.00050733273
0.00044989749
0.00039514795
0.00034017857
0.00030151927
0.00024141575
0.00039346206
-0.00025200718
0.0061066726
0.0060390015
0.0059333949
0.0058011117
0.005652078
0.0054962944
0.0053383768
0.0051785812
0.0050177113
0.0048580465
0.0047014326
0.0045491406
0.0044030887
0.0042661361
0.0041413753
0.0040312131
0.003936621
0.0038567956
0.0037893412
0.0037309539
0.0036784959
0.0036297056
0.0035830941
0.0035376785
0.0034928416
0.003448296
0.003404062
0.0033603533
0.0033174559
0.0032755272
0.0032345081
0.0031942041
0.0031542755
0.0031143212
0.0030740958
0.0030335602
0.0029929074
0.0029524859
0.0029126044
0.0028735223
0.0028353968
0.0027981671
0.0027616417
0.002725615
0.0026899784
0.0026546031
0.002619224
0.0025835321
0.0025474013
0.0025108343
0.0024738385
0.0024367868
0.0024004798
0.0023652452
0.0023304138
0.0022949929
0.0022584437
0.0022206702
0.0021819398
0.0021426942
0.0021031526
0.0020633027
0.0020229613
0.0019821034
0.0019408129
0.0018990137
0.0018566621
0.0018138307
0.0017704879
0.0017265558
0.0016820659
0.0016369669
0.0015911866
0.0015447825
0.0014977034
0.0014498843
0.0014013123
0.0013519231
0.0013016159
0.0012502412
0.0011980927
0.0011447914
0.0010900522
0.0010341653
0.00097618939
0.0009143035
0.00085473478
0.00080227007
0.00074726323
0.00068756643
0.00062686051
0.00056722959
0.00050890855
0.0004513923
0.00039654349
0.00034148848
0.00030263593
0.00024228429
0.00039235601
-0.00024704801
0.0060175307
0.0059549806
0.0058604171
0.0057414265
0.0056045864
0.0054584676
0.0053084476
0.0051558683
0.0050016669
0.0048479034
0.0046965653
0.0045491539
0.0044075346
0.0042743052
0.0041522696
0.0040436384
0.003949372
0.0038688707
0.00380011
0.0037402095
0.00368633
0.0036363213
0.0035887205
0.0035425416
0.0034971478
0.0034522163
0.0034077151
0.0033638022
0.0033207086
0.0032785663
0.0032373193
0.0031967796
0.003156635
0.0031165192
0.0030761962
0.0030356239
0.0029949715
0.0029545543
0.0029146651
0.0028755455
0.0028373422
0.0028000081
0.0027633679
0.0027272279
0.0026914732
0.002655975
0.0026204847
0.002584712
0.0025485257
0.0025119253
0.0024749329
0.0024378948
0.0024015391
0.0023661784
0.0023312045
0.0022956783
0.0022590691
0.0022212777
0.00218255
0.0021432995
0.0021037411
0.0020638665
0.0020235072
0.0019826332
0.0019413222
0.0018995074
0.0018571424
0.001814292
0.0017709326
0.0017269896
0.0016824818
0.0016373639
0.0015915758
0.0015451505
0.0014980092
0.0014501093
0.0014014982
0.001352084
0.0013018248
0.0012506129
0.0011986098
0.0011453714
0.001090646
0.0010347683
0.0009768236
0.00091528759
0.00085600526
0.00080350767
0.00074857659
0.00068899909
0.00062834129
0.00056870191
0.00051033836
0.00045276324
0.00039783284
0.00034270823
0.00030366206
0.00024304762
0.00039077507
-0.00024138528
0.0059324671
0.0058744458
0.0057892968
0.0056818651
0.0055562036
0.0054195008
0.0052773869
0.0051319887
0.0049844462
0.0048366579
0.004690668
0.0045481526
0.0044109511
0.0042814399
0.0041621665
0.0040551679
0.0039613925
0.0038804191
0.0038105532
0.0037492978
0.0036941011
0.0036429385
0.003594385
0.0035474596
0.0035015122
0.0034561897
0.0034114126
0.0033672871
0.0033239934
0.003281638
0.0032401654
0.0031993952
0.0031590392
0.0031187629
0.0030783409
0.0030377277
0.0029970711
0.0029566549
0.0029167551
0.0028775969
0.002839317
0.0028018794
0.0027651249
0.0027288707
0.0026929977
0.0026573771
0.0026217759
0.0025859209
0.0025496784
0.0025130437
0.0024760513
0.0024390224
0.0024026178
0.0023671335
0.0023320179
0.0022963855
0.002259715
0.0022219038
0.0021831773
0.0021439214
0.0021043457
0.0020644461
0.0020240682
0.0019831783
0.0019418465
0.0019000146
0.0018576359
0.0018147679
0.0017713915
0.0017274338
0.0016829076
0.0016377745
0.0015919757
0.0015455324
0.0014983758
0.0014504679
0.0014018277
0.0013523472
0.0013020242
0.0012507765
0.0011987754
0.0011456454
0.001091066
0.0010352734
0.0009773749
0.00091614162
0.00085707738
0.00080451171
0.00074964916
0.00069020341
0.00062961356
0.00056998866
0.00051160593
0.00045399387
0.00039899981
0.00034382217
0.00030458224
0.0002436878
0.0003886606
-0.00023494977
0.0058511052
0.0057971154
0.0057200351
0.0056226702
0.0055072024
0.0053795608
0.0052452833
0.0051070061
0.0049660828
0.0048243043
0.0046837142
0.0045461073
0.0044133099
0.0042875141
0.0041710415
0.0040657747
0.00397265
0.0038914017
0.0038206285
0.0037581793
0.0037017759
0.0036495306
0.003600067
0.0035524167
0.0035059226
0.0034602066
0.003415147
0.003370802
0.0033273053
0.0032847376
0.0032430426
0.0032020472
0.0031614851
0.00312105
0.0030805284
0.0030398712
0.0029992062
0.0029587885
0.0029188759
0.0028796784
0.0028413231
0.0028037836
0.0027669154
0.0027305466
0.0026945553
0.0026588129
0.0026231005
0.0025871619
0.0025508618
0.0025141918
0.0024771959
0.0024401717
0.0024037175
0.0023681116
0.0023328553
0.0022971157
0.0022603826
0.0022225495
0.0021838223
0.0021445602
0.0021049667
0.002065042
0.002024645
0.0019837387
0.0019423858
0.0019005361
0.0018581435
0.001815258
0.0017718635
0.0017278904
0.001683347
0.001638198
0.0015923852
0.0015459246
0.0014987551
0.0014508362
0.0014021786
0.0013526864
0.0013023522
0.0012510604
0.001198997
0.0011458309
0.0010912262
0.0010354806
0.0009777274
0.00091686154
0.00085799618
0.00080532375
0.00075050177
0.00069118406
0.00063067212
0.00057107944
0.00051269818
0.00045507
0.00040002981
0.0003448157
0.00030538163
0.0002441873
0.00038595918
-0.00022767492
0.0057731173
0.0057227371
0.0056526088
0.0055640318
0.0054578256
0.0053388167
0.0052122331
0.0050809865
0.0049466166
0.0048108469
0.0046756854
0.0045429932
0.0044145862
0.0042925046
0.004178872
0.0040754336
0.0039831132
0.0039017805
0.0038302934
0.003766813
0.0037093195
0.0036560687
0.0036057432
0.0035573948
0.0035103653
0.0034642568
0.0034189107
0.0033743412
0.0033306396
0.0032878613
0.0032459476
0.0032047329
0.0031639701
0.0031233788
0.0030827571
0.0030420529
0.0030013757
0.0029609536
0.002921026
0.0028817884
0.0028433589
0.0028057187
0.0027687376
0.0027322538
0.002696144
0.0026602804
0.002624457
0.0025884335
0.0025520746
0.0025153684
0.0024783654
0.0024413417
0.0024048372
0.002369112
0.0023337161
0.0022978687
0.0022610718
0.0022232148
0.002184485
0.0021452159
0.0021056043
0.0020656545
0.0020252377
0.0019843145
0.0019429403
0.0019010725
0.0018586654
0.001815762
0.0017723489
0.0017283603
0.0016837996
0.0016386338
0.0015928065
0.0015463294
0.001499146
0.0014512134
0.0014025398
0.001353037
0.0013026896
0.00125139
0.0011993097
0.0011461185
0.0010914753
0.0010356854
0.0009779145
0.00091728132
0.00085863479
0.00080592248
0.00075116666
0.0006919788
0.00063153802
0.00057197991
0.00051361064
0.00045598194
0.00040091088
0.00034567596
0.00030604636
0.00024452991
0.00038262389
-0.00021950241
0.0056982171
0.0056510853
0.0055869791
0.0055060957
0.0054082847
0.0052974337
0.0051783382
0.0050539993
0.0049260924
0.0047962988
0.0046665705
0.0045387907
0.0044147596
0.0042963913
0.0041856373
0.0040841206
0.0039927516
0.0039115179
0.0038395062
0.0037751577
0.0037166956
0.0036625224
0.0036113892
0.0035623747
0.0035148254
0.0034683289
0.0034226949
0.0033778979
0.0033339906
0.0032910044
0.0032488765
0.0032074486
0.0031664909
0.0031257463
0.0030850246
0.0030442707
0.0030035777
0.0029631485
0.0029232039
0.0028839256
0.0028454231
0.002807684
0.0027705909
0.0027339921
0.0026977642
0.0026617801
0.002625846
0.0025897365
0.0025533177
0.002516574
0.0024795606
0.002442533
0.0024059775
0.0023701351
0.002334601
0.0022986451
0.0022617831
0.0022239003
0.002185166
0.002145889
0.002106259
0.0020662839
0.0020258467
0.0019849059
0.0019435104
0.0019016239
0.0018592019
0.0018162803
0.0017728483
0.0017288437
0.0016842652
0.0016390822
0.0015932402
0.0015467465
0.0014995481
0.0014516019
0.0014029129
0.0013533976
0.0013030363
0.0012517302
0.001199629
0.0011464232
0.0010917874
0.0010359866
0.00097822598
0.00091769997
0.00085913359
0.00080622303
0.00075151822
0.00069254848
0.00063223117
0.00057272331
0.000514364
0.00045673552
0.00040163934
0.00034639426
0.00030656482
0.00024469779
0.00037862346
-0.00021039036
0.0056261536
0.0055819584
0.0055230967
0.0054489714
0.0053587607
0.0052555693
0.0051437042
0.0050261168
0.0049045594
0.0047806812
0.0046563669
0.0045334863
0.0044138139
0.0042991571
0.0041913191
0.0040918133
0.0040015366
0.003920578
0.0038482257
0.0037831722
0.0037238668
0.0036688602
0.0036169789
0.0035673354
0.0035192863
0.0034724101
0.0034264897
0.0033814643
0.0033373521
0.0032941613
0.0032518245
0.0032101901
0.0031690438
0.0031281494
0.0030873281
0.0030465226
0.0030058105
0.0029653716
0.0029254083
0.0028860889
0.0028475147
0.0028096783
0.0027724743
0.0027357608
0.0026994151
0.0026633113
0.0026272669
0.0025910706
0.0025545907
0.0025178082
0.0024807811
0.0024437455
0.002407138
0.0023711807
0.00233551
0.0022994451
0.0022625169
0.0022246062
0.0021858655
0.0021465797
0.0021069308
0.0020669304
0.002026472
0.0019855133
0.0019440964
0.0019021907
0.0018597531
0.0018168131
0.0017733619
0.0017293407
0.0016847442
0.0016395436
0.0015936865
0.0015471758
0.0014999621
0.0014520021
0.0014032973
0.0013537689
0.0013033942
0.0012520804
0.0011999575
0.0011467391
0.0010921109
0.0010362932
0.00097860371
0.00091818099
0.00085965493
0.00080655314
0.00075176543
0.00069286888
0.00063264479
0.00057326082
0.00051496981
0.00045735932
0.00040223514
0.00034697699
0.00030693669
0.00024466302
0.00037395524
-0.00020032166
0.0055567056
0.005515176
0.005460906
0.0053927389
0.0053094064
0.0052133701
0.0051084375
0.0049974143
0.0048820704
0.0047640219
0.0046450794
0.0045270724
0.0044117373
0.0043007887
0.0041959013
0.0040984912
0.0040094407
0.0039289258
0.0038564115
0.003790815
0.003730795
0.0036750489
0.0036224846
0.0035722544
0.0035237302
0.0034764861
0.003430284
0.0033850319
0.0033407169
0.0032973261
0.0032547866
0.0032129529
0.0031716247
0.0031305845
0.0030896647
0.0030488059
0.0030080719
0.002967621
0.0029276375
0.0028882766
0.002849632
0.0028117001
0.0027743868
0.0027375591
0.0027010962
0.0026648737
0.0026287195