/*--------------------------------*- C++ -*----------------------------------*\
  =========                 |
  \\      /  F ield         | OpenFOAM: The Open Source CFD Toolbox
   \\    /   O peration     | Website:  https://openfoam.org
    \\  /    A nd           | Version:  12
     \\/     M anipulation  |
\*---------------------------------------------------------------------------*/
FoamFile
{
    format      ascii;
    class       volVectorField;
    location    "1600";
    object      U;
}
// * * * * * * * * * * * * * * * * * * * * * * * * * * * * * * * * * * * * * //

dimensions      [0 1 -1 0 0 0 0];

internalField   nonuniform List<vector> 
13056
(
(1 2.3161445e-10 8.7655441e-25)
(0.99998258 8.1500688e-10 0)
(0.99994393 1.4275784e-09 0)
(0.99989463 1.9482873e-09 0)
(0.99983779 2.5101601e-09 0)
(0.99977395 3.1676572e-09 0)
(0.99970338 3.9427816e-09 0)
(0.99962623 4.8637552e-09 0)
(0.99954237 5.9718534e-09 0)
(0.99945142 7.318922e-09 0)
(0.99935272 8.9692211e-09 0)
(0.99924536 1.100731e-08 0)
(0.99912807 1.3547474e-08 0)
(0.99899913 1.6758004e-08 0)
(0.99885599 2.0864416e-08 0)
(0.99869532 2.6298784e-08 0)
(0.99851092 3.3456221e-08 0)
(0.9982972 4.4177418e-08 0)
(0.99803123 5.7766552e-08 0)
(0.99771819 8.7740369e-08 0)
(0.99721596 1.1507607e-07 0)
(0.99670321 3.2825028e-07 0)
(0.99448385 2.70327e-07 -2.5947892e-21)
(0.99447064 0.00011936094 2.7959801e-16)
(0.028575348 0.00012494885 0)
(0.014423016 4.6843941e-07 -9.8634159e-20)
(0.012905172 1.8965938e-07 1.6228092e-17)
(0.012408335 1.9927215e-08 1.7584607e-21)
(0.012093054 1.4141322e-08 0)
(0.011828995 1.2024013e-08 0)
(0.011596791 1.0544709e-08 0)
(0.011390019 9.3423993e-09 0)
(0.01120406 8.3634435e-09 0)
(0.011034968 7.5609535e-09 0)
(0.010879846 6.8869021e-09 0)
(0.010736599 6.3085551e-09 0)
(0.01060362 5.8056097e-09 0)
(0.010479605 5.3647291e-09 0)
(0.01036347 4.9753774e-09 0)
(0.010254315 4.6290177e-09 0)
(0.010151386 4.3189648e-09 0)
(0.01005404 4.0401037e-09 0)
(0.0099617169 3.788447e-09 0)
(0.0098739293 3.5601774e-09 0)
(0.0097902552 3.3526274e-09 0)
(0.0097103172 3.1629556e-09 0)
(0.0096337984 2.9889048e-09 0)
(0.0095604078 2.8292267e-09 0)
(0.0094898801 2.6819084e-09 0)
(0.0094219961 2.5455044e-09 0)
(0.0093565491 2.4193858e-09 0)
(0.0092933445 2.302305e-09 0)
(0.0092322191 2.1930992e-09 0)
(0.009173027 2.0912723e-09 0)
(0.0091156234 1.9963574e-09 0)
(0.0090598779 1.907359e-09 0)
(0.0090056844 1.8236641e-09 0)
(0.0089529398 1.745176e-09 0)
(0.0089015386 1.6714806e-09 0)
(0.0088513904 1.6018689e-09 0)
(0.008802421 1.5359794e-09 0)
(0.0087545562 1.4738088e-09 0)
(0.0087077177 1.4151287e-09 0)
(0.0086618372 1.3593896e-09 0)
(0.0086168617 1.3063137e-09 0)
(0.0085727364 1.2559585e-09 0)
(0.0085294024 1.2081755e-09 0)
(0.0084868064 1.1626525e-09 0)
(0.0084449048 1.1191191e-09 0)
(0.0084036578 1.0775316e-09 0)
(0.0083630227 1.0378734e-09 0)
(0.0083229553 1.0000369e-09 0)
(0.0082834163 9.6373376e-10 0)
(0.0082443769 9.2883677e-10 0)
(0.0082058051 8.9540979e-10 0)
(0.0081676651 8.6339564e-10 0)
(0.0081299232 8.3266082e-10 0)
(0.0080925509 8.0303231e-10 0)
(0.0080555247 7.7447008e-10 0)
(0.0080188179 7.4700657e-10 0)
(0.0079824003 7.2061664e-10 0)
(0.0079462432 6.9515567e-10 0)
(0.0079103257 6.705139e-10 0)
(0.0078746266 6.4671407e-10 0)
(0.0078391212 6.2376199e-10 0)
(0.0078037827 6.0163498e-10 0)
(0.0077685857 5.8020251e-10 0)
(0.0077335128 5.5939942e-10 0)
(0.0076985437 5.3927481e-10 0)
(0.0076636533 5.1982491e-10 0)
(0.0076288163 5.0100147e-10 0)
(0.0075940102 4.8271742e-10 0)
(0.0075592167 4.649459e-10 0)
(0.0075244147 4.4772373e-10 0)
(0.0074895769 4.3105984e-10 0)
(0.0074546764 4.1486748e-10 0)
(0.0074196938 3.9909185e-10 0)
(0.0073846076 3.8377118e-10 0)
(0.0073493891 3.6891815e-10 0)
(0.0073140085 3.5449218e-10 0)
(0.0072784393 3.4043587e-10 0)
(0.0072426574 3.2674619e-10 0)
(0.0072066326 3.1344994e-10 0)
(0.0071703296 3.0052658e-10 0)
(0.0071337156 2.8792255e-10 0)
(0.0070967614 2.7563311e-10 0)
(0.0070594294 2.6368733e-10 0)
(0.0070216758 2.5205952e-10 0)
(0.0069834607 2.4070778e-10 0)
(0.006944744 2.2964055e-10 0)
(0.0069054751 2.1888016e-10 0)
(0.0068655952 2.0836554e-10 0)
(0.0068250643 1.9816146e-10 0)
(0.0067847087 1.8852033e-10 0)
(0.0067458044 1.7956514e-10 0)
(0.0067087218 1.7128406e-10 0)
(0.0066733217 1.636473e-10 0)
(0.0066394708 1.5661132e-10 0)
(0.0066070484 1.5010225e-10 0)
(0.006575952 1.4405502e-10 0)
(0.0065460884 1.3844204e-10 0)
(0.0065173674 1.3323774e-10 0)
(0.0064897065 1.2838818e-10 0)
(0.0064630377 1.2384801e-10 0)
(0.006437298 1.1960286e-10 0)
(0.0064124258 1.1564158e-10 0)
(0.0063883626 1.1195706e-10 0)
(0.0063650501 1.0851438e-10 0)
(0.0063424441 1.0534117e-10 0)
(0.0063204744 1.0235638e-10 0)
(0.0062991339 9.9969854e-11 0)
(0.0062781722 9.7372805e-11 0)
(0.0062579464 9.7537326e-11 0)
(0.0062368747 3.5123121e-10 0)
(0.0062186085 1.1302843e-10 1.5772316e-22)
(0.0061881407 2.7563474e-10 0)
(1 6.9831857e-10 0)
(0.99998258 2.4574541e-09 0)
(0.99994392 4.3048979e-09 0)
(0.9998946 5.8755246e-09 0)
(0.99983773 7.5702687e-09 0)
(0.99977386 9.5533104e-09 0)
(0.99970324 1.1891014e-08 0)
(0.99962604 1.466849e-08 0)
(0.99954215 1.8010196e-08 0)
(0.99945115 2.2072449e-08 0)
(0.9993524 2.7048998e-08 0)
(0.99924498 3.3194789e-08 0)
(0.99912764 4.0854392e-08 0)
(0.99899865 5.0535198e-08 0)
(0.99885546 6.2917122e-08 0)
(0.99869473 7.930284e-08 0)
(0.99851028 1.0088357e-07 0)
(0.9982965 1.3320886e-07 0)
(0.99803047 1.7418067e-07 0)
(0.99771737 2.6455078e-07 0)
(0.99721506 3.4696307e-07 0)
(0.99670226 9.8963248e-07 0)
(0.99448294 8.1517847e-07 9.506522e-21)
(0.99446954 0.00035975146 -2.842083e-21)
(0.083699015 0.000367723 0)
(0.043484403 8.1859217e-06 0)
(0.038907722 1.0683874e-06 2.202669e-20)
(0.03741086 4.1977591e-07 0)
(0.036459129 2.9701122e-07 -2.1228692e-21)
(0.035662728 2.5212002e-07 0)
(0.034962632 2.2093211e-07 0)
(0.034339264 1.9576016e-07 0)
(0.033778627 1.7524401e-07 0)
(0.033268843 1.5841365e-07 0)
(0.032801186 1.4427985e-07 0)
(0.032369335 1.3215751e-07 0)
(0.031968442 1.2162087e-07 0)
(0.031594572 1.1238496e-07 0)
(0.031244455 1.042283e-07 0)
(0.030915382 9.6972133e-08 0)
(0.030605078 9.0476696e-08 0)
(0.030311608 8.4635539e-08 0)
(0.030033276 7.9362875e-08 0)
(0.029768619 7.4581949e-08 0)
(0.029516362 7.0233324e-08 0)
(0.029275369 6.6259942e-08 0)
(0.029044683 6.2615011e-08 0)
(0.028823427 5.9268696e-08 0)
(0.028610803 5.6182781e-08 0)
(0.028406148 5.3326339e-08 0)
(0.028208839 5.0683466e-08 0)
(0.028018291 4.8230582e-08 0)
(0.027834012 4.5943492e-08 0)
(0.02765556 4.3810503e-08 0)
(0.0274825 4.1821313e-08 0)
(0.027314438 3.9957141e-08 0)
(0.027151056 3.8204522e-08 0)
(0.026992041 3.6559957e-08 0)
(0.026837077 3.5015575e-08 0)
(0.02668589 3.355756e-08 0)
(0.026538256 3.2177752e-08 0)
(0.026393952 3.0875131e-08 0)
(0.026252743 2.9645325e-08 0)
(0.026114422 2.847783e-08 0)
(0.025978829 2.7366452e-08 0)
(0.025845799 2.6311347e-08 0)
(0.025715155 2.5310083e-08 0)
(0.025586735 2.4356341e-08 0)
(0.02546041 2.3444678e-08 0)
(0.025336057 2.2573508e-08 0)
(0.025213549 2.1742605e-08 0)
(0.025092752 2.094968e-08 0)
(0.024973549 2.0189296e-08 0)
(0.024855852 1.9458516e-08 0)
(0.024739564 1.8758116e-08 0)
(0.024624578 1.8087339e-08 0)
(0.024510792 1.744336e-08 0)
(0.024398121 1.6822831e-08 0)
(0.024286493 1.6224571e-08 0)
(0.024175827 1.5649177e-08 0)
(0.024066034 1.5096179e-08 0)
(0.023957026 1.4562791e-08 0)
(0.023848741 1.4046739e-08 0)
(0.023741113 1.354813e-08 0)
(0.02363407 1.306728e-08 0)
(0.02352753 1.2603604e-08 0)
(0.023421416 1.2154663e-08 0)
(0.023315676 1.1718986e-08 0)
(0.02321025 1.1297335e-08 0)
(0.02310506 1.0889835e-08 0)
(0.023000032 1.0495439e-08 0)
(0.022895097 1.0112467e-08 0)
(0.022790199 9.7402148e-09 0)
(0.022685276 9.379402e-09 0)
(0.022580245 9.0302213e-09 0)
(0.022475025 8.691022e-09 0)
(0.022369558 8.3606134e-09 0)
(0.022263777 8.0396324e-09 0)
(0.022157599 7.7284382e-09 0)
(0.022050931 7.4262082e-09 0)
(0.021943695 7.1317805e-09 0)
(0.021835817 6.8450089e-09 0)
(0.021727207 6.5664321e-09 0)
(0.021617759 6.2956797e-09 0)
(0.021507373 6.0316611e-09 0)
(0.02139596 5.7742251e-09 0)
(0.02128341 5.5239404e-09 0)
(0.021169587 5.2803431e-09 0)
(0.021054374 5.0425575e-09 0)
(0.020937648 4.8107079e-09 0)
(0.020819257 4.5852661e-09 0)
(0.020699025 4.3649899e-09 0)
(0.020576829 4.1512721e-09 0)
(0.020455162 3.9493024e-09 0)
(0.020337871 3.7616749e-09 0)
(0.020226071 3.5881996e-09 0)
(0.020119345 3.4282158e-09 0)
(0.020017289 3.2808079e-09 0)
(0.019919539 3.1444525e-09 0)
(0.019825787 3.0177789e-09 0)
(0.019735752 2.9001873e-09 0)
(0.019649162 2.7911468e-09 0)
(0.019565768 2.6895519e-09 0)
(0.019485365 2.594448e-09 0)
(0.019407763 2.5055057e-09 0)
(0.019332777 2.4225104e-09 0)
(0.01926023 2.3453019e-09 0)
(0.019189946 2.2731612e-09 0)
(0.019121792 2.2066802e-09 0)
(0.019055557 2.144048e-09 0)
(0.018991219 2.094096e-09 0)
(0.018928025 2.0390499e-09 0)
(0.018867048 2.044083e-09 0)
(0.018803536 1.9774539e-09 0)
(0.018748466 2.4048445e-09 -2.422542e-22)
(0.018656608 1.5422354e-09 3.7105375e-23)
(1 1.1754572e-09 0)
(0.99998258 4.136858e-09 0)
(0.99994391 7.247408e-09 0)
(0.99989457 9.892231e-09 0)
(0.99983766 1.2745993e-08 0)
(0.99977375 1.6085023e-08 0)
(0.99970309 2.0021065e-08 0)
(0.99962585 2.4697418e-08 0)
(0.9995419 3.0323589e-08 0)
(0.99945084 3.7162714e-08 0)
(0.99935204 4.5540924e-08 0)
(0.99924457 5.5887364e-08 0)
(0.99912717 6.8782035e-08 0)
(0.99899812 8.5079001e-08 0)
(0.99885486 1.0592272e-07 0)
(0.99869408 1.3350591e-07 0)
(0.99850956 1.6983362e-07 0)
(0.99829572 2.2424704e-07 0)
(0.99802963 2.9321448e-07 0)
(0.99771646 4.4533007e-07 0)
(0.99721408 5.8405349e-07 0)
(0.99670122 1.6657294e-06 0)
(0.99448199 1.3723604e-06 -4.9733433e-21)
(0.99446839 0.0005880029 9.7866823e-55)
(0.13762416 0.00060778675 -8.2312701e-54)
(0.073194237 2.2837916e-05 0)
(0.06548868 3.0524383e-06 -1.1641846e-20)
(0.06296962 1.2192514e-06 0)
(0.061366119 8.6290562e-07 0)
(0.060025338 7.3206311e-07 0)
(0.058847012 6.4140156e-07 0)
(0.057797889 5.6832002e-07 0)
(0.05685432 5.0876231e-07 0)
(0.055996342 4.5989631e-07 0)
(0.05520927 4.1885904e-07 0)
(0.054482468 3.8366409e-07 0)
(0.053807768 3.5307518e-07 0)
(0.053178544 3.262629e-07 0)
(0.052589297 3.0258371e-07 0)
(0.052035466 2.8151857e-07 0)
(0.051513221 2.6266201e-07 0)
(0.051019305 2.4570505e-07 0)
(0.050550867 2.3039816e-07 0)
(0.050105442 2.1651918e-07 0)
(0.049680886 2.0389474e-07 0)
(0.049275287 1.9235986e-07 0)
(0.048887033 1.8177878e-07 0)
(0.04851465 1.7206387e-07 0)
(0.048156794 1.6310534e-07 0)
(0.047812349 1.5481325e-07 0)
(0.047480268 1.4714055e-07 0)
(0.047159565 1.4001956e-07 0)
(0.046849411 1.3338021e-07 0)
(0.046549065 1.2718802e-07 0)
(0.046257794 1.2141295e-07 0)
(0.045974936 1.1600117e-07 0)
(0.045699951 1.1091342e-07 0)
(0.045432317 1.0613898e-07 0)
(0.045171501 1.0165527e-07 0)
(0.044917042 9.7422607e-08 0)
(0.044668562 9.3417083e-08 0)
(0.044425687 8.9635348e-08 0)
(0.04418802 8.6064882e-08 0)
(0.043955214 8.2675581e-08 0)
(0.043726999 7.9449311e-08 0)
(0.043503097 7.6386154e-08 0)
(0.04328321 7.3479237e-08 0)
(0.043067069 7.071038e-08 0)
(0.04285445 6.8063826e-08 0)
(0.042645152 6.5534743e-08 0)
(0.042438959 6.3122462e-08 0)
(0.042235646 6.0820389e-08 0)
(0.042035015 5.8612942e-08 0)
(0.041836918 5.6491493e-08 0)
(0.041641194 5.4458099e-08 0)
(0.04144766 5.2510676e-08 0)
(0.041256147 5.0641073e-08 0)
(0.041066509 4.8839649e-08 0)
(0.040878626 4.7102859e-08 0)
(0.040692364 4.5432374e-08 0)
(0.040507569 4.3826876e-08 0)
(0.040324097 4.2278369e-08 0)
(0.04014184 4.0780255e-08 0)
(0.03996069 3.9332719e-08 0)
(0.039780523 3.7936711e-08 0)
(0.039601204 3.6590538e-08 0)
(0.039422602 3.5287211e-08 0)
(0.039244629 3.4022421e-08 0)
(0.039067183 3.2798287e-08 0)
(0.038890136 3.161522e-08 0)
(0.038713361 3.0470206e-08 0)
(0.038536741 2.9358398e-08 0)
(0.038360186 2.8277711e-08 0)
(0.038183586 2.7230199e-08 0)
(0.038006806 2.6216436e-08 0)
(0.037829707 2.523169e-08 0)
(0.037652192 2.4272486e-08 0)
(0.037474149 2.3340617e-08 0)
(0.037295436 2.2437149e-08 0)
(0.037115901 2.1559716e-08 0)
(0.036935408 2.0704955e-08 0)
(0.036753835 1.9872413e-08 0)
(0.036571029 1.9063643e-08 0)
(0.036386812 1.8277592e-08 0)
(0.036201018 1.7511108e-08 0)
(0.036013495 1.676373e-08 0)
(0.035824056 1.6037097e-08 0)
(0.035632477 1.5329886e-08 0)
(0.035438557 1.4639559e-08 0)
(0.03524209 1.3966455e-08 0)
(0.035042821 1.3311947e-08 0)
(0.034840453 1.2672443e-08 0)
(0.03463478 1.2051993e-08 0)
(0.034429996 1.1465634e-08 0)
(0.034232577 1.0920905e-08 0)
(0.034044402 1.0417274e-08 0)
(0.033864765 9.9528079e-09 0)
(0.033692989 9.5248508e-09 0)
(0.033528462 9.1289855e-09 0)
(0.033370664 8.7612305e-09 0)
(0.033219121 8.4198366e-09 0)
(0.033073376 8.1032638e-09 0)
(0.032933012 7.8083125e-09 0)
(0.032797681 7.5322091e-09 0)
(0.032667065 7.2739877e-09 0)
(0.032540852 7.0330289e-09 0)
(0.032418744 6.8088665e-09 0)
(0.032300446 6.5994178e-09 0)
(0.032185733 6.4063973e-09 0)
(0.032074251 6.2245328e-09 0)
(0.031965961 6.0794651e-09 0)
(0.031859601 5.9195173e-09 0)
(0.031756968 5.9339904e-09 0)
(0.031650088 5.6474158e-09 0)
(0.031557396 6.989183e-09 0)
(0.031402786 4.3951092e-09 0)
(1 1.6701498e-09 1.8780453e-24)
(0.99998258 5.878343e-09 0)
(0.99994389 1.029925e-08 0)
(0.99989453 1.4058795e-08 0)
(0.99983759 1.8115241e-08 0)
(0.99977363 2.2861156e-08 0)
(0.99970292 2.8455374e-08 0)
(0.99962562 3.510155e-08 0)
(0.99954162 4.3097389e-08 0)
(0.99945051 5.2816779e-08 0)
(0.99935164 6.4723111e-08 0)
(0.9992441 7.9426142e-08 0)
(0.99912664 9.774996e-08 0)
(0.99899753 1.2090806e-07 0)
(0.99885421 1.505265e-07 0)
(0.99869335 1.8972078e-07 0)
(0.99850877 2.4133966e-07 0)
(0.99829486 3.1865538e-07 0)
(0.99802869 4.166496e-07 0)
(0.99771545 6.3278283e-07 0)
(0.99721298 8.2988957e-07 0)
(0.99670006 2.3666305e-06 0)
(0.99448098 1.9500589e-06 0)
(0.99446718 0.00080934281 -5.1013123e-55)
(0.19103386 0.00085034543 4.2748453e-54)
(0.10397871 4.5560976e-05 0)
(0.093037894 6.2932095e-06 0)
(0.089457743 2.5123789e-06 0)
(0.087177772 1.7782382e-06 0)
(0.085272889 1.5079495e-06 0)
(0.08359927 1.3210292e-06 0)
(0.08210924 1.1705026e-06 0)
(0.080769083 1.0478472e-06 0)
(0.079550484 9.4719787e-07 0)
(0.078432599 8.6267198e-07 0)
(0.077400317 7.9018291e-07 0)
(0.076442031 7.2718396e-07 0)
(0.075548329 6.7196396e-07 0)
(0.074711398 6.2319628e-07 0)
(0.073924766 5.7981206e-07 0)
(0.073182993 5.4097657e-07 0)
(0.072481452 5.060535e-07 0)
(0.071816095 4.7452839e-07 0)
(0.071183421 4.459445e-07 0)
(0.070580386 4.1994377e-07 0)
(0.070004273 3.9618727e-07 0)
(0.069452793 3.7439548e-07 0)
(0.068923855 3.5438664e-07 0)
(0.06841555 3.3593609e-07 0)
(0.06792629 3.1885849e-07 0)
(0.067454591 3.0305573e-07 0)
(0.066999052 2.8838939e-07 0)
(0.066558496 2.7471551e-07 0)
(0.066131868 2.6196224e-07 0)
(0.06571813 2.5006759e-07 0)
(0.065316342 2.3892167e-07 0)
(0.064925735 2.2844336e-07 0)
(0.064545568 2.1860977e-07 0)
(0.064175084 2.0937481e-07 0)
(0.063813631 2.0065735e-07 0)
(0.063460669 1.9240785e-07 0)
(0.063115667 1.8461882e-07 0)
(0.062778063 1.7726474e-07 0)
(0.062447364 1.7028418e-07 0)
(0.062123184 1.6363958e-07 0)
(0.06180513 1.5733055e-07 0)
(0.06149278 1.5134319e-07 0)
(0.061185749 1.4564035e-07 0)
(0.060883722 1.401896e-07 0)
(0.060586409 1.3498068e-07 0)
(0.060293508 1.3001216e-07 0)
(0.060004698 1.2527057e-07 0)
(0.059719697 1.207241e-07 0)
(0.059438294 1.1635483e-07 0)
(0.05916026 1.1216672e-07 0)
(0.058885339 1.0815561e-07 0)
(0.058613287 1.0430483e-07 0)
(0.058343899 1.0059461e-07 0)
(0.058077003 9.70175e-08 0)
(0.057812409 9.3576832e-08 0)
(0.057549899 9.0269959e-08 0)
(0.057289268 8.7080564e-08 0)
(0.057030362 8.399505e-08 0)
(0.056773028 8.1013626e-08 0)
(0.05651709 7.8138275e-08 0)
(0.056262356 7.5365537e-08 0)
(0.056008641 7.2681145e-08 0)
(0.05575582 7.0076169e-08 0)
(0.055503745 6.7554837e-08 0)
(0.055252237 6.5118063e-08 0)
(0.055001114 6.2759678e-08 0)
(0.054750214 6.0469749e-08 0)
(0.054499403 5.8243915e-08 0)
(0.054248529 5.6086359e-08 0)
(0.053997398 5.3998281e-08 0)
(0.053745815 5.1970027e-08 0)
(0.053493638 4.9994414e-08 0)
(0.053240713 4.8075048e-08 0)
(0.052986835 4.6214157e-08 0)
(0.052731789 4.4406909e-08 0)
(0.052475381 4.2646389e-08 0)
(0.052217439 4.0931619e-08 0)
(0.051957745 3.9265781e-08 0)
(0.051696046 3.7646744e-08 0)
(0.051432105 3.6068034e-08 0)
(0.05116571 3.452867e-08 0)
(0.050896591 3.3032007e-08 0)
(0.050624432 3.157536e-08 0)
(0.050348946 3.0153502e-08 0)
(0.050069843 2.8767106e-08 0)
(0.049786758 2.7418997e-08 0)
(0.04949927 2.6101808e-08 0)
(0.049207086 2.4823881e-08 0)
(0.048916165 2.3616149e-08 0)
(0.048635706 2.249415e-08 0)
(0.048368379 2.1456813e-08 0)
(0.048113181 2.0500158e-08 0)
(0.047869151 1.9618668e-08 0)
(0.047635419 1.8803299e-08 0)
(0.047411245 1.8045832e-08 0)
(0.047195958 1.7342653e-08 0)
(0.046988908 1.6690591e-08 0)
(0.0467895 1.6083071e-08 0)
(0.046597244 1.5514377e-08 0)
(0.046411686 1.4982507e-08 0)
(0.046232382 1.4486187e-08 0)
(0.046058911 1.4024457e-08 0)
(0.045890852 1.3593034e-08 0)
(0.045727887 1.3195441e-08 0)
(0.045569511 1.2820808e-08 0)
(0.045415672 1.2521901e-08 0)
(0.045264578 1.2192311e-08 0)
(0.045118775 1.2221759e-08 0)
(0.044966966 1.1641363e-08 0)
(0.044835283 1.44036e-08 0)
(0.044615634 9.0501842e-09 0)
(1 2.1897729e-09 0)
(0.99998258 7.7079264e-09 0)
(0.99994388 1.3506113e-08 0)
(0.99989449 1.84377e-08 0)
(0.99983751 2.3758608e-08 0)
(0.9997735 2.9983462e-08 0)
(0.99970274 3.7320598e-08 0)
(0.99962538 4.6037105e-08 0)
(0.99954131 5.652335e-08 0)
(0.99945013 6.926956e-08 0)
(0.99935119 8.4883313e-08 0)
(0.99924359 1.0416408e-07 0)
(0.99912606 1.2819233e-07 0)
(0.99899687 1.585591e-07 0)
(0.99885347 1.9739633e-07 0)
(0.99869254 2.4878873e-07 0)
(0.99850788 3.1647126e-07 0)
(0.99829389 4.1784521e-07 0)
(0.99802764 5.4633031e-07 0)
(0.99771432 8.2970789e-07 0)
(0.99721176 1.0881363e-06 0)
(0.99669876 3.1027619e-06 0)
(0.99447992 2.5568722e-06 0)
(0.99446591 0.0010268941 0)
(0.24444813 0.0010950261 0)
(0.1362666 7.6350718e-05 0)
(0.12194748 1.0916488e-05 0)
(0.11724993 4.3591481e-06 3.4701236e-21)
(0.11425975 3.0849397e-06 0)
(0.11176377 2.6149307e-06 0)
(0.10957143 2.290511e-06 0)
(0.10761966 2.029507e-06 0)
(0.10586412 1.8168634e-06 0)
(0.10426777 1.6423483e-06 0)
(0.10280335 1.4957858e-06 0)
(0.10145105 1.3700988e-06 0)
(0.10019567 1.2608713e-06 0)
(0.099024868 1.1651319e-06 0)
(0.097928423 1.0805786e-06 0)
(0.096897856 1.0053585e-06 0)
(0.095926044 9.3802482e-07 0)
(0.095006928 8.7747457e-07 0)
(0.094135205 8.228151e-07 0)
(0.093306291 7.7325548e-07 0)
(0.092516198 7.2817371e-07 0)
(0.091761371 6.8698333e-07 0)
(0.091038809 6.4919977e-07 0)
(0.090345775 6.1450614e-07 0)
(0.089679767 5.8251503e-07 0)
(0.089038708 5.5290493e-07 0)
(0.08842065 5.2550395e-07 0)
(0.087823764 5.0007355e-07 0)
(0.087246503 4.763647e-07 0)
(0.086687487 4.5425153e-07 0)
(0.086145357 4.3362637e-07 0)
(0.085618883 4.1430019e-07 0)
(0.085107054 3.9613193e-07 0)
(0.0846089 3.7908072e-07 0)
(0.084123434 3.6306717e-07 0)
(0.083649798 3.4795164e-07 0)
(0.083187285 3.3364772e-07 0)
(0.082735198 3.2014155e-07 0)
(0.082292804 3.0738924e-07 0)
(0.081859457 2.9528522e-07 0)
(0.081434648 2.8376397e-07 0)
(0.081017864 2.7282404e-07 0)
(0.080608553 2.6244164e-07 0)
(0.080206211 2.5255283e-07 0)
(0.079810423 2.4310146e-07 0)
(0.079420812 2.3406925e-07 0)
(0.079036978 2.2545358e-07 0)
(0.078658505 2.1723132e-07 0)
(0.078285022 2.0934775e-07 0)
(0.077916252 2.0177156e-07 0)
(0.077551895 1.9450917e-07 0)
(0.077191616 1.8755359e-07 0)
(0.076835096 1.8087611e-07 0)
(0.076482066 1.7444257e-07 0)
(0.076132299 1.6823981e-07 0)
(0.075785546 1.6227345e-07 0)
(0.075441525 1.56539e-07 0)
(0.075099964 1.5100841e-07 0)
(0.074760662 1.4565809e-07 0)
(0.074423419 1.4048814e-07 0)
(0.074088005 1.3550201e-07 0)
(0.073754167 1.3069379e-07 0)
(0.073421664 1.260389e-07 0)
(0.073090329 1.2152179e-07 0)
(0.072759972 1.1714958e-07 0)
(0.072430357 1.1292394e-07 0)
(0.072101246 1.0883426e-07 0)
(0.071772424 1.0486338e-07 0)
(0.071443718 1.0100364e-07 0)
(0.071114929 9.7262206e-08 0)
(0.070785802 9.3641204e-08 0)
(0.070456081 9.0124027e-08 0)
(0.070125581 8.6698181e-08 0)
(0.069794098 8.3369792e-08 0)
(0.069461366 8.0142761e-08 0)
(0.069127101 7.700878e-08 0)
(0.068791051 7.3955875e-08 0)
(0.068452988 7.0982282e-08 0)
(0.068112629 6.8093493e-08 0)
(0.06776964 6.5285868e-08 0)
(0.067423712 6.2548212e-08 0)
(0.067074565 5.9878773e-08 0)
(0.066721848 5.7283342e-08 0)
(0.066365145 5.4757316e-08 0)
(0.06600408 5.229164e-08 0)
(0.065638273 4.9887437e-08 0)
(0.065267246 4.7549605e-08 0)
(0.064890446 4.5265413e-08 0)
(0.06450749 4.3049332e-08 0)
(0.064126188 4.0954943e-08 0)
(0.063758597 3.9009204e-08 0)
(0.063408218 3.7210298e-08 0)
(0.063073733 3.5551304e-08 0)
(0.062753886 3.4022653e-08 0)
(0.062447535 3.2608673e-08 0)
(0.062153711 3.129511e-08 0)
(0.061871534 3.0075673e-08 0)
(0.061600153 2.8944873e-08 0)
(0.061338789 2.7891328e-08 0)
(0.061086797 2.6905118e-08 0)
(0.060843584 2.5982753e-08 0)
(0.060608568 2.5122028e-08 0)
(0.060381197 2.4321279e-08 0)
(0.06016092 2.3573092e-08 0)
(0.059947319 2.2883549e-08 0)
(0.059739734 2.2233808e-08 0)
(0.059538095 2.1715242e-08 0)
(0.059340061 2.1143528e-08 0)
(0.059148955 2.1193735e-08 0)
(0.058950016 2.019578e-08 0)
(0.058777414 2.4986667e-08 -3.118558e-22)
(0.058489509 1.5691356e-08 4.7767215e-23)
(1 2.7420784e-09 0)
(0.99998258 9.6529784e-09 0)
(0.99994386 1.6916119e-08 0)
(0.99989444 2.3094821e-08 0)
(0.99983741 2.9761108e-08 0)
(0.99977335 3.7559292e-08 0)
(0.99970252 4.6750368e-08 0)
(0.9996251 5.7668894e-08 0)
(0.99954096 7.0803744e-08 0)
(0.9994497 8.6768816e-08 0)
(0.99935069 1.0632495e-07 0)
(0.99924301 1.3047325e-07 0)
(0.99912539 1.6056673e-07 0)
(0.99899612 1.9859767e-07 0)
(0.99885264 2.4723568e-07 0)
(0.99869163 3.1159565e-07 0)
(0.99850689 3.9635437e-07 0)
(0.99829281 5.2330175e-07 0)
(0.99802647 6.8419701e-07 0)
(0.99771305 1.0390486e-06 0)
(0.99721038 1.3626452e-06 0)
(0.9966973 3.8850703e-06 0)
(0.99447877 3.2018533e-06 0)
(0.99446461 0.0012422898 0)
(0.2982144 0.0013454034 0)
(0.17047362 0.00011601658 0)
(0.1526047 1.7176127e-05 0)
(0.14671588 6.8667574e-06 0)
(0.14297375 4.8573313e-06 0)
(0.13985336 4.1154047e-06 0)
(0.13711337 3.6043921e-06 0)
(0.13467406 3.193684e-06 0)
(0.13247982 2.8591331e-06 0)
(0.13048446 2.5845304e-06 0)
(0.12865393 2.3539022e-06 0)
(0.1269635 2.1561286e-06 0)
(0.12539416 1.9842605e-06 0)
(0.1239305 1.8336162e-06 0)
(0.12255974 1.7005707e-06 0)
(0.1212713 1.5822089e-06 0)
(0.12005627 1.4762559e-06 0)
(0.1189071 1.3809761e-06 0)
(0.11781715 1.2949644e-06 0)
(0.1167807 1.2169776e-06 -6.2124813e-33)
(0.11579276 1.1460353e-06 0)
(0.1148489 1.0812165e-06 0)
(0.11394536 1.021759e-06 0)
(0.11307873 9.6716154e-07 0)
(0.11224588 9.1681759e-07 0)
(0.11144421 8.7022111e-07 0)
(0.11067128 8.2709901e-07 0)
(0.10992483 7.87078e-07 0)
(0.1092029 7.4976721e-07 0)
(0.10850377 7.1496657e-07 0)
(0.10782576 6.8250645e-07 0)
(0.10716731 6.5209156e-07 0)
(0.10652717 6.2349944e-07 0)
(0.10590412 5.9666386e-07 0)
(0.10529694 5.7146079e-07 0)
(0.10470454 5.4767202e-07 0)
(0.10412605 5.251608e-07 0)
(0.10356059 5.0390395e-07 0)
(0.10300725 4.8383302e-07 0)
(0.10246521 4.6478327e-07 0)
(0.10193385 4.4665105e-07 0)
(0.10141252 4.2943283e-07 0)
(0.10090054 4.1309163e-07 0)
(0.10039726 3.9752767e-07 0)
(0.099902182 3.826526e-07 0)
(0.099414821 3.6843694e-07 0)
(0.098934681 3.5487637e-07 0)
(0.098461244 3.4193484e-07 0)
(0.097994045 3.2952686e-07 0)
(0.097532735 3.1760284e-07 0)
(0.097076942 3.0617219e-07 0)
(0.096626246 2.9522419e-07 0)
(0.096180249 2.8471403e-07 0)
(0.095738612 2.7458813e-07 0)
(0.095301054 2.6482539e-07 0)
(0.094867263 2.5543439e-07 0)
(0.094436886 2.4640826e-07 0)
(0.094009584 2.3770322e-07 0)
(0.093585104 2.2928208e-07 0)
(0.093163196 2.2114466e-07 0)
(0.092743571 2.1329637e-07 0)
(0.092325916 2.0572803e-07 0)
(0.091909928 1.9840126e-07 0)
(0.091495398 1.9129142e-07 0)
(0.091082087 1.8440943e-07 0)
(0.090669702 1.7775804e-07 0)
(0.090257944 1.7132068e-07 0)
(0.089846545 1.6507045e-07 0)
(0.089435288 1.5899514e-07 0)
(0.089023923 1.5310588e-07 0)
(0.088612132 1.4740611e-07 0)
(0.088199596 1.4186989e-07 0)
(0.087786081 1.3647749e-07 0)
(0.087371334 1.3123836e-07 0)
(0.086955019 1.261587e-07 0)
(0.086536785 1.2122554e-07 0)
(0.086116313 1.1642006e-07 0)
(0.08569332 1.1173938e-07 0)
(0.08526745 1.0719211e-07 0)
(0.084838287 1.027726e-07 0)
(0.084405443 9.8463271e-08 0)
(0.083968567 9.4261298e-08 0)
(0.083527221 9.0175752e-08 0)
(0.083080886 8.6199469e-08 0)
(0.082629088 8.2318211e-08 0)
(0.082171351 7.8533678e-08 0)
(0.081707081 7.4853577e-08 0)
(0.081235583 7.125794e-08 0)
(0.080756378 6.776955e-08 0)
(0.080279238 6.4472661e-08 0)
(0.079819252 6.1409727e-08 0)
(0.0793808 5.8577952e-08 0)
(0.078962237 5.5966401e-08 0)
(0.078561987 5.3560042e-08 0)
(0.078178624 5.1334192e-08 0)
(0.077810933 4.926642e-08 0)
(0.077457818 4.7346791e-08 0)
(0.077118209 4.5566675e-08 0)
(0.076791135 4.3908188e-08 0)
(0.076475788 4.2355708e-08 0)
(0.076171424 4.0903707e-08 0)
(0.075877319 3.9548724e-08 0)
(0.075592778 3.8288137e-08 0)
(0.075317116 3.7110299e-08 0)
(0.075049807 3.6024742e-08 0)
(0.074790028 3.5001827e-08 0)
(0.074537688 3.4185131e-08 0)
(0.074289868 3.3284985e-08 0)
(0.074050709 3.3362404e-08 0)
(0.073801798 3.1791092e-08 0)
(0.07358579 3.9343732e-08 0)
(0.07322548 2.469235e-08 -2.7236088e-23)
(1 3.3353082e-09 0)
(0.99998258 1.1742629e-08 0)
(0.99994384 2.0580539e-08 0)
(0.99989438 2.8100405e-08 0)
(0.99983731 3.6213442e-08 0)
(0.99977318 4.5703199e-08 0)
(0.99970229 5.6887286e-08 0)
(0.99962479 7.0172778e-08 0)
(0.99954056 8.6154381e-08 0)
(0.99944923 1.0557884e-07 0)
(0.99935013 1.2937162e-07 0)
(0.99924235 1.5875042e-07 0)
(0.99912465 1.9536096e-07 0)
(0.99899529 2.416265e-07 0)
(0.99885172 3.0079415e-07 0)
(0.99869061 3.7908526e-07 0)
(0.99850576 4.8218812e-07 0)
(0.99829159 6.3660631e-07 0)
(0.99802514 8.3231511e-07 0)
(0.99771162 1.263937e-06 0)
(0.99720884 1.6575288e-06 0)
(0.99669567 4.7251667e-06 0)
(0.99447755 3.8946119e-06 0)
(0.99446327 0.0014563776 0)
(0.35248446 0.0016033458 0)
(0.20698189 0.00016594205 0)
(0.18537146 2.5431134e-05 0)
(0.17820394 1.0185214e-05 -9.1109126e-21)
(0.17366232 7.1983923e-06 7.1536073e-21)
(0.16987995 6.0958105e-06 0)
(0.16655963 5.3382632e-06 0)
(0.16360358 4.73008e-06 0)
(0.16094416 4.2347647e-06 0)
(0.15852554 3.828138e-06 0)
(0.15630655 3.4866072e-06 0)
(0.15425724 3.1937325e-06 0)
(0.15235458 2.9392254e-06 0)
(0.15057991 2.7161449e-06 0)
(0.14891778 2.5191188e-06 0)
(0.14735536 2.3438322e-06 0)
(0.14588188 2.1869191e-06 0)
(0.14448818 2.0458096e-06 0)
(0.14316624 1.9184229e-06 0)
(0.14190912 1.8029196e-06 6.6690728e-33)
(0.14071078 1.697846e-06 0)
(0.13956586 1.6018412e-06 0)
(0.1384698 1.5137762e-06 0)
(0.13741846 1.4329057e-06 0)
(0.13640807 1.3583356e-06 0)
(0.13543546 1.2893165e-06 0)
(0.1344977 1.2254402e-06 0)
(0.13359202 1.166157e-06 0)
(0.13271607 1.1108894e-06 0)
(0.13186777 1.0593383e-06 0)
(0.13104505 1.0112521e-06 0)
(0.13024605 9.6619672e-07 0)
(0.12946925 9.2384197e-07 0)
(0.12871317 8.8408696e-07 0)
(0.12797631 8.467493e-07 0)
(0.12725739 8.1150812e-07 0)
(0.12655532 7.7815974e-07 0)
(0.12586905 7.4666776e-07 0)
(0.12519747 7.1693176e-07 0)
(0.1245396 6.8870979e-07 0)
(0.12389467 6.6184752e-07 0)
(0.1232619 6.3633788e-07 0)
(0.12264046 6.1212678e-07 0)
(0.12202958 5.8906769e-07 0)
(0.12142863 5.6702975e-07 0)
(0.12083704 5.4596826e-07 0)
(0.12025421 5.2587646e-07 0)
(0.1196795 5.0670154e-07 0)
(0.11911236 4.8831782e-07 0)
(0.11855235 4.7065128e-07 0)
(0.11799903 4.5371492e-07 0)
(0.11745188 4.3749323e-07 0)
(0.11691043 4.2192044e-07 0)
(0.11637427 4.0691735e-07 0)
(0.11584305 3.9245221e-07 0)
(0.11531639 3.7853733e-07 0)
(0.11479387 3.6516278e-07 0)
(0.11427508 3.522643e-07 0)
(0.1137597 3.3978669e-07 0)
(0.11324743 3.2772915e-07 0)
(0.11273793 3.1609968e-07 0)
(0.11223082 3.0488489e-07 0)
(0.11172572 2.9402833e-07 0)
(0.11122238 2.8349331e-07 0)
(0.11072052 2.7329555e-07 0)
(0.11021977 2.6343927e-07 0)
(0.10971978 2.5390018e-07 0)
(0.10922021 2.4463853e-07 0)
(0.10872081 2.3563605e-07 0)
(0.10822127 2.26909e-07 0)
(0.10772121 2.1846258e-07 0)
(0.10722023 2.1025868e-07 0)
(0.10671806 2.0226798e-07 0)
(0.10621438 1.9450418e-07 0)
(0.10570879 1.8697654e-07 0)
(0.10520087 1.7966606e-07 0)
(0.10469022 1.7254484e-07 0)
(0.1041765 1.6560849e-07 0)
(0.10365928 1.5886967e-07 0)
(0.10313805 1.5232018e-07 0)
(0.10261234 1.4593404e-07 0)
(0.10208173 1.3970692e-07 0)
(0.10154568 1.3365222e-07 0)
(0.10100356 1.2775945e-07 0)
(0.1004548 1.2200752e-07 0)
(0.099898819 1.1639886e-07 0)
(0.099334893 1.1094488e-07 0)
(0.098762179 1.0561611e-07 0)
(0.098180094 1.004463e-07 0)
(0.097600508 9.5560205e-08 0)
(0.09704175 9.1020758e-08 0)
(0.096509144 8.6823915e-08 0)
(0.09600069 8.2953443e-08 0)
(0.095514476 7.9387028e-08 0)
(0.09504877 7.6088155e-08 0)
(0.094602098 7.3023564e-08 0)
(0.094173127 7.0178486e-08 0)
(0.09376056 6.7540145e-08 0)
(0.093363216 6.5082088e-08 0)
(0.092980115 6.278115e-08 0)
(0.092610354 6.0629097e-08 0)
(0.092253053 5.8620801e-08 0)
(0.091907369 5.6752387e-08 0)
(0.091572469 5.500662e-08 0)
(0.091247716 5.3397565e-08 0)
(0.090932109 5.1881339e-08 0)
(0.090625539 5.0670299e-08 0)
(0.090324468 4.9336005e-08 0)
(0.090033907 4.9448067e-08 0)
(0.089731562 4.7116853e-08 -4.2051599e-23)
(0.089469123 5.8325769e-08 0)
(0.089031352 3.6589502e-08 0)
(1 3.9783179e-09 0)
(0.99998257 1.4008208e-08 0)
(0.99994382 2.4554575e-08 0)
(0.99989432 3.3530158e-08 0)
(0.99983719 4.321341e-08 0)
(0.999773 5.4538726e-08 0)
(0.99970202 6.7885145e-08 0)
(0.99962443 8.3738409e-08 0)
(0.99954012 1.0280797e-07 0)
(0.99944869 1.2598458e-07 0)
(0.99934949 1.5437215e-07 0)
(0.99924162 1.8942316e-07 0)
(0.99912381 2.3310058e-07 0)
(0.99899434 2.8829483e-07 0)
(0.99885067 3.5887893e-07 0)
(0.99868945 4.5227349e-07 0)
(0.9985045 5.7526308e-07 0)
(0.99829021 7.5946025e-07 0)
(0.99802365 9.9290626e-07 0)
(0.99771001 1.5077404e-06 0)
(0.99720709 1.977198e-06 0)
(0.99669382 5.6355188e-06 0)
(0.99447624 4.645462e-06 0)
(0.9944619 0.0016694961 -1.3460209e-54)
(0.40718836 0.0018703255 1.0639423e-53)
(0.24609951 0.00022720451 -5.9499091e-19)
(0.22054819 3.6139411e-05 0)
(0.21200844 1.4507787e-05 -1.0637391e-20)
(0.20661827 1.0239868e-05 0)