/*--------------------------------*- C++ -*----------------------------------*\
  =========                 |
  \\      /  F ield         | OpenFOAM: The Open Source CFD Toolbox
   \\    /   O peration     | Website:  https://openfoam.org
    \\  /    A nd           | Version:  12
     \\/     M anipulation  |
\*---------------------------------------------------------------------------*/
FoamFile
{
    format      ascii;
    class       volScalarField;
    location    "1600";
    object      yPlus;
}
// * * * * * * * * * * * * * * * * * * * * * * * * * * * * * * * * * * * * * //

dimensions      [];

internalField   uniform 0;

boundaryField
{
    inlet
    {
        type            calculated;
        value           uniform 0;
    }
    top
    {
        type            calculated;
        value           uniform 0;
    }
    outlet
    {
        type            calculated;
        value           uniform 0;
    }
    slipsurface
    {
        type            calculated;
        value           uniform 0;
    }
    bottom
    {
        type            calculated;
        value           nonuniform List<scalar> 
100
(
116.32487
115.15008
113.84571
112.43924
110.95404
109.41062
107.81661
106.17429
104.48781
102.76994
101.04053
99.328627
97.67406
96.125114
94.727917
93.507389
92.466848
91.591088
90.852381
90.215195
89.663041
89.174676
88.72491
88.298989
87.889648
87.492192
87.105026
86.727974
86.361545
86.006747
85.664011
85.332416
85.010121
84.690435
84.368882
84.044918
83.720465
83.399323
83.085385
82.781393
82.488538
82.20688
81.935848
81.674243
81.420876
81.17052
80.914801
80.639576
80.322047
79.940995
79.518573
79.106144
78.73308
78.405425
78.113037
77.844316
77.590118
77.342569
77.102969
76.869815
76.64215
76.418763
76.198549
75.98075
75.764763
75.550107
75.336583
75.124089
74.912449
74.701445
74.490878
74.280558
74.070325
73.86003
73.649516
73.438639
73.227252
73.015203
72.802363
72.588598
72.373793
72.157917
71.941079
71.724938
71.52601
71.469083
72.634269
73.226969
73.583289
73.717316
73.736274
73.691132
73.609987
73.506802
73.390118
73.26314
73.133216
72.988219
72.863987
72.616408
)
;
    }
    frontandback
    {
        type            empty;
    }
}


// ************************************************************************* //
