#      distance             U_x             U_y             U_z wallShearStr... wallShearStr... wallShearStr...               p             nut         nuTilda
  3.0219182e-06     0.018855745   2.7096586e-09   -3.556327e-23               0               0               0   0.00024091077   3.1859334e-12   4.3835704e-08
  5.0865428e-06     0.031741043   6.8740318e-09   -1.513603e-23               0               0               0   0.00024091099   1.5791434e-11    7.378622e-08
  7.2269684e-06     0.045097628   1.3536242e-08  -3.8981975e-23               0               0               0   0.00024091121   5.3954299e-11   1.0483245e-07
  9.4750924e-06      0.05912154   2.3069542e-08  -5.8466709e-23               0               0               0   0.00024091144   1.4693822e-10   1.3743513e-07
  1.1864417e-05     0.074015207   3.6000752e-08  -2.4741184e-23               0               0               0   0.00024091168   3.4558955e-10   1.7207757e-07
  1.4430548e-05     0.089987134   5.3088535e-08   8.0869669e-23               0               0               0   0.00024091194   7.3593895e-10   2.0927253e-07
  1.7211727e-05      0.10724889   7.5331397e-08   1.3180274e-22               0               0               0   0.00024091222   1.4613029e-09   2.4956976e-07
  2.0249401e-05      0.12600724   1.0400173e-07   2.7890066e-23               0               0               0   0.00024091254   2.7575325e-09   2.9356445e-07
  2.3588836e-05      0.14644802   1.4068695e-07  -3.5573117e-23               0               0               0    0.0002409129   5.0082639e-09   3.4190738e-07
  2.7279799e-05      0.16870701   1.8731563e-07  -1.7786559e-23               0               0               0   0.00024091333   8.8297694e-09   3.9531819e-07
  3.1377293e-05      0.19282296   2.4614258e-07               0               0               0               0   0.00024091384   1.5197806e-08   4.5460355e-07
  3.5942381e-05      0.21867169   3.1965739e-07   8.7733713e-23               0               0               0   0.00024091448   2.5629894e-08   5.2068181e-07
  4.1043091e-05      0.24589311   4.1038303e-07   1.3158649e-22               0               0               0   0.00024091533   4.2430274e-08   5.9461133e-07
  4.6755437e-05      0.27384587   5.2057335e-07    1.530818e-22               0               0               0   0.00024091649    6.897813e-08   6.7761004e-07
  5.3164546e-05      0.30164419   6.5191875e-07     1.63826e-22               0               0               0   0.00024091811   1.0997267e-07   7.7104387e-07
  6.0365928e-05      0.32831369   8.0547186e-07   -2.300444e-22               0               0               0   0.00024092043    1.714454e-07   8.7637495e-07
    6.84669e-05      0.35302706   9.8196175e-07   -4.990812e-22               0               0               0   0.00024092372   2.6029688e-07   9.9510831e-07
  7.7588184e-05      0.37530104   1.1824146e-06  -2.6257924e-22               0               0               0   0.00024092828   3.8325058e-07   1.1288071e-06
   8.786571e-05      0.39504943   1.4087589e-06   4.5637788e-23               0               0               0   0.00024093437   5.4545349e-07   1.2791933e-06
  9.9452634e-05      0.41249284   1.6641418e-06   2.4762579e-22               0               0               0   0.00024094221   7.4928773e-07   1.4482728e-06
  0.00011252163      0.42801062   1.9529465e-06   6.8012298e-23               0               0               0   0.00024095187   9.9402126e-07   1.6384178e-06
  0.00012726745      0.44201617   2.2806751e-06  -1.0877477e-22               0               0               0   0.00024096333   1.2765779e-06   1.8524002e-06
  0.00014390985      0.45488477   2.6538476e-06  -2.2938485e-23               0               0               0   0.00024097654   1.5931146e-06   2.0933999e-06
  0.00016269684       0.4669254   3.0799796e-06   6.0094109e-23               0               0               0   0.00024099146   1.9406898e-06   2.3650134e-06
  0.00018390838      0.47837824    3.567641e-06   4.4442182e-22               0               0               0   0.00024100813    2.318391e-06   2.6712733e-06
  0.00020786057      0.48942327   4.1265831e-06   5.4639249e-22               0               0               0   0.00024102667   2.7277166e-06   3.0166818e-06
  0.00023491035      0.50019215   4.7679156e-06   1.6206479e-22               0               0               0   0.00024104733    3.172394e-06   3.4062558e-06
  0.00026546084      0.51077955   5.5043237e-06               0               0               0               0   0.00024107044   3.6579468e-06   3.8455806e-06
   0.0002999673      0.52125271   6.3503231e-06               0               0               0               0   0.00024109641   4.1912573e-06   4.3408687e-06
  0.00033894396      0.53165896   7.3225569e-06  -1.7303122e-22               0               0               0   0.00024112573   4.7802398e-06   4.8990185e-06
  0.00038297165      0.54203148   8.4401409e-06  -3.4606245e-22               0               0               0   0.00024115896   5.4336443e-06   5.5276716e-06
  0.00043270649      0.55239351    9.725071e-06   6.9969514e-22               0               0               0   0.00024119674   6.1609632e-06   6.2352611e-06
  0.00048888965      0.56276155   1.1202703e-05   1.3826576e-21               0               0               0   0.00024123978   6.9723996e-06   7.0310488e-06
  0.00055235838      0.57314762   1.2902326e-05   5.0993125e-22               0               0               0   0.00024128891   7.8788625e-06   7.9251419e-06
   0.0006240585      0.58356094   1.4857847e-05               0               0               0               0   0.00024134504   8.8919572e-06   8.9284814e-06
  0.00070505852      0.59400919   1.7108616e-05   2.4321816e-22               0               0               0   0.00024140922   1.0023948e-05   1.0052791e-05
  0.00079656552      0.60449946   1.9700435e-05   4.8643633e-22               0               0               0   0.00024148262   1.1287672e-05   1.1310472e-05
  0.00089994316      0.61503899   2.2686773e-05   2.4321816e-22               0               0               0   0.00024156659   1.2696384e-05   1.2714432e-05
    0.001016732      0.62563571   2.6130274e-05               0               0               0               0   0.00024166264   1.4263517e-05    1.427783e-05
   0.0011486725      0.63629884   3.0104601e-05   1.0008059e-21               0               0               0   0.00024177246   1.6002344e-05    1.601372e-05
   0.0012977308       0.6470392   3.4696714e-05  -7.8121173e-22               0               0               0   0.00024189796   1.7925528e-05   1.7934596e-05
   0.0014661282      0.65786969   4.0009675e-05  -3.4516486e-21               0               0               0   0.00024204128   2.0044564e-05   2.0051815e-05
   0.0016563743      0.66880558   4.6166106e-05  -2.8032705e-21               0               0               0   0.00024220476   2.2369115e-05   2.2374935e-05
   0.0018713042      0.67986477   5.3312434e-05  -1.7384119e-21               0               0               0   0.00024239098   2.4906261e-05   2.4910953e-05
   0.0021141207      0.69106808   6.1624074e-05  -6.0477241e-22               0               0               0   0.00024260266   2.7659682e-05   2.7663484e-05
   0.0023884425      0.70243934   7.1311735e-05  -4.5754506e-22               0               0               0   0.00024284271   3.0628801e-05     3.06319e-05
   0.0026983575      0.71400552   8.2629059e-05   1.1645222e-21               0               0               0   0.00024311401   3.3807872e-05   3.3810413e-05
   0.0030484842       0.7257967   9.5881816e-05  -2.4173006e-21               0               0               0   0.00024341938   3.7184998e-05   3.7187096e-05
   0.0034440402      0.73784602   0.00011143894  -5.8359257e-21               0               0               0   0.00024376127   4.0741016e-05   4.0742762e-05
   0.0038909203      0.75018953   0.00012974562  -1.7965577e-21               0               0               0   0.00024414148   4.4448158e-05   4.4449623e-05
    0.004395784      0.76286595   0.00015133866   3.8238938e-21               0               0               0   0.00024456062   4.8268383e-05   4.8269625e-05
   0.0049661549      0.77591631   0.00017686447  -4.6081223e-21               0               0               0   0.00024501759   5.2151292e-05   5.2152355e-05
   0.0056105328      0.78938343    0.0002071029  -1.5115903e-20               0               0               0   0.00024550927   5.6031537e-05   5.6032456e-05
   0.0063385204      0.80331115    0.0002430015   5.6644945e-21               0               0               0   0.00024602976    5.982568e-05   5.9826486e-05
   0.0071609664      0.81774294   0.00028570356   2.0570642e-20               0               0               0   0.00024656345    6.342847e-05   6.3429185e-05
   0.0080901272      0.83271978   0.00033636582   4.7958972e-20               0               0               0   0.00024708496   6.6708468e-05   6.6709114e-05
   0.0091398493      0.84827669   0.00039660949   6.0614895e-20               0               0               0   0.00024756314   6.9503006e-05     6.95036e-05
    0.010325776      0.86443694   0.00046840455   2.5777877e-20               0               0               0   0.00024795048   7.1612393e-05   7.1612952e-05
     0.01166558       0.8812029   0.00055357084    4.899697e-21               0               0               0   0.00024817958   7.2793368e-05   7.2793908e-05
    0.013179228      0.89854103   0.00065411378   1.6397253e-20               0               0               0   0.00024815771   7.2751884e-05   7.2752425e-05
    0.014889277      0.91635739   0.00077200239   1.4082732e-20               0               0               0   0.00024775393   7.1135618e-05   7.1136185e-05
    0.016821209      0.93445672   0.00090852895   4.1579406e-20               0               0               0   0.00024679436   6.7526984e-05   6.7527616e-05
    0.019003816      0.95247293     0.001063174   6.5192234e-20               0               0               0   0.00024505593   6.1437616e-05   6.1438392e-05
    0.021469624      0.96974826    0.0012315611   3.3532417e-20               0               0               0   0.00024229128   5.2297803e-05   5.2298922e-05
    0.024255377      0.98516078    0.0014048076   1.3879701e-20               0               0               0   0.00023836882   3.9262193e-05   3.9264646e-05
    0.027402591       0.9966172    0.0015423664   1.6455545e-21               0               0               0   0.00023278733   2.2518689e-05   2.2548092e-05
    0.030958166       1.0023363    0.0016046735               0               0               0               0   0.00022549857   8.2102839e-06   8.4030294e-06
    0.034975088        1.003762    0.0016139761               0               0               0               0   0.00021783932   2.2381901e-06    2.668775e-06
    0.039513219       1.0038585    0.0016052589   1.9843218e-20               0               0               0   0.00021056978   1.4465396e-06   1.9800804e-06
    0.044640187       1.0038605    0.0015948037    2.829209e-20               0               0               0   0.00020335625   1.4405164e-06   1.9755098e-06
    0.050432395       1.0038662    0.0015845229   6.9792026e-21               0               0               0    0.0001960214   1.4490397e-06   1.9819606e-06
    0.056976161        1.003871    0.0015722907  -1.4696331e-21               0               0               0   0.00018864118   1.4558681e-06    1.987131e-06
    0.064369002       1.0038733    0.0015595644               0               0               0               0    0.0001813484   1.4614352e-06   1.9913485e-06
    0.072721087       1.0038715    0.0015451521               0               0               0               0   0.00017427819   1.4661791e-06   1.9949437e-06
    0.082156882       1.0038667    0.0015300228               0               0               0               0    0.0001675302   1.4702656e-06   1.9980417e-06
    0.092817002       1.0038594    0.0015136141               0               0               0               0   0.00016119286   1.4745614e-06   2.0012996e-06
