/*--------------------------------*- C++ -*----------------------------------*\
  =========                 |
  \\      /  F ield         | OpenFOAM: The Open Source CFD Toolbox
   \\    /   O peration     | Website:  https://openfoam.org
    \\  /    A nd           | Version:  12
     \\/     M anipulation  |
\*---------------------------------------------------------------------------*/
FoamFile
{
    format      ascii;
    class       volScalarField;
    location    "1100";
    object      nut;
}
// * * * * * * * * * * * * * * * * * * * * * * * * * * * * * * * * * * * * * //

dimensions      [0 2 -1 0 0 0 0];

internalField   nonuniform List<scalar> 
13056
(
1.4727008e-06
1.4727586e-06
1.4729808e-06
1.4733888e-06
1.4739395e-06
1.4746025e-06
1.4753569e-06
1.4761869e-06
1.4770794e-06
1.4780236e-06
1.4790116e-06
1.4800372e-06
1.4810968e-06
1.4821885e-06
1.4833133e-06
1.4844738e-06
1.4856787e-06
1.4869341e-06
1.4882673e-06
1.489688e-06
1.4912244e-06
1.4931694e-06
1.4942998e-06
1.4980411e-06
2.8161127e-13
8.137975e-14
6.5789811e-14
6.0838467e-14
5.778998e-14
5.5312183e-14
5.3178172e-14
5.13109e-14
4.9658116e-14
4.8177679e-14
4.6838514e-14
4.5618018e-14
4.4498906e-14
4.346733e-14
4.2511944e-14
4.1623421e-14
4.0793979e-14
4.001705e-14
3.9286969e-14
3.8598876e-14
3.7948587e-14
3.7332419e-14
3.6747253e-14
3.6190294e-14
3.5659028e-14
3.5151331e-14
3.4665267e-14
3.4199045e-14
3.3751131e-14
3.3320164e-14
3.2904847e-14
3.2504006e-14
3.2116653e-14
3.1741867e-14
3.1378738e-14
3.1026465e-14
3.0684372e-14
3.0351816e-14
3.0028143e-14
2.9712767e-14
2.9405213e-14
2.9105017e-14
2.8811702e-14
2.8524828e-14
2.8244021e-14
2.7968948e-14
2.7699267e-14
2.7434631e-14
2.7174728e-14
2.6919313e-14
2.6668134e-14
2.6420923e-14
2.6177425e-14
2.5937417e-14
2.5700713e-14
2.5467117e-14
2.5236416e-14
2.5008402e-14
2.4782918e-14
2.455981e-14
2.4338912e-14
2.4120043e-14
2.3903033e-14
2.3687757e-14
2.3474085e-14
2.3261859e-14
2.3050919e-14
2.2841125e-14
2.2632361e-14
2.2424504e-14
2.2217396e-14
2.201088e-14
2.1804842e-14
2.1599166e-14
2.1393697e-14
2.1188272e-14
2.0982751e-14
2.0777009e-14
2.0570896e-14
2.0364232e-14
2.0156856e-14
1.9948626e-14
1.9739367e-14
1.9528867e-14
1.9316944e-14
1.9103415e-14
1.8888054e-14
1.8670593e-14
1.8450868e-14
1.8233383e-14
1.802494e-14
1.7827374e-14
1.7639785e-14
1.7461334e-14
1.7291264e-14
1.7128929e-14
1.6973749e-14
1.6825173e-14
1.66827e-14
1.6545908e-14
1.6414416e-14
1.6287855e-14
1.6165877e-14
1.6048145e-14
1.5934392e-14
1.5824235e-14
1.57176e-14
1.5613247e-14
1.5512853e-14
1.5408827e-14
1.5318742e-14
1.5169014e-14
1.4727007e-06
1.4727585e-06
1.4729808e-06
1.4733887e-06
1.4739394e-06
1.4746023e-06
1.4753568e-06
1.4761869e-06
1.4770793e-06
1.4780236e-06
1.4790115e-06
1.4800372e-06
1.4810968e-06
1.4821885e-06
1.4833133e-06
1.4844738e-06
1.4856786e-06
1.4869339e-06
1.4882671e-06
1.4896877e-06
1.491224e-06
1.4931688e-06
1.4942986e-06
1.4980494e-06
2.0735965e-11
6.7104439e-12
5.4319495e-12
5.0235095e-12
4.7719686e-12
4.5676247e-12
4.3916274e-12
4.2375961e-12
4.101227e-12
3.9790592e-12
3.8685373e-12
3.7678002e-12
3.6754242e-12
3.590268e-12
3.5113969e-12
3.4380421e-12
3.3695621e-12
3.3054151e-12
3.2451343e-12
3.1883187e-12
3.134623e-12
3.0837437e-12
3.0354232e-12
2.9894311e-12
2.9455598e-12
2.9036342e-12
2.8634944e-12
2.8249927e-12
2.7880024e-12
2.7524111e-12
2.7181121e-12
2.6850081e-12
2.6530178e-12
2.6220649e-12
2.5920747e-12
2.5629807e-12
2.5347273e-12
2.5072613e-12
2.4805288e-12
2.4544815e-12
2.4290799e-12
2.404286e-12
2.3800602e-12
2.3563662e-12
2.3331733e-12
2.3104538e-12
2.2881795e-12
2.266322e-12
2.2448552e-12
2.2237589e-12
2.2030124e-12
2.1825937e-12
2.1624815e-12
2.1426575e-12
2.1231064e-12
2.1038119e-12
2.0847564e-12
2.0659229e-12
2.0472982e-12
2.0288698e-12
2.0106238e-12
1.9925454e-12
1.9746204e-12
1.9568387e-12
1.9391893e-12
1.9216594e-12
1.9042357e-12
1.8869065e-12
1.8696625e-12
1.8524932e-12
1.8353858e-12
1.8183272e-12
1.8013082e-12
1.7843189e-12
1.7673467e-12
1.7503781e-12
1.7334016e-12
1.7164067e-12
1.6993812e-12
1.6823101e-12
1.6651802e-12
1.6479797e-12
1.6306941e-12
1.613306e-12
1.5958003e-12
1.5781619e-12
1.5603721e-12
1.5424088e-12
1.5242585e-12
1.5062932e-12
1.4890748e-12
1.4727548e-12
1.457259e-12
1.4425179e-12
1.4284691e-12
1.4150593e-12
1.4022406e-12
1.3899673e-12
1.3781981e-12
1.3668983e-12
1.3560362e-12
1.3455815e-12
1.3355054e-12
1.3257799e-12
1.3163832e-12
1.3072836e-12
1.2984749e-12
1.2898548e-12
1.2815617e-12
1.2729696e-12
1.265528e-12
1.2531592e-12
1.4727006e-06
1.4727583e-06
1.4729805e-06
1.4733884e-06
1.473939e-06
1.474602e-06
1.4753565e-06
1.4761866e-06
1.4770791e-06
1.4780234e-06
1.4790114e-06
1.4800371e-06
1.4810966e-06
1.4821883e-06
1.4833131e-06
1.4844734e-06
1.4856781e-06
1.4869333e-06
1.4882661e-06
1.4896863e-06
1.491222e-06
1.4931663e-06
1.4942942e-06
1.498052e-06
1.5014603e-10
5.3653889e-11
4.3538993e-11
4.0270471e-11
3.8257889e-11
3.662394e-11
3.5216413e-11
3.3984021e-11
3.2892473e-11
3.1914299e-11
3.1029177e-11
3.0222276e-11
2.9482233e-11
2.8799941e-11
2.8167936e-11
2.7580078e-11
2.7031241e-11
2.6517095e-11
2.6033904e-11
2.5578463e-11
2.5148009e-11
2.4740114e-11
2.4352716e-11
2.3983971e-11
2.3632219e-11
2.3296054e-11
2.2974198e-11
2.266547e-11
2.2368852e-11
2.2083446e-11
2.1808396e-11
2.1542925e-11
2.1286378e-11
2.1038147e-11
2.0797632e-11
2.0564301e-11
2.0337707e-11
2.0117425e-11
1.9903023e-11
1.9694114e-11
1.949038e-11
1.9291518e-11
1.909721e-11
1.8907166e-11
1.8721139e-11
1.8538906e-11
1.8360244e-11
1.8184922e-11
1.8012733e-11
1.7843514e-11
1.76771e-11
1.7513313e-11
1.7351984e-11
1.7192965e-11
1.7036134e-11
1.688136e-11
1.6728502e-11
1.6577425e-11
1.642802e-11
1.628019e-11
1.6133821e-11
1.5988797e-11
1.5845002e-11
1.5702356e-11
1.556077e-11
1.5420142e-11
1.5280365e-11
1.5141346e-11
1.5003008e-11
1.486527e-11
1.4728027e-11
1.4591176e-11
1.445464e-11
1.4318343e-11
1.4182182e-11
1.4046049e-11
1.3909852e-11
1.3773507e-11
1.3636915e-11
1.3499958e-11
1.3362527e-11
1.3224529e-11
1.3085848e-11
1.2946345e-11
1.2805896e-11
1.2664383e-11
1.2521654e-11
1.2377533e-11
1.223191e-11
1.208777e-11
1.1949623e-11
1.1818683e-11
1.1694355e-11
1.1576082e-11
1.1463364e-11
1.1355772e-11
1.1252922e-11
1.1154448e-11
1.1060018e-11
1.0969354e-11
1.0882202e-11
1.0798318e-11
1.0717472e-11
1.0639439e-11
1.0564044e-11
1.0491033e-11
1.0420356e-11
1.0351195e-11
1.0284654e-11
1.0215729e-11
1.0156021e-11
1.0056775e-11
1.4727003e-06
1.472758e-06
1.47298e-06
1.4733878e-06
1.4739384e-06
1.4746013e-06
1.4753559e-06
1.476186e-06
1.4770786e-06
1.478023e-06
1.479011e-06
1.4800367e-06
1.4810963e-06
1.482188e-06
1.4833126e-06
1.4844728e-06
1.4856772e-06
1.4869319e-06
1.4882643e-06
1.4896839e-06
1.4912184e-06
1.4931619e-06
1.4942864e-06
1.4980487e-06
5.5043328e-10
2.1725629e-10
1.7697874e-10
1.6373033e-10
1.5557668e-10
1.4896087e-10
1.4325952e-10
1.3826409e-10
1.3383664e-10
1.2986716e-10
1.2627404e-10
1.2299753e-10
1.199918e-10
1.1722006e-10
1.1465215e-10
1.1226327e-10
1.1003267e-10
1.0794281e-10
1.0597859e-10
1.04127e-10
1.0237685e-10
1.0071831e-10
9.9142995e-11
9.764344e-11
9.6212911e-11
9.4845701e-11
9.3536623e-11
9.2280885e-11
9.1074355e-11
8.9913384e-11
8.8794499e-11
8.7714547e-11
8.6670863e-11
8.5660976e-11
8.4682454e-11
8.373314e-11
8.2811207e-11
8.191493e-11
8.1042563e-11
8.0192525e-11
7.9363529e-11
7.8554333e-11
7.7763659e-11
7.6990323e-11
7.6233317e-11
7.5491736e-11
7.4764672e-11
7.4051193e-11
7.3350454e-11
7.2661789e-11
7.1984528e-11
7.1317951e-11
7.0661368e-11
7.001418e-11
6.9375884e-11
6.8745955e-11
6.8123817e-11
6.7508916e-11
6.6900819e-11
6.6299119e-11
6.5703364e-11
6.5113073e-11
6.4527783e-11
6.3947158e-11
6.3370845e-11
6.2798422e-11
6.2229461e-11
6.1663578e-11
6.1100464e-11
6.0539783e-11
5.9981114e-11
5.9424033e-11
5.8868234e-11
5.8313397e-11
5.775911e-11
5.7204936e-11
5.6650491e-11
5.6095441e-11
5.553938e-11
5.4981826e-11
5.442234e-11
5.3860541e-11
5.3295956e-11
5.2728017e-11
5.2156225e-11
5.1580093e-11
5.0999008e-11
5.0412248e-11
4.9819369e-11
4.9232524e-11
4.867007e-11
4.8136956e-11
4.763076e-11
4.7149214e-11
4.6690279e-11
4.6252212e-11
4.583345e-11
4.5432504e-11
4.5048022e-11
4.467887e-11
4.4324016e-11
4.3982468e-11
4.3653288e-11
4.3335563e-11
4.3028577e-11
4.2731298e-11
4.2443521e-11
4.2161928e-11
4.1890994e-11
4.1610418e-11
4.1367304e-11
4.0963174e-11
1.4727e-06
1.4727576e-06
1.4729793e-06
1.4733869e-06
1.4739374e-06
1.4746004e-06
1.4753549e-06
1.4761852e-06
1.4770779e-06
1.4780224e-06
1.4790105e-06
1.4800362e-06
1.4810958e-06
1.4821873e-06
1.4833118e-06
1.4844717e-06
1.4856757e-06
1.4869299e-06
1.4882615e-06
1.4896802e-06
1.4912131e-06
1.4931552e-06
1.4942751e-06
1.4980393e-06
1.4542524e-09
6.3576693e-10
5.2080611e-10
4.8202367e-10
4.5816294e-10
4.3880949e-10
4.2211804e-10
4.0747761e-10
3.9448932e-10
3.8283636e-10
3.722827e-10
3.6265495e-10
3.5381972e-10
3.4566983e-10
3.3811735e-10
3.3108984e-10
3.245267e-10
3.1837663e-10
3.125954e-10
3.0714494e-10
3.0199247e-10
2.9710914e-10
2.924704e-10
2.8805434e-10
2.8384121e-10
2.7981424e-10
2.7595821e-10
2.7225906e-10
2.6870465e-10
2.6528424e-10
2.6198766e-10
2.5880562e-10
2.5573029e-10
2.527544e-10
2.4987083e-10
2.4707321e-10
2.4435617e-10
2.4171465e-10
2.391435e-10
2.3663809e-10
2.3419461e-10
2.3180941e-10
2.2947874e-10
2.2719912e-10
2.2496757e-10
2.2278143e-10
2.2063802e-10
2.1853463e-10
2.1646874e-10
2.1443839e-10
2.1244162e-10
2.104763e-10
2.0854042e-10
2.066322e-10
2.0475015e-10
2.0289273e-10
2.0105825e-10
1.9924508e-10
1.9745194e-10
1.9567762e-10
1.9392081e-10
1.9218008e-10
1.9045407e-10
1.8874179e-10
1.8704219e-10
1.8535403e-10
1.8367606e-10
1.8200715e-10
1.8034637e-10
1.7869274e-10
1.7704502e-10
1.7540196e-10
1.7376265e-10
1.7212615e-10
1.7049126e-10
1.6885667e-10
1.6722126e-10
1.6558404e-10
1.6394382e-10
1.6229917e-10
1.6064879e-10
1.5899157e-10
1.573261e-10
1.5565072e-10
1.5396395e-10
1.5226434e-10
1.5055011e-10
1.488191e-10
1.4707002e-10
1.4533871e-10
1.4367934e-10
1.421065e-10
1.4061307e-10
1.3919234e-10
1.3783831e-10
1.3654583e-10
1.3531029e-10
1.3412731e-10
1.329929e-10
1.3190371e-10
1.3085669e-10
1.2984893e-10
1.2887765e-10
1.2794017e-10
1.2703438e-10
1.2615722e-10
1.253081e-10
1.2447725e-10
1.2367782e-10
1.2285017e-10
1.2213283e-10
1.2094028e-10
1.4726996e-06
1.472757e-06
1.4729784e-06
1.4733857e-06
1.4739361e-06
1.474599e-06
1.4753537e-06
1.4761841e-06
1.4770769e-06
1.4780215e-06
1.4790097e-06
1.4800355e-06
1.481095e-06
1.4821864e-06
1.4833106e-06
1.4844701e-06
1.4856736e-06
1.4869271e-06
1.4882576e-06
1.4896751e-06
1.4912059e-06
1.4931462e-06
1.4942596e-06
1.4980234e-06
3.1697753e-09
1.5408261e-09
1.2722803e-09
1.178477e-09
1.1207085e-09
1.0738443e-09
1.0333699e-09
9.9781159e-10
9.6622209e-10
9.3785109e-10
9.1213653e-10
8.8866344e-10
8.6711138e-10
8.4722226e-10
8.2878416e-10
8.1162213e-10
7.9558965e-10
7.805625e-10
7.6643344e-10
7.5311015e-10
7.4051301e-10
7.2857201e-10
7.1722737e-10
7.0642589e-10
6.9611954e-10
6.8626741e-10
6.768325e-10
6.6778061e-10
6.5908206e-10
6.5071072e-10
6.426418e-10
6.3485269e-10
6.2732422e-10
6.2003867e-10
6.1297872e-10
6.061288e-10
5.9947577e-10
5.9300727e-10
5.8671081e-10
5.8057503e-10
5.7459061e-10
5.6874865e-10
5.6304001e-10
5.5745617e-10
5.5198985e-10
5.4663454e-10
5.4138371e-10
5.3623071e-10
5.3116943e-10
5.2619503e-10
5.2130271e-10
5.1648733e-10
5.117439e-10
5.0706811e-10
5.0245629e-10
4.9790469e-10
4.9340919e-10
4.8896578e-10
4.8457133e-10
4.8022288e-10
4.7591721e-10
4.7165085e-10
4.6742047e-10
4.632236e-10
4.5905771e-10
4.5491979e-10
4.5080673e-10
4.4671576e-10
4.4264463e-10
4.3859093e-10
4.3455163e-10
4.3052366e-10
4.2650479e-10
4.2249271e-10
4.1848447e-10
4.1447691e-10
4.1046723e-10
4.0645302e-10
4.0243134e-10
3.9839874e-10
3.94352e-10
3.9028838e-10
3.8620445e-10
3.8209612e-10
3.7795976e-10
3.7379185e-10
3.6958795e-10
3.6534284e-10
3.610533e-10
3.5680724e-10
3.5273751e-10
3.4887996e-10
3.4521706e-10
3.4173243e-10
3.3841132e-10
3.3524112e-10
3.3221056e-10
3.2930886e-10
3.2652625e-10
3.2385452e-10
3.2128622e-10
3.1881417e-10
3.1643161e-10
3.1413192e-10
3.1190993e-10
3.0975819e-10
3.0767521e-10
3.0563716e-10
3.0367604e-10
3.0164635e-10
2.9988663e-10
2.9696077e-10
1.472699e-06
1.4727563e-06
1.4729772e-06
1.4733842e-06
1.4739344e-06
1.4745973e-06
1.4753521e-06
1.4761826e-06
1.4770755e-06
1.4780203e-06
1.4790086e-06
1.4800344e-06
1.4810938e-06
1.4821851e-06
1.4833089e-06
1.484468e-06
1.4856707e-06
1.4869233e-06
1.4882525e-06
1.4896683e-06
1.4911964e-06
1.4931343e-06
1.4942396e-06
1.4980004e-06
6.084878e-09
3.3022245e-09
2.7574334e-09
2.557851e-09
2.4344175e-09
2.334159e-09
2.2473647e-09
2.1709268e-09
2.1028824e-09
2.0416779e-09
1.9861403e-09
1.9353971e-09
1.8887713e-09
1.8457152e-09
1.8057783e-09
1.7685879e-09
1.733831e-09
1.7012418e-09
1.6705904e-09
1.6416788e-09
1.6143358e-09
1.588411e-09
1.5637756e-09
1.5403151e-09
1.5179261e-09
1.4965203e-09
1.4760178e-09
1.4563448e-09
1.4374373e-09
1.4192386e-09
1.4016955e-09
1.3847588e-09
1.3683871e-09
1.3525421e-09
1.3371864e-09
1.3222862e-09
1.3078131e-09
1.2937402e-09
1.2800406e-09
1.2666896e-09
1.253667e-09
1.2409536e-09
1.2285295e-09
1.2163763e-09
1.2044781e-09
1.1928209e-09
1.1813904e-09
1.1701723e-09
1.1591534e-09
1.1483229e-09
1.1376707e-09
1.1271854e-09
1.1168564e-09
1.1066742e-09
1.0966308e-09
1.0867181e-09
1.0769272e-09
1.0672493e-09
1.0576777e-09
1.0482058e-09
1.0388267e-09
1.029533e-09
1.0203173e-09
1.0111742e-09
1.0020982e-09
9.9308286e-10
9.8412138e-10
9.7520769e-10
9.6633688e-10
9.5750374e-10
9.4870169e-10
9.3992404e-10
9.3116589e-10
9.2242224e-10
9.1368666e-10
9.0495227e-10
8.9621297e-10
8.8746347e-10
8.7869743e-10
8.6990728e-10
8.6108602e-10
8.5222764e-10
8.4332471e-10
8.3436829e-10
8.2535045e-10
8.162635e-10
8.070978e-10
7.9784195e-10
7.8848886e-10
7.7923025e-10
7.7035588e-10
7.619439e-10
7.5395613e-10
7.4635692e-10
7.3911411e-10
7.3220025e-10
7.2559073e-10
7.1926212e-10
7.1319313e-10
7.0736585e-10
7.0176402e-10
6.9637204e-10
6.9117515e-10
6.8615897e-10
6.8131219e-10
6.7661861e-10
6.7207493e-10
6.6762948e-10
6.6335155e-10
6.5892553e-10
6.5508699e-10
6.4870358e-10
1.4726983e-06
1.4727553e-06
1.4729757e-06
1.4733823e-06
1.4739323e-06
1.4745952e-06
1.47535e-06
1.4761806e-06
1.4770738e-06
1.4780187e-06
1.4790071e-06
1.4800329e-06
1.4810922e-06
1.4821833e-06
1.4833067e-06
1.4844651e-06
1.4856669e-06
1.4869183e-06
1.4882458e-06
1.4896596e-06
1.4911843e-06
1.4931194e-06
1.4942144e-06
1.4979698e-06
1.0663834e-08
6.4819984e-09
5.4987558e-09
5.1137012e-09
4.8730504e-09
4.6769436e-09
4.5064961e-09
4.3558275e-09
4.2212996e-09
4.1000213e-09
3.9897828e-09
3.8889235e-09
3.7961431e-09
3.7103846e-09
3.6307747e-09
3.5565883e-09
3.4872147e-09
3.4221332e-09
3.360893e-09
3.3031045e-09
3.2484308e-09
3.1965753e-09
3.1472836e-09
3.1003294e-09
3.0555083e-09
3.0126449e-09
2.9715812e-09
2.932171e-09
2.8942869e-09
2.8578164e-09
2.8226537e-09
2.7887014e-09
2.7558766e-09
2.7241032e-09
2.693307e-09
2.6634206e-09
2.634387e-09
2.6061531e-09
2.5786652e-09
2.5518741e-09
2.5257391e-09
2.5002219e-09
2.4752833e-09
2.4508863e-09
2.4269992e-09
2.4035936e-09
2.3806416e-09
2.3581143e-09
2.3359852e-09
2.314233e-09
2.2928371e-09
2.2717752e-09
2.2510258e-09
2.2305698e-09
2.2103914e-09
2.1904743e-09
2.1708007e-09
2.1513531e-09
2.1321178e-09
2.1130818e-09
2.0942313e-09
2.0755512e-09
2.0570268e-09
2.0386475e-09
2.020402e-09
2.0022774e-09
1.9842602e-09
1.9663382e-09
1.9485014e-09
1.9307394e-09
1.9130391e-09
1.895387e-09
1.8777732e-09
1.8601876e-09
1.8426174e-09
1.8250487e-09
1.8074693e-09
1.7898685e-09
1.7722336e-09
1.7545493e-09
1.7368016e-09
1.7189782e-09
1.7010644e-09
1.6830421e-09
1.6648953e-09
1.6466085e-09
1.6281623e-09
1.6095338e-09
1.5907086e-09
1.5720725e-09
1.554209e-09
1.5372756e-09
1.5211953e-09
1.5058966e-09
1.4913149e-09
1.4773949e-09
1.4640871e-09
1.4513445e-09
1.4391243e-09
1.4273904e-09
1.4161101e-09
1.4052521e-09
1.3947867e-09
1.3846849e-09
1.3749241e-09
1.3654716e-09
1.3563209e-09
1.3473683e-09
1.3387525e-09
1.3298417e-09
1.3221109e-09
1.3092519e-09
1.4726974e-06
1.4727542e-06
1.4729739e-06
1.4733799e-06
1.4739297e-06
1.4745925e-06
1.4753474e-06
1.4761782e-06
1.4770715e-06
1.4780166e-06
1.4790051e-06
1.4800309e-06
1.4810901e-06
1.4821808e-06
1.4833037e-06
1.4844613e-06
1.485662e-06
1.4869119e-06
1.4882373e-06
1.4896487e-06
1.4911691e-06
1.4931007e-06
1.4941832e-06
1.4979308e-06
1.7430882e-08
1.1882048e-08
1.0304231e-08
9.6232215e-09
9.1882971e-09
8.8313802e-09
8.5190914e-09
8.2414463e-09
7.9924175e-09
7.7671498e-09
7.5618556e-09
7.3736413e-09
7.2002105e-09
7.0396783e-09
6.8904771e-09
6.7512983e-09
6.6210331e-09
6.4987324e-09
6.3835709e-09
6.2748334e-09
6.1719003e-09
6.0742247e-09
5.9813361e-09
5.8928161e-09
5.808286e-09
5.7274195e-09
5.6499234e-09
5.575526e-09
5.5039895e-09
5.4351043e-09
5.3686731e-09
5.3045143e-09
5.2424724e-09
5.1824055e-09
5.1241748e-09
5.0676544e-09
5.0127368e-09
4.9593228e-09
4.9073122e-09
4.8566126e-09
4.8071471e-09
4.7588441e-09
4.7116301e-09
4.6654357e-09
4.6202009e-09
4.5758726e-09
4.5323981e-09
4.4897236e-09
4.4477988e-09
4.4065836e-09
4.3660391e-09
4.3261237e-09
4.2867967e-09
4.2480223e-09
4.2097702e-09
4.1720099e-09
4.1347081e-09
4.0978318e-09
4.0613546e-09
4.0252524e-09
3.989499e-09
3.954066e-09
3.9189258e-09
3.8840577e-09
3.8494408e-09
3.8150508e-09
3.7808619e-09
3.7468511e-09
3.7129995e-09
3.6792873e-09
3.6456898e-09
3.6121814e-09
3.5787432e-09
3.5453562e-09
3.5119962e-09
3.4786367e-09
3.4452545e-09
3.4118292e-09
3.3783367e-09
3.3447483e-09
3.3110369e-09
3.2771796e-09
3.243148e-09
3.2089079e-09
3.1744288e-09
3.1396813e-09
3.1046284e-09
3.0692266e-09
3.0334483e-09
2.998027e-09
2.9640717e-09
2.931882e-09
2.9013124e-09
2.8722268e-09
2.8445027e-09
2.8180353e-09
2.7927307e-09
2.7684996e-09
2.7452606e-09
2.7229455e-09
2.7014922e-09
2.6808411e-09
2.6609359e-09
2.6417218e-09
2.6231555e-09
2.6051753e-09
2.5877685e-09
2.5707394e-09
2.5543492e-09
2.5374045e-09
2.5226986e-09
2.4982296e-09
1.4726963e-06
1.4727528e-06
1.4729717e-06
1.4733771e-06
1.4739265e-06
1.4745892e-06
1.4753441e-06
1.4761751e-06
1.4770686e-06
1.4780139e-06
1.4790025e-06
1.4800283e-06
1.4810873e-06
1.4821776e-06
1.4832998e-06
1.4844564e-06
1.4856558e-06
1.4869039e-06
1.4882267e-06
1.4896351e-06
1.4911505e-06
1.4930778e-06
1.4941451e-06
1.4978826e-06
2.6938342e-08
2.0551665e-08
1.8364876e-08
1.7267212e-08
1.6536561e-08
1.5928551e-08
1.539057e-08
1.4907903e-08
1.4471951e-08
1.4075527e-08
1.3712809e-08
1.3379222e-08
1.3071048e-08
1.2785183e-08
1.2519016e-08
1.2270348e-08
1.2037297e-08
1.181824e-08
1.1611761e-08
1.1416622e-08
1.1231749e-08
1.1056191e-08
1.0889126e-08
1.0729821e-08
1.0577614e-08
1.043193e-08
1.0292251e-08
1.0158101e-08
1.0029056e-08
9.9047474e-09
9.7848253e-09
9.6689675e-09
9.5568969e-09
9.4483616e-09
9.3431158e-09
9.2409345e-09
9.1416256e-09
9.0450123e-09
8.9509168e-09
8.8591733e-09
8.769644e-09
8.682201e-09
8.5967135e-09
8.513057e-09
8.4311236e-09
8.3508181e-09
8.2720464e-09
8.194712e-09
8.1187247e-09
8.0440119e-09
7.970504e-09
7.8981265e-09
7.8268064e-09
7.7564788e-09
7.6870892e-09
7.6185829e-09
7.5509001e-09
7.4839812e-09
7.4177784e-09
7.3522482e-09
7.2873436e-09
7.2230135e-09
7.1592079e-09
7.095889e-09
7.0330195e-09
6.9705552e-09
6.90845e-09
6.8466616e-09
6.7851558e-09
6.723897e-09
6.6628405e-09
6.6019399e-09
6.5411605e-09
6.4804681e-09
6.4198187e-09
6.3591645e-09
6.2984628e-09
6.2376767e-09
6.1767625e-09
6.1156679e-09
6.0543437e-09
5.9927477e-09
5.9308286e-09
5.8685242e-09
5.8057787e-09
5.7425382e-09
5.6787357e-09
5.6142917e-09
5.5491556e-09
5.4846627e-09
5.4228331e-09
5.3642131e-09
5.3085383e-09
5.2555619e-09
5.2050614e-09
5.1568461e-09
5.1107457e-09
5.066598e-09
5.0242552e-09
4.9835931e-09
4.9444988e-09
4.9068643e-09
4.8705873e-09
4.8355679e-09
4.8017274e-09
4.7689542e-09
4.7372245e-09
4.7061844e-09
4.6763055e-09
4.6454288e-09
4.6186217e-09
4.5739991e-09
1.4726951e-06
1.4727512e-06
1.4729691e-06
1.4733737e-06
1.4739226e-06
1.4745852e-06
1.4753402e-06
1.4761713e-06
1.477065e-06
1.4780104e-06
1.4789991e-06
1.4800248e-06
1.4810836e-06
1.4821733e-06
1.4832947e-06
1.4844501e-06
1.4856478e-06
1.4868937e-06
1.4882135e-06
1.4896184e-06
1.4911277e-06
1.4930499e-06
1.494099e-06
1.4978243e-06
3.9713662e-08
3.3723539e-08
3.1320901e-08
2.9752338e-08
2.8623674e-08
2.7659007e-08
2.6788993e-08
2.5996927e-08
2.5273622e-08
2.4610493e-08
2.399996e-08
2.3435709e-08
2.2912375e-08
2.2425328e-08
2.1970591e-08
2.1544753e-08
2.1144857e-08
2.0768315e-08
2.0412843e-08
2.0076436e-08
1.9757339e-08
1.9453989e-08
1.9165028e-08
1.8889244e-08
1.8625532e-08
1.8372931e-08
1.8130576e-08
1.7897666e-08
1.7673488e-08
1.7457417e-08
1.7248864e-08
1.7047284e-08
1.6852204e-08
1.6663197e-08
1.6479845e-08
1.6301766e-08
1.6128629e-08
1.5960133e-08
1.5795976e-08
1.5635874e-08
1.5479587e-08
1.5326899e-08
1.5177585e-08
1.5031432e-08
1.4888252e-08
1.4747883e-08
1.4610162e-08
1.4474924e-08
1.4342012e-08
1.4211302e-08
1.4082672e-08
1.3955996e-08
1.3831147e-08
1.3708011e-08
1.3586495e-08
1.3466503e-08
1.3347934e-08
1.3230682e-08
1.3114666e-08
1.2999809e-08
1.2886029e-08
1.277324e-08
1.2661352e-08
1.25503e-08
1.244002e-08
1.2330434e-08
1.2221462e-08
1.211303e-08
1.2005077e-08
1.1897543e-08
1.1790349e-08
1.1683414e-08
1.1576677e-08
1.1470077e-08
1.1363538e-08
1.1256976e-08
1.1150316e-08
1.1043493e-08
1.0936431e-08
1.0829037e-08
1.0721224e-08
1.061292e-08
1.0504032e-08
1.0394451e-08
1.028408e-08
1.0172823e-08
1.0060561e-08
9.9471551e-09
9.8325151e-09
9.7189908e-09
9.61014e-09
9.5069264e-09
9.4088864e-09
9.3155874e-09
9.2266388e-09
9.1417062e-09
9.0604908e-09
8.9827081e-09
8.9080987e-09
8.8364442e-09
8.7675466e-09
8.7012165e-09
8.637274e-09
8.5755439e-09
8.5158878e-09
8.4581097e-09
8.4021678e-09
8.3474431e-09
8.2947585e-09
8.2403385e-09
8.1930733e-09
8.1143541e-09
1.4726936e-06
1.4727492e-06
1.472966e-06
1.4733696e-06
1.4739179e-06
1.4745803e-06
1.4753353e-06
1.4761665e-06
1.4770604e-06
1.478006e-06
1.4789947e-06
1.4800203e-06
1.4810787e-06
1.4821677e-06
1.4832881e-06
1.484442e-06
1.4856377e-06
1.486881e-06
1.4881972e-06
1.4895977e-06
1.4911e-06
1.4930163e-06
1.4940435e-06
1.4977546e-06
5.6182204e-08
5.2668422e-08
5.1222987e-08
4.9372721e-08
4.7817933e-08
4.6418746e-08
4.51142e-08
4.3897577e-08
4.2766802e-08
4.1716487e-08
4.0739879e-08
3.9830316e-08
3.8981446e-08
3.8187371e-08
3.7442787e-08
3.6742989e-08
3.6083775e-08
3.5461382e-08
3.4872425e-08
3.4313889e-08
3.3783106e-08
3.3277681e-08
3.2795507e-08
3.2334697e-08
3.1893519e-08
3.147045e-08
3.1064123e-08
3.0673259e-08
3.0296719e-08
2.9933496e-08
2.9582646e-08
2.9243286e-08
2.8914649e-08
2.8596041e-08
2.8286787e-08
2.7986259e-08
2.7693917e-08
2.7409268e-08
2.7131819e-08
2.68611e-08
2.659672e-08
2.6338319e-08
2.6085529e-08
2.5837998e-08
2.5595415e-08
2.5357509e-08
2.5124013e-08
2.4894653e-08
2.4669169e-08
2.4447351e-08
2.4228999e-08
2.4013901e-08
2.3801848e-08
2.3592649e-08
2.3386146e-08
2.3182183e-08
2.2980586e-08
2.2781184e-08
2.2583833e-08
2.2388408e-08
2.2194773e-08
2.2002779e-08
2.181228e-08
2.1623162e-08
2.1435316e-08
2.1248615e-08
2.1062922e-08
2.0878112e-08
2.0694081e-08
2.0510727e-08
2.0327917e-08
2.0145513e-08
1.996341e-08
1.9781507e-08
1.9599673e-08
1.9417767e-08
1.9235658e-08
1.9053236e-08
1.8870371e-08
1.8686905e-08
1.850269e-08
1.8317599e-08
1.8131477e-08
1.7944136e-08
1.7755407e-08
1.7565127e-08
1.7373094e-08
1.7179066e-08
1.6982889e-08
1.6788583e-08
1.6602242e-08
1.642552e-08
1.6257627e-08
1.6097829e-08
1.5945458e-08
1.5799946e-08
1.5660783e-08
1.5527485e-08
1.5399609e-08
1.5276782e-08
1.5158667e-08
1.5044942e-08
1.4935298e-08
1.4829438e-08
1.4727125e-08
1.4628024e-08
1.4532065e-08
1.4438194e-08
1.4347808e-08
1.4254488e-08
1.4173407e-08
1.4038273e-08
1.4726919e-06
1.472747e-06
1.4729624e-06
1.4733647e-06
1.4739124e-06
1.4745744e-06
1.4753294e-06
1.4761607e-06
1.4770548e-06
1.4780004e-06
1.4789891e-06
1.4800144e-06
1.4810723e-06
1.4821605e-06
1.4832796e-06
1.4844317e-06
1.4856249e-06
1.4868651e-06
1.488177e-06
1.4895726e-06
1.4910665e-06
1.4929757e-06
1.4939772e-06
1.4976726e-06
7.6580563e-08
7.8472945e-08
8.031525e-08
7.8904009e-08
7.712685e-08
7.5346433e-08
7.3582426e-08
7.1868487e-08
7.0228639e-08
6.867296e-08
6.720334e-08
6.5817678e-08
6.4511675e-08
6.3280054e-08
6.2117383e-08
6.1018416e-08
5.9978141e-08
5.8991829e-08
5.8055066e-08
5.7163806e-08
5.6314395e-08
5.5503488e-08
5.4728099e-08
5.3985526e-08
5.3273248e-08
5.2589026e-08
5.1930843e-08
5.1296794e-08
5.0685161e-08
5.0094425e-08
4.9523157e-08
4.8970007e-08
4.8433793e-08
4.7913454e-08
4.7407947e-08
4.6916296e-08
4.6437657e-08
4.5971267e-08
4.5516355e-08
4.5072184e-08
4.4638131e-08
4.4213635e-08
4.3798118e-08
4.339102e-08
4.2991846e-08
4.2600164e-08
4.2215555e-08
4.1837581e-08
4.1465826e-08
4.109995e-08
4.0739636e-08
4.0384548e-08
4.0034346e-08
3.9688723e-08
3.9347423e-08
3.9010196e-08
3.8676764e-08
3.8346846e-08
3.8020211e-08
3.7696653e-08
3.7375955e-08
3.7057875e-08
3.6742171e-08
3.6428659e-08
3.6117162e-08
3.580747e-08
3.5499362e-08
3.5192629e-08
3.4887103e-08
3.4582613e-08
3.4278944e-08
3.3975867e-08
3.3673207e-08
3.3370797e-08
3.3068422e-08
3.2765845e-08
3.2462853e-08
3.2159258e-08
3.1854847e-08
3.1549357e-08
3.1242541e-08
3.0934183e-08
3.0624027e-08
3.0311762e-08
2.99971e-08
2.9679768e-08
2.9359429e-08
2.9035678e-08
2.8708254e-08
2.8383866e-08
2.8072696e-08
2.7777517e-08
2.7497022e-08
2.722999e-08
2.6975319e-08
2.6732062e-08
2.6499374e-08
2.6276453e-08
2.6062564e-08
2.5857085e-08
2.5659458e-08
2.5469147e-08
2.528564e-08
2.5108441e-08
2.4937157e-08
2.4771232e-08
2.4610547e-08
2.4453357e-08
2.4301973e-08
2.4145749e-08
2.4009961e-08
2.378345e-08
1.4726898e-06
1.4727443e-06
1.4729581e-06
1.473359e-06
1.4739058e-06
1.4745673e-06
1.4753222e-06
1.4761535e-06
1.4770477e-06
1.4779933e-06
1.4789819e-06
1.4800069e-06
1.4810641e-06
1.4821512e-06
1.4832686e-06
1.4844186e-06
1.4856089e-06
1.4868454e-06
1.4881522e-06
1.4895419e-06
1.4910261e-06
1.4929272e-06
1.4938982e-06
1.4975767e-06
1.0087475e-07
1.1177833e-07
1.2064426e-07
1.2124263e-07
1.1991096e-07
1.181063e-07
1.1607297e-07
1.1394228e-07
1.1179956e-07
1.0969441e-07
1.0765394e-07
1.0569184e-07
1.0381348e-07
1.0201944e-07
1.0030787e-07
9.8675682e-08
9.7118937e-08
9.5633278e-08
9.4214191e-08
9.2857253e-08
9.1558274e-08
9.0313265e-08
8.9118551e-08
8.7970731e-08
8.6866546e-08
8.5803043e-08
8.4777533e-08
8.3787437e-08
8.2830384e-08
8.1904274e-08
8.1007112e-08
8.0136985e-08
7.9292206e-08
7.847126e-08
7.767265e-08
7.6894952e-08
7.6136929e-08
7.5397471e-08
7.4675447e-08
7.3969761e-08
7.3279484e-08
7.2603782e-08
7.19418e-08
7.1292691e-08
7.0655707e-08
7.0030196e-08
6.9415527e-08
6.8811039e-08
6.8216093e-08
6.7630165e-08
6.7052778e-08
6.6483418e-08
6.5921561e-08
6.5366731e-08
6.4818532e-08
6.4276579e-08
6.3740444e-08
6.3209689e-08
6.2683949e-08
6.2162906e-08
6.164622e-08
6.1133514e-08
6.0624408e-08
6.0118605e-08
5.961583e-08
5.9115755e-08
5.8618026e-08
5.8122312e-08
5.7628342e-08
5.7135845e-08
5.6644482e-08
5.6153884e-08
5.5663767e-08
5.5173862e-08
5.4683828e-08
5.4193283e-08
5.3701876e-08
5.3209306e-08
5.2715227e-08
5.2219214e-08
5.1720864e-08
5.1219823e-08
5.0715676e-08
5.0207913e-08
4.9696064e-08
4.9179682e-08
4.8658214e-08
4.8130997e-08
4.7597597e-08
4.7068946e-08
4.6561654e-08
4.6080268e-08
4.5622681e-08
4.5186925e-08
4.4771218e-08
4.4374032e-08
4.3994004e-08
4.3629835e-08
4.3280337e-08
4.2944505e-08
4.2621434e-08
4.2310256e-08
4.2010145e-08
4.1720295e-08
4.1440067e-08
4.1168563e-08
4.0905589e-08
4.0648321e-08
4.0400495e-08
4.0144872e-08
3.9922599e-08
3.9551407e-08
1.4726874e-06
1.4727412e-06
1.4729531e-06
1.4733523e-06
1.4738979e-06
1.4745589e-06
1.4753134e-06
1.4761447e-06
1.4770388e-06
1.4779844e-06
1.4789727e-06
1.4799972e-06
1.4810534e-06
1.4821392e-06
1.4832547e-06
1.4844021e-06
1.4855889e-06
1.4868209e-06
1.4881218e-06
1.4895046e-06
1.4909775e-06
1.4928693e-06
1.4938046e-06
1.4974655e-06
1.2869851e-07
1.525472e-07
1.735897e-07
1.7883863e-07
1.7931277e-07
1.7833803e-07
1.7661348e-07
1.744554e-07
1.720618e-07
1.6955835e-07
1.6702412e-07
1.6450799e-07
1.620388e-07
1.5963309e-07
1.5730028e-07
1.5504518e-07
1.5286939e-07
1.5077227e-07
1.4875177e-07
1.4680507e-07
1.4492901e-07
1.4312015e-07
1.4137507e-07
1.3969039e-07
1.3806269e-07
1.3648872e-07
1.3496546e-07
1.3348989e-07
1.3205919e-07
1.306708e-07
1.2932227e-07
1.2801116e-07
1.2673533e-07
1.2549283e-07
1.2428171e-07
1.2310008e-07
1.2194629e-07
1.2081885e-07
1.1971624e-07
1.1863697e-07
1.1757973e-07
1.165434e-07
1.1552678e-07
1.145287e-07
1.135481e-07
1.1258404e-07
1.1163566e-07
1.1070201e-07
1.0978217e-07
1.0887537e-07
1.0798095e-07
1.0709816e-07
1.0622624e-07
1.0536448e-07
1.0451231e-07
1.0366917e-07
1.0283444e-07
1.0200745e-07
1.0118766e-07
1.0037461e-07
9.9567779e-08
9.8766616e-08
9.7970541e-08
9.7179103e-08
9.6391887e-08
9.5608401e-08
9.4828105e-08
9.4050487e-08
9.3275132e-08
9.2501625e-08
9.1729447e-08
9.0958025e-08
9.0186912e-08
8.9415692e-08
8.8643836e-08
8.7870746e-08
8.7095869e-08
8.6318729e-08
8.5538782e-08
8.4755363e-08
8.3967824e-08
8.3175606e-08
8.2378049e-08
8.1574344e-08
8.0763737e-08
7.9945509e-08
7.9118782e-08
7.8282493e-08
7.7435937e-08
7.6596464e-08
7.5790488e-08
7.5025297e-08
7.4297595e-08
7.3604307e-08
7.2942642e-08
7.2310202e-08
7.1704852e-08
7.1124557e-08
7.0567447e-08
7.0031943e-08
6.9516624e-08
6.9020125e-08
6.8541148e-08
6.8078419e-08
6.7630933e-08
6.7197274e-08
6.6777136e-08
6.636607e-08
6.5969962e-08
6.5561594e-08
6.5206345e-08
6.4612276e-08
1.4726847e-06
1.4727376e-06
1.4729473e-06
1.4733445e-06
1.4738887e-06
1.4745488e-06
1.4753029e-06
1.476134e-06
1.4770279e-06
1.4779732e-06
1.4789611e-06
1.4799848e-06
1.4810398e-06
1.4821238e-06
1.4832369e-06
1.4843811e-06
1.4855638e-06
1.4867907e-06
1.4880847e-06
1.4894594e-06
1.4909193e-06
1.4928003e-06
1.4936939e-06
1.4973373e-06
1.5932267e-07
1.9993777e-07
2.3943911e-07
2.5310939e-07
2.5757019e-07
2.5890386e-07
2.585857e-07
2.5723411e-07
2.5522309e-07
2.5279948e-07
2.5012888e-07
2.4732152e-07
2.4444938e-07
2.4155993e-07
2.3868554e-07
2.3584838e-07
2.3306299e-07
2.3033834e-07
2.276796e-07
2.2508936e-07
2.2256862e-07
2.2011706e-07
2.1773359e-07
2.154166e-07
2.1316389e-07
2.1097306e-07
2.0884174e-07
2.0676729e-07
2.0474705e-07
2.0277855e-07
2.0085934e-07
1.9898687e-07
1.9715879e-07
1.9537301e-07
1.9362734e-07
1.9191957e-07
1.9024778e-07
1.8861023e-07
1.8700511e-07
1.8543057e-07
1.83885e-07
1.8236702e-07
1.8087515e-07
1.7940787e-07
1.7796382e-07