/*--------------------------------*- C++ -*----------------------------------*\
  =========                 |
  \\      /  F ield         | OpenFOAM: The Open Source CFD Toolbox
   \\    /   O peration     | Website:  https://openfoam.org
    \\  /    A nd           | Version:  12
     \\/     M anipulation  |
\*---------------------------------------------------------------------------*/
FoamFile
{
    format      ascii;
    class       volScalarField;
    location    "1100";
    object      nuTilda;
}
// * * * * * * * * * * * * * * * * * * * * * * * * * * * * * * * * * * * * * //

dimensions      [0 2 -1 0 0 0 0];

internalField   nonuniform List<scalar> 
13056
(
1.9998863e-06
1.9999302e-06
2.0000987e-06
2.000408e-06
2.0008256e-06
2.0013284e-06
2.0019006e-06
2.0025301e-06
2.0032071e-06
2.0039234e-06
2.0046728e-06
2.0054509e-06
2.0062549e-06
2.0070832e-06
2.0079367e-06
2.0088174e-06
2.0097317e-06
2.0106845e-06
2.0116964e-06
2.0127748e-06
2.013941e-06
2.0154177e-06
2.0162754e-06
2.0191147e-06
2.9966041e-08
2.1970778e-08
2.0833202e-08
2.0429651e-08
2.0168775e-08
1.9949022e-08
1.9753759e-08
1.9578023e-08
1.9418424e-08
1.9272049e-08
1.9136707e-08
1.9010806e-08
1.8893124e-08
1.8782663e-08
1.8678594e-08
1.8580221e-08
1.8486958e-08
1.83983e-08
1.8313804e-08
1.8233083e-08
1.8155798e-08
1.8081646e-08
1.8010371e-08
1.7941736e-08
1.7875525e-08
1.7811557e-08
1.7749661e-08
1.7689678e-08
1.763147e-08
1.7574914e-08
1.7519891e-08
1.746629e-08
1.7414019e-08
1.7362991e-08
1.7313118e-08
1.7264321e-08
1.7216535e-08
1.7169696e-08
1.7123737e-08
1.7078597e-08
1.703423e-08
1.6990587e-08
1.6947618e-08
1.6905273e-08
1.6863513e-08
1.6822303e-08
1.6781605e-08
1.6741378e-08
1.6701586e-08
1.6662203e-08
1.6623198e-08
1.658454e-08
1.6546195e-08
1.6508138e-08
1.6470346e-08
1.6432792e-08
1.639545e-08
1.635829e-08
1.6321292e-08
1.6284434e-08
1.6247693e-08
1.6211042e-08
1.6174455e-08
1.6137914e-08
1.6101398e-08
1.6064881e-08
1.6028337e-08
1.5991742e-08
1.5955076e-08
1.5918316e-08
1.5881433e-08
1.5844398e-08
1.5807189e-08
1.576978e-08
1.5732142e-08
1.569424e-08
1.5656043e-08
1.5617523e-08
1.5578646e-08
1.553937e-08
1.5499657e-08
1.5459471e-08
1.5418769e-08
1.5377497e-08
1.5335608e-08
1.5293051e-08
1.5249766e-08
1.5205682e-08
1.5160747e-08
1.5115872e-08
1.5072484e-08
1.5031012e-08
1.4991314e-08
1.4953255e-08
1.4916711e-08
1.4881576e-08
1.4847756e-08
1.4815157e-08
1.4783694e-08
1.4753295e-08
1.4723896e-08
1.4695432e-08
1.4667841e-08
1.4641062e-08
1.4615048e-08
1.4589723e-08
1.4565082e-08
1.4540846e-08
1.4517415e-08
1.4493016e-08
1.4471787e-08
1.4436294e-08
1.9998863e-06
1.9999301e-06
2.0000986e-06
2.0004079e-06
2.0008255e-06
2.0013283e-06
2.0019005e-06
2.0025301e-06
2.003207e-06
2.0039233e-06
2.0046728e-06
2.0054509e-06
2.0062549e-06
2.0070832e-06
2.0079367e-06
2.0088174e-06
2.0097317e-06
2.0106844e-06
2.0116963e-06
2.0127746e-06
2.0139407e-06
2.0154172e-06
2.0162745e-06
2.019121e-06
8.7785457e-08
6.6208655e-08
6.2800679e-08
6.1585252e-08
6.0799359e-08
6.0137719e-08
5.9549826e-08
5.9020627e-08
5.8539931e-08
5.8099004e-08
5.7691275e-08
5.7311962e-08
5.6957386e-08
5.6624553e-08
5.6310961e-08
5.6014525e-08
5.5733475e-08
5.5466297e-08
5.5211653e-08
5.496838e-08
5.4735458e-08
5.4511976e-08
5.4297158e-08
5.4090296e-08
5.3890736e-08
5.3697933e-08
5.3511376e-08
5.333058e-08
5.3155133e-08
5.2984665e-08
5.2818815e-08
5.2657249e-08
5.2499692e-08
5.2345883e-08
5.2195553e-08
5.2048464e-08
5.1904421e-08
5.1763233e-08
5.1624698e-08
5.1488632e-08
5.1354893e-08
5.1223337e-08
5.1093809e-08
5.0966165e-08
5.0840285e-08
5.071606e-08
5.0593378e-08
5.0472117e-08
5.0352167e-08
5.0233446e-08
5.0115868e-08
4.9999333e-08
4.9883745e-08
4.9769023e-08
4.9655096e-08
4.9541892e-08
4.9429322e-08
4.9317304e-08
4.9205771e-08
4.9094662e-08
4.8983906e-08
4.887342e-08
4.8763127e-08
4.8652972e-08
4.8542891e-08
4.8432809e-08
4.8322646e-08
4.8212327e-08
4.8101794e-08
4.7990978e-08
4.7879792e-08
4.7768147e-08
4.7655975e-08
4.7543204e-08
4.7429739e-08
4.7315479e-08
4.720033e-08
4.7084207e-08
4.6967007e-08
4.6848605e-08
4.6728886e-08
4.6607741e-08
4.6485038e-08
4.6360618e-08
4.6234337e-08
4.6106044e-08
4.5975556e-08
4.5842657e-08
4.5707191e-08
4.5571909e-08
4.5441111e-08
4.5316086e-08
4.519641e-08
4.5081674e-08
4.4971505e-08
4.4865586e-08
4.4763629e-08
4.4665354e-08
4.4570502e-08
4.447886e-08
4.439023e-08
4.430442e-08
4.4221243e-08
4.4140513e-08
4.4062089e-08
4.3985744e-08
4.3911458e-08
4.3838396e-08
4.3767759e-08
4.3694214e-08
4.3630214e-08
4.3523213e-08
1.9998862e-06
1.99993e-06
2.0000984e-06
2.0004077e-06
2.0008252e-06
2.001328e-06
2.0019002e-06
2.0025298e-06
2.0032068e-06
2.0039232e-06
2.0046727e-06
2.0054508e-06
2.0062548e-06
2.0070831e-06
2.0079365e-06
2.0088171e-06
2.0097313e-06
2.0106839e-06
2.0116955e-06
2.0127736e-06
2.0139392e-06
2.0154154e-06
2.0162711e-06
2.0191229e-06
1.4403153e-07
1.1134445e-07
1.0567697e-07
1.0363464e-07
1.0231444e-07
1.0120376e-07
1.0021681e-07
9.9328066e-08
9.8520483e-08
9.7779526e-08
9.7094232e-08
9.6456608e-08
9.5860495e-08
9.5300877e-08
9.4773565e-08
9.4275063e-08
9.3802408e-08
9.3353054e-08
9.292476e-08
9.2515572e-08
9.2123781e-08
9.1747855e-08
9.1386491e-08
9.1038501e-08
9.0702788e-08
9.0378432e-08
9.0064577e-08
8.9760409e-08
8.9465233e-08
8.9178431e-08
8.8899394e-08
8.862756e-08
8.8362467e-08
8.8103677e-08
8.7850737e-08
8.7603249e-08
8.7360883e-08
8.7123318e-08
8.6890215e-08
8.6661265e-08
8.6436227e-08
8.6214862e-08
8.5996908e-08
8.5782122e-08
8.5570302e-08
8.5361267e-08
8.5154826e-08
8.4950776e-08
8.474893e-08
8.4549152e-08
8.4351295e-08
8.4155193e-08
8.3960684e-08
8.376763e-08
8.3575915e-08
8.3385414e-08
8.3195981e-08
8.3007474e-08
8.2819785e-08
8.2632807e-08
8.2446421e-08
8.2260492e-08
8.2074886e-08
8.1889511e-08
8.170426e-08
8.1519007e-08
8.1333616e-08
8.1147964e-08
8.096195e-08
8.0775459e-08
8.0588346e-08
8.0400459e-08
8.0211685e-08
8.0021902e-08
7.9830951e-08
7.9638662e-08
7.9444876e-08
7.924945e-08
7.9052211e-08
7.885295e-08
7.8651471e-08
7.8447591e-08
7.8241089e-08
7.8031699e-08
7.7819174e-08
7.7603263e-08
7.7383657e-08
7.7159995e-08
7.6932011e-08
7.6704336e-08
7.6484207e-08
7.6273794e-08
7.6072382e-08
7.5879284e-08
7.5693872e-08
7.5515612e-08
7.5344021e-08
7.5178626e-08
7.5018991e-08
7.4864758e-08
7.4715596e-08
7.4571178e-08
7.4431192e-08
7.4295325e-08
7.4163339e-08
7.4034851e-08
7.390983e-08
7.3786874e-08
7.3667993e-08
7.3544243e-08
7.3436534e-08
7.3256446e-08
1.999886e-06
1.9999298e-06
2.000098e-06
2.0004072e-06
2.0008247e-06
2.0013275e-06
2.0018998e-06
2.0025294e-06
2.0032065e-06
2.0039229e-06
2.0046724e-06
2.0054506e-06
2.0062545e-06
2.0070828e-06
2.0079362e-06
2.0088166e-06
2.0097306e-06
2.0106829e-06
2.0116941e-06
2.0127717e-06
2.0139365e-06
2.015412e-06
2.0162653e-06
2.0191205e-06
1.9938487e-07
1.5798231e-07
1.5008055e-07
1.4718691e-07
1.453177e-07
1.4374632e-07
1.4234962e-07
1.410912e-07
1.3994706e-07
1.388969e-07
1.3792536e-07
1.370212e-07
1.3617575e-07
1.3538193e-07
1.3463384e-07
1.3392654e-07
1.3325585e-07
1.3261817e-07
1.3201034e-07
1.3142957e-07
1.3087347e-07
1.3033986e-07
1.2982689e-07
1.2933289e-07
1.288563e-07
1.2839581e-07
1.2795022e-07
1.2751837e-07
1.2709928e-07
1.2669206e-07
1.2629586e-07
1.2590988e-07
1.2553346e-07
1.2516598e-07
1.2480681e-07
1.2445537e-07
1.241112e-07
1.2377385e-07
1.2344282e-07
1.2311769e-07
1.2279811e-07
1.2248374e-07
1.2217421e-07
1.2186918e-07
1.2156836e-07
1.2127149e-07
1.209783e-07
1.206885e-07
1.2040184e-07
1.201181e-07
1.198371e-07
1.1955858e-07
1.1928232e-07
1.1900813e-07
1.1873584e-07
1.1846527e-07
1.1819622e-07
1.1792848e-07
1.176619e-07
1.1739633e-07
1.171316e-07
1.1686751e-07
1.1660389e-07
1.1634059e-07
1.1607747e-07
1.1581434e-07
1.1555101e-07
1.1528731e-07
1.150231e-07
1.1475821e-07
1.1449243e-07
1.1422556e-07
1.1395742e-07
1.1368785e-07
1.1341662e-07
1.1314348e-07
1.1286822e-07
1.1259063e-07
1.1231046e-07
1.1202742e-07
1.1174123e-07
1.1145163e-07
1.111583e-07
1.1086087e-07
1.1055898e-07
1.1025228e-07
1.0994034e-07
1.0962263e-07
1.0929878e-07
1.0897537e-07
1.0866267e-07
1.0836378e-07
1.0807767e-07
1.0780338e-07
1.0754e-07
1.0728678e-07
1.0704303e-07
1.0680808e-07
1.0658132e-07
1.0636223e-07
1.0615034e-07
1.0594519e-07
1.0574634e-07
1.0555333e-07
1.0536584e-07
1.0518333e-07
1.0500573e-07
1.0483108e-07
1.0466221e-07
1.0448646e-07
1.0433346e-07
1.0407763e-07
1.9998858e-06
1.9999294e-06
2.0000975e-06
2.0004065e-06
2.000824e-06
2.0013268e-06
2.0018991e-06
2.0025288e-06
2.0032059e-06
2.0039224e-06
2.004672e-06
2.0054502e-06
2.0062541e-06
2.0070823e-06
2.0079356e-06
2.0088158e-06
2.0097295e-06
2.0106814e-06
2.011692e-06
2.0127689e-06
2.0139325e-06
2.0154069e-06
2.0162566e-06
2.0191133e-06
2.5438897e-07
2.0671637e-07
1.966405e-07
1.9286563e-07
1.9042879e-07
1.8838152e-07
1.8656086e-07
1.8491902e-07
1.8342508e-07
1.8205307e-07
1.8078325e-07
1.7960111e-07
1.7849544e-07
1.7745705e-07
1.7647828e-07
1.7555274e-07
1.7467498e-07
1.7384032e-07
1.7304464e-07
1.7228433e-07
1.7155624e-07
1.7085755e-07
1.7018585e-07
1.6953893e-07
1.6891479e-07
1.6831171e-07
1.677281e-07
1.6716247e-07
1.6661353e-07
1.6608012e-07
1.6556113e-07
1.6505551e-07
1.6456241e-07
1.64081e-07
1.6361046e-07
1.6315005e-07
1.6269914e-07
1.6225715e-07
1.6182345e-07
1.6139746e-07
1.6097874e-07
1.6056684e-07
1.6016128e-07
1.5976161e-07
1.5936744e-07
1.5897844e-07
1.5859427e-07
1.5821454e-07
1.578389e-07
1.574671e-07
1.5709887e-07
1.567339e-07
1.563719e-07
1.5601259e-07
1.5565577e-07
1.553012e-07
1.5494861e-07
1.5459775e-07
1.542484e-07
1.5390037e-07
1.5355344e-07
1.5320736e-07
1.5286187e-07
1.5251681e-07
1.5217198e-07
1.5182713e-07
1.5148203e-07
1.5113644e-07
1.5079017e-07
1.5044301e-07
1.5009469e-07
1.4974493e-07
1.4939351e-07
1.490402e-07
1.4868472e-07
1.4832675e-07
1.4796599e-07
1.4760217e-07
1.4723497e-07
1.4686401e-07
1.4648891e-07
1.4610934e-07
1.4572489e-07
1.4533506e-07
1.4493938e-07
1.445374e-07
1.4412854e-07
1.4371213e-07
1.4328766e-07
1.4286376e-07
1.4245392e-07
1.4206216e-07
1.4168715e-07
1.4132763e-07
1.4098241e-07
1.4065051e-07
1.4033103e-07
1.4002308e-07
1.3972585e-07
1.3943868e-07
1.3916095e-07
1.3889205e-07
1.3863141e-07
1.3837844e-07
1.3813269e-07
1.3789346e-07
1.3766068e-07
1.3743177e-07
1.3721043e-07
1.3698014e-07
1.3677961e-07
1.3644426e-07
1.9998854e-06
1.999929e-06
2.0000968e-06
2.0004056e-06
2.000823e-06
2.0013258e-06
2.0018981e-06
2.0025279e-06
2.0032052e-06
2.0039217e-06
2.0046714e-06
2.0054496e-06
2.0062535e-06
2.0070816e-06
2.0079346e-06
2.0088146e-06
2.0097279e-06
2.0106792e-06
2.011689e-06
2.012765e-06
2.0139269e-06
2.0154e-06
2.0162449e-06
2.0191012e-06
3.0945028e-07
2.5810977e-07
2.4599412e-07
2.4131142e-07
2.3828741e-07
2.3574752e-07
2.3348644e-07
2.3144477e-07
2.2958488e-07
2.2787538e-07
2.2629223e-07
2.2481771e-07
2.2343802e-07
2.2214186e-07
2.2091979e-07
2.1976392e-07
2.1866749e-07
2.1762473e-07
2.1663051e-07
2.1568037e-07
2.1477038e-07
2.1389705e-07
2.1305736e-07
2.122486e-07
2.1146825e-07
2.1071418e-07
2.0998441e-07
2.0927708e-07
2.0859059e-07
2.0792348e-07
2.0727438e-07
2.0664198e-07
2.060252e-07
2.0542303e-07
2.0483444e-07
2.042585e-07
2.0369443e-07
2.031415e-07
2.0259893e-07
2.0206599e-07
2.0154213e-07
2.0102679e-07
2.0051938e-07
2.0001932e-07
1.9952614e-07
1.9903942e-07
1.9855873e-07
1.9808358e-07
1.9761356e-07
1.9714833e-07
1.9668756e-07
1.9623086e-07
1.9577787e-07
1.9532824e-07
1.9488172e-07
1.9443802e-07
1.9399679e-07
1.9355772e-07
1.9312053e-07
1.9268499e-07
1.9225082e-07
1.9181771e-07
1.9138534e-07
1.909535e-07
1.9052194e-07
1.9009037e-07
1.8965846e-07
1.8922595e-07
1.8879258e-07
1.8835809e-07
1.8792214e-07
1.8748439e-07
1.8704456e-07
1.8660237e-07
1.8615746e-07
1.8570942e-07
1.8525789e-07
1.8480252e-07
1.8434293e-07
1.8387862e-07
1.8340914e-07
1.8293405e-07
1.8245284e-07
1.8196491e-07
1.8146966e-07
1.8096651e-07
1.8045474e-07
1.7993352e-07
1.7940222e-07
1.7887163e-07
1.7835862e-07
1.7786825e-07
1.7739885e-07
1.7694883e-07
1.7651671e-07
1.7610126e-07
1.7570135e-07
1.7531587e-07
1.7494383e-07
1.7458436e-07
1.7423671e-07
1.7390012e-07
1.7357387e-07
1.7325721e-07
1.7294959e-07
1.7265014e-07
1.7235876e-07
1.7207224e-07
1.7179518e-07
1.7150702e-07
1.7125601e-07
1.7083621e-07
1.999885e-06
1.9999284e-06
2.0000959e-06
2.0004045e-06
2.0008217e-06
2.0013245e-06
2.0018969e-06
2.0025268e-06
2.0032041e-06
2.0039208e-06
2.0046705e-06
2.0054488e-06
2.0062526e-06
2.0070806e-06
2.0079334e-06
2.0088129e-06
2.0097257e-06
2.0106763e-06
2.0116851e-06
2.0127598e-06
2.0139197e-06
2.015391e-06
2.0162297e-06
2.0190838e-06
3.6484207e-07
3.1265864e-07
2.9877824e-07
2.9318131e-07
2.8955531e-07
2.8650808e-07
2.8379042e-07
2.8133159e-07
2.7908794e-07
2.7702319e-07
2.7510934e-07
2.7332555e-07
2.7165553e-07
2.7008588e-07
2.6860536e-07
2.6720457e-07
2.6587545e-07
2.6461107e-07
2.6340529e-07
2.6225275e-07
2.6114874e-07
2.6008904e-07
2.5907003e-07
2.5808843e-07
2.5714122e-07
2.5622581e-07
2.5533983e-07
2.5448103e-07
2.5364745e-07
2.5283736e-07
2.5204909e-07
2.5128106e-07
2.5053195e-07
2.4980056e-07
2.4908562e-07
2.4838602e-07
2.4770081e-07
2.470291e-07
2.4636996e-07
2.457225e-07
2.4508605e-07
2.4445993e-07
2.4384342e-07
2.4323583e-07
2.4263659e-07
2.4204518e-07
2.4146107e-07
2.408837e-07
2.4031255e-07
2.397472e-07
2.3918726e-07
2.3863226e-07
2.3808175e-07
2.3753533e-07
2.3699267e-07
2.3645343e-07
2.3591719e-07
2.3538356e-07
2.3485221e-07
2.3432286e-07
2.3379517e-07
2.3326875e-07
2.3274324e-07
2.3221836e-07
2.3169381e-07
2.3116924e-07
2.3064427e-07
2.3011855e-07
2.2959178e-07
2.2906365e-07
2.2853374e-07
2.2800163e-07
2.2746699e-07
2.2692948e-07
2.2638865e-07
2.2584402e-07
2.2529514e-07
2.247416e-07
2.241829e-07
2.2361848e-07
2.2304775e-07
2.2247022e-07
2.2188524e-07
2.2129207e-07
2.2069e-07
2.2007834e-07
2.1945619e-07
2.1882254e-07
2.1817664e-07
2.1753159e-07
2.1690791e-07
2.1631176e-07
2.1574109e-07
2.1519398e-07
2.1466864e-07
2.1416355e-07
2.1367736e-07
2.1320871e-07
2.1275639e-07
2.1231937e-07
2.1189671e-07
2.1148749e-07
2.1109083e-07
2.1070585e-07
2.1033186e-07
2.0996779e-07
2.0961355e-07
2.0926523e-07
2.0892839e-07
2.0857818e-07
2.0827303e-07
2.077626e-07
1.9998844e-06
1.9999277e-06
2.0000948e-06
2.000403e-06
2.0008201e-06
2.0013228e-06
2.0018953e-06
2.0025253e-06
2.0032028e-06
2.0039196e-06
2.0046694e-06
2.0054476e-06
2.0062514e-06
2.0070792e-06
2.0079317e-06
2.0088107e-06
2.0097228e-06
2.0106725e-06
2.01168e-06
2.0127532e-06
2.0139105e-06
2.0153796e-06
2.0162105e-06
2.0190605e-06
4.2070893e-07
3.7073051e-07
3.5561012e-07
3.4914183e-07
3.4491431e-07
3.4135362e-07
3.3816797e-07
3.3527688e-07
3.3263226e-07
3.3019408e-07
3.2793105e-07
3.2581962e-07
3.2384117e-07
3.2198033e-07
3.2022415e-07
3.1856172e-07
3.169837e-07
3.1548201e-07
3.1404947e-07
3.1267981e-07
3.1136751e-07
3.1010761e-07
3.0889587e-07
3.0772841e-07
3.0660168e-07
3.0551262e-07
3.0445845e-07
3.034365e-07
3.0244446e-07
3.0148029e-07
3.0054199e-07
2.9962772e-07
2.9873591e-07
2.9786512e-07
2.9701387e-07
2.9618083e-07
2.9536488e-07
2.9456497e-07
2.9377998e-07
2.9300888e-07
2.9225084e-07
2.9150508e-07
2.9077074e-07
2.90047e-07
2.8933318e-07
2.8862866e-07
2.8793282e-07
2.8724499e-07
2.8656454e-07
2.85891e-07
2.8522387e-07
2.8456262e-07
2.839067e-07
2.8325565e-07
2.8260906e-07
2.8196652e-07
2.8132755e-07
2.8069168e-07
2.8005852e-07
2.7942773e-07
2.787989e-07
2.7817158e-07
2.7754533e-07
2.7691982e-07
2.762947e-07
2.7566955e-07
2.7504391e-07
2.7441737e-07
2.7378956e-07
2.7316013e-07
2.7252857e-07
2.7189439e-07
2.7125718e-07
2.7061654e-07
2.6997194e-07
2.693228e-07
2.6866858e-07
2.6800881e-07
2.6734289e-07
2.6667013e-07
2.6598985e-07
2.6530145e-07
2.6460417e-07
2.6389713e-07
2.6317947e-07
2.6245036e-07
2.6170876e-07
2.6095344e-07
2.601835e-07
2.5941457e-07
2.5867112e-07
2.5796046e-07
2.572802e-07
2.56628e-07
2.5600175e-07
2.5539964e-07
2.5482005e-07
2.5426139e-07
2.5372217e-07
2.5320119e-07
2.5269734e-07
2.5220951e-07
2.5173665e-07
2.512777e-07
2.5083187e-07
2.5039786e-07
2.4997557e-07
2.4956037e-07
2.4915883e-07
2.4874151e-07
2.4837776e-07
2.4776919e-07
1.9998838e-06
1.9999268e-06
2.0000934e-06
2.0004012e-06
2.0008181e-06
2.0013208e-06
2.0018933e-06
2.0025235e-06
2.0032011e-06
2.003918e-06
2.0046679e-06
2.0054461e-06
2.0062498e-06
2.0070773e-06
2.0079294e-06
2.0088079e-06
2.0097191e-06
2.0106677e-06
2.0116736e-06
2.0127449e-06
2.013899e-06
2.0153654e-06
2.0161868e-06
2.0190309e-06
4.7707531e-07
4.324775e-07
4.1704816e-07
4.0985089e-07
4.0505695e-07
4.0099703e-07
3.9734484e-07
3.9401438e-07
3.9095636e-07
3.8812924e-07
3.8549982e-07
3.8304263e-07
3.8073728e-07
3.7856668e-07
3.7651639e-07
3.7457414e-07
3.7272939e-07
3.7097293e-07
3.692966e-07
3.676932e-07
3.6615641e-07
3.6468054e-07
3.6326068e-07
3.6189238e-07
3.6057152e-07
3.5929457e-07
3.580583e-07
3.5685963e-07
3.5569586e-07
3.5456463e-07
3.5346362e-07
3.5239068e-07
3.5134399e-07
3.5032186e-07
3.4932259e-07
3.4834461e-07
3.4738661e-07
3.4644737e-07
3.455256e-07
3.4462008e-07
3.4372984e-07
3.4285397e-07
3.4199146e-07
3.4114137e-07
3.4030288e-07
3.3947529e-07
3.3865785e-07
3.378498e-07
3.3705039e-07
3.3625905e-07
3.3547523e-07
3.3469829e-07
3.3392759e-07
3.3316259e-07
3.324028e-07
3.3164775e-07
3.3089689e-07
3.3014965e-07
3.2940557e-07
3.2866426e-07
3.2792523e-07
3.2718798e-07
3.2645196e-07
3.2571679e-07
3.2498207e-07
3.242473e-07
3.2351195e-07
3.2277551e-07
3.2203759e-07
3.2129773e-07
3.2055538e-07
3.1980992e-07
3.190609e-07
3.1830783e-07
3.1755009e-07
3.1678701e-07
3.1601795e-07
3.1524235e-07
3.1445951e-07
3.1366863e-07
3.128689e-07
3.1205961e-07
3.1123987e-07
3.1040865e-07
3.0956494e-07
3.0870775e-07
3.0783587e-07
3.0694786e-07
3.0604264e-07
3.0513861e-07
3.0426452e-07
3.0342899e-07
3.0262918e-07
3.0186236e-07
3.0112605e-07
3.0041813e-07
2.9973667e-07
2.990798e-07
2.9844581e-07
2.9783326e-07
2.9724084e-07
2.9666725e-07
2.9611127e-07
2.9557166e-07
2.9504745e-07
2.9453716e-07
2.9404064e-07
2.9355249e-07
2.9308038e-07
2.9258992e-07
2.9216229e-07
2.9144662e-07
1.999883e-06
1.9999258e-06
2.0000917e-06
2.0003991e-06
2.0008157e-06
2.0013183e-06
2.0018909e-06
2.0025211e-06
2.0031989e-06
2.0039159e-06
2.0046659e-06
2.0054441e-06
2.0062476e-06
2.0070748e-06
2.0079264e-06
2.0088041e-06
2.0097143e-06
2.0106615e-06
2.0116655e-06
2.0127346e-06
2.0138848e-06
2.015348e-06
2.0161579e-06
2.0189943e-06
5.3386342e-07
4.9774381e-07
4.8352304e-07
4.7592016e-07
4.706637e-07
4.6615996e-07
4.6206998e-07
4.5831141e-07
4.5483998e-07
4.516168e-07
4.486094e-07
4.4579206e-07
4.4314359e-07
4.4064592e-07
4.3828354e-07
4.3604319e-07
4.3391331e-07
4.3188375e-07
4.2994545e-07
4.2809035e-07
4.2631139e-07
4.2460216e-07
4.2295711e-07
4.2137123e-07
4.1983984e-07
4.1835892e-07
4.1692479e-07
4.1553395e-07
4.1418332e-07
4.1287017e-07
4.1159189e-07
4.1034599e-07
4.0913038e-07
4.0794312e-07
4.0678226e-07
4.0564601e-07
4.0453284e-07
4.0344135e-07
4.0237006e-07
4.0131757e-07
4.0028275e-07
3.9926453e-07
3.9826179e-07
3.9727342e-07
3.9629848e-07
3.9533613e-07
3.9438554e-07
3.9344581e-07
3.9251609e-07
3.9159571e-07
3.9068403e-07
3.8978031e-07
3.8888382e-07
3.8799391e-07
3.8711004e-07
3.8623165e-07
3.853581e-07
3.8448873e-07
3.8362303e-07
3.827605e-07
3.8190062e-07
3.8104277e-07
3.8018635e-07
3.7933089e-07
3.7847592e-07
3.7762088e-07
3.7676514e-07
3.7590813e-07
3.7504937e-07
3.7418834e-07
3.7332438e-07
3.7245681e-07
3.7158506e-07
3.7070858e-07
3.6982667e-07
3.6893852e-07
3.680434e-07
3.6714065e-07
3.6622946e-07
3.653089e-07
3.6437803e-07
3.6343602e-07
3.6248183e-07
3.6151426e-07
3.6053216e-07
3.5953434e-07
3.5851941e-07
3.574857e-07
3.5643194e-07
3.5537956e-07
3.5436202e-07
3.5338936e-07
3.5245828e-07
3.515656e-07
3.5070843e-07
3.4988429e-07
3.4909096e-07
3.4832627e-07
3.475882e-07
3.4687508e-07
3.4618539e-07
3.4551764e-07
3.4487038e-07
3.4424217e-07
3.4363191e-07
3.4303785e-07
3.4245982e-07
3.4189158e-07
3.4134197e-07
3.4077127e-07
3.4027351e-07
3.3944019e-07
1.999882e-06
1.9999245e-06
2.0000898e-06
2.0003965e-06
2.0008128e-06
2.0013152e-06
2.0018878e-06
2.0025182e-06
2.0031961e-06
2.0039133e-06
2.0046633e-06
2.0054415e-06
2.0062447e-06
2.0070716e-06
2.0079225e-06
2.0087993e-06
2.0097082e-06
2.0106538e-06
2.0116555e-06
2.0127218e-06
2.0138675e-06
2.0153268e-06
2.0161228e-06
2.0189499e-06
5.9088761e-07
5.6606751e-07
5.5523747e-07
5.478465e-07
5.4235585e-07
5.3753995e-07
5.3309318e-07
5.2895458e-07
5.2509608e-07
5.2148879e-07
5.1810575e-07
5.1492406e-07
5.1192376e-07
5.0908711e-07
5.0639853e-07
5.0384441e-07
5.0141271e-07
4.9909267e-07
4.9687457e-07
4.9474972e-07
4.9271042e-07
4.9074967e-07
4.8886136e-07
4.8703995e-07
4.8528027e-07
4.835778e-07
4.8192846e-07
4.8032835e-07
4.7877397e-07
4.7726228e-07
4.7579032e-07
4.7435531e-07
4.7295485e-07
4.7158676e-07
4.7024886e-07
4.6893907e-07
4.6765568e-07
4.6639708e-07
4.651616e-07
4.6394766e-07
4.6275393e-07
4.6157923e-07
4.6042225e-07
4.5928175e-07
4.5815663e-07
4.5704595e-07
4.5594875e-07
4.5486401e-07
4.5379073e-07
4.5272817e-07
4.5167557e-07
4.5063211e-07
4.4959694e-07
4.4856931e-07
4.475486e-07
4.4653416e-07
4.4552527e-07
4.4452117e-07
4.4352126e-07
4.4252497e-07
4.415317e-07
4.4054075e-07
4.3955141e-07
4.3856315e-07
4.3757543e-07
4.3658759e-07
4.3559893e-07
4.3460877e-07
4.3361655e-07
4.3262169e-07
4.3162343e-07
4.3062096e-07
4.2961365e-07
4.2860085e-07
4.2758175e-07
4.2655543e-07
4.2552105e-07
4.2447781e-07
4.2342481e-07
4.2236096e-07
4.2128519e-07
4.2019651e-07
4.1909376e-07
4.1797553e-07
4.1684048e-07
4.1568727e-07
4.1451426e-07
4.1331952e-07
4.1210162e-07
4.1088528e-07
4.0970921e-07
4.0858501e-07
4.0750884e-07
4.0647707e-07
4.0548633e-07
4.0453377e-07
4.0361681e-07
4.0273295e-07
4.0187985e-07
4.010556e-07
4.0025843e-07
3.9948661e-07
3.9873848e-07
3.9801236e-07
3.9730699e-07
3.9662037e-07
3.9595227e-07
3.9529555e-07
3.9466031e-07
3.9400104e-07
3.9342584e-07
3.9246243e-07
1.9998809e-06
1.9999231e-06
2.0000874e-06
2.0003934e-06
2.0008092e-06
2.0013115e-06
2.0018841e-06
2.0025146e-06
2.0031927e-06
2.0039099e-06
2.00466e-06
2.005438e-06
2.006241e-06
2.0070673e-06
2.0079175e-06
2.0087931e-06
2.0097005e-06
2.0106441e-06
2.011643e-06
2.0127061e-06
2.0138464e-06
2.0153012e-06
2.0160806e-06
2.018897e-06
6.4783572e-07
6.3676214e-07
6.3205997e-07
6.2590588e-07
6.2061066e-07
6.1574291e-07
6.1111221e-07
6.0670931e-07
6.0254056e-07
5.9859928e-07
5.9487217e-07
5.9134452e-07
5.8800122e-07
5.8482738e-07
5.8180915e-07
5.7893393e-07
5.7619014e-07
5.7356715e-07
5.7105515e-07
5.6864521e-07
5.6632932e-07
5.6410014e-07
5.6195118e-07
5.5987653e-07
5.5787063e-07
5.5592859e-07
5.5404596e-07
5.522185e-07
5.5044236e-07
5.4871418e-07
5.4703073e-07
5.4538889e-07
5.4378602e-07
5.4221969e-07
5.4068746e-07
5.3918703e-07
5.3771645e-07
5.3627394e-07
5.3485764e-07
5.3346574e-07
5.3209676e-07
5.3074936e-07
5.2942208e-07
5.2811351e-07
5.268224e-07
5.2554769e-07
5.2428829e-07
5.2304305e-07
5.2181085e-07
5.2059082e-07
5.193821e-07
5.1818378e-07
5.1699488e-07
5.1581455e-07
5.1464207e-07
5.1347672e-07
5.1231766e-07
5.1116404e-07
5.1001515e-07
5.0887036e-07
5.0772898e-07
5.0659022e-07
5.0545325e-07
5.0431747e-07
5.0318225e-07
5.0204686e-07
5.0091048e-07
4.9977233e-07
4.9863178e-07
4.9748815e-07
4.9634059e-07
4.9518815e-07
4.9403012e-07
4.9286574e-07
4.9169409e-07
4.9051412e-07
4.8932484e-07
4.8812537e-07
4.8691464e-07
4.8569142e-07
4.8445448e-07
4.8320267e-07
4.8193466e-07
4.8064883e-07
4.7934365e-07
4.7801756e-07
4.766687e-07
4.7529485e-07
4.7389433e-07
4.7249561e-07
4.7114319e-07
4.698504e-07
4.6861285e-07
4.6742634e-07
4.6628703e-07
4.6519161e-07
4.6413714e-07
4.6312072e-07
4.6213969e-07
4.6119182e-07
4.6027509e-07
4.5938753e-07
4.585272e-07
4.5769221e-07
4.5688107e-07
4.560915e-07
4.5532324e-07
4.5456814e-07
4.538377e-07
4.5308003e-07
4.524188e-07
4.5131063e-07
1.9998796e-06
1.9999213e-06
2.0000846e-06
2.0003897e-06
2.000805e-06
2.0013071e-06
2.0018796e-06
2.0025102e-06
2.0031883e-06
2.0039057e-06
2.0046557e-06
2.0054336e-06
2.0062362e-06
2.0070618e-06
2.007911e-06
2.0087853e-06
2.0096908e-06
2.010632e-06
2.0116277e-06
2.012687e-06
2.0138209e-06
2.0152704e-06
2.0160302e-06
2.0188347e-06
7.0427767e-07
7.0897684e-07
7.1348006e-07
7.1003684e-07
7.0564239e-07
7.0117207e-07
6.966732e-07
6.9223271e-07
6.8791751e-07
6.8376106e-07
6.7977617e-07
6.7596497e-07
6.7232313e-07
6.688429e-07
6.6551529e-07
6.6233107e-07
6.5928091e-07
6.5635568e-07
6.5354648e-07
6.5084499e-07
6.4824352e-07
6.4573491e-07
6.4331269e-07
6.409709e-07
6.3870386e-07
6.3650651e-07
6.3437421e-07
6.3230251e-07
6.3028733e-07
6.2832508e-07
6.2641232e-07
6.2454569e-07
6.2272231e-07
6.2093957e-07
6.1919481e-07
6.1748552e-07
6.1580954e-07
6.1416493e-07
6.1254964e-07
6.1096168e-07
6.093994e-07
6.078613e-07
6.0634579e-07
6.0485128e-07
6.0337638e-07
6.019199e-07
6.0048063e-07
5.9905729e-07
5.9764862e-07
5.9625361e-07
5.9487134e-07
5.9350076e-07
5.9214078e-07
5.9079043e-07
5.894489e-07
5.8811537e-07
5.8678891e-07
5.8546855e-07
5.8415347e-07
5.8284298e-07
5.8153627e-07
5.8023246e-07
5.7893062e-07
5.7763003e-07
5.7633001e-07
5.7502971e-07
5.737282e-07
5.724246e-07
5.7111817e-07
5.6980815e-07
5.6849357e-07
5.6717336e-07
5.6584667e-07
5.6451266e-07
5.6317027e-07
5.618183e-07
5.6045563e-07
5.5908123e-07
5.576939e-07
5.5629223e-07
5.5487479e-07
5.5344028e-07
5.5198718e-07
5.5051365e-07
5.490179e-07
5.4749818e-07
5.4595234e-07
5.4437784e-07
5.4277277e-07
5.4116974e-07
5.3961976e-07
5.3813813e-07
5.367198e-07
5.3535997e-07
5.3405422e-07
5.3279879e-07
5.3159028e-07
5.3042539e-07
5.2930106e-07
5.2821475e-07
5.2716412e-07
5.2614692e-07
5.2516095e-07
5.2420402e-07
5.2327444e-07
5.223696e-07
5.214892e-07
5.2062397e-07
5.1978693e-07
5.1891923e-07
5.1816177e-07
5.1689139e-07
1.999878e-06
1.9999193e-06
2.0000814e-06
2.0003854e-06
2.0008e-06
2.0013017e-06
2.0018742e-06
2.0025047e-06
2.0031829e-06
2.0039003e-06
2.0046502e-06
2.0054278e-06
2.0062299e-06
2.0070547e-06
2.0079027e-06
2.0087753e-06
2.0096786e-06
2.010617e-06
2.0116088e-06
2.0126636e-06
2.0137902e-06
2.0152335e-06
2.0159702e-06
2.0187618e-06
7.5967857e-07
7.8173337e-07
7.9867998e-07
7.9979513e-07
7.9730873e-07
7.939114e-07
7.9004426e-07
7.8594588e-07
7.8177523e-07
7.776281e-07
7.7355984e-07
7.6960128e-07
7.6576745e-07
7.6206403e-07
7.5849174e-07
7.5504841e-07
7.5172989e-07
7.4853072e-07
7.4544475e-07
7.4246563e-07
7.3958716e-07
7.3680325e-07
7.3410821e-07
7.3149665e-07
7.2896329e-07
7.2650327e-07
7.2411213e-07
7.217855e-07
7.1951928e-07
7.1730988e-07
7.151538e-07
7.1304759e-07
7.1098825e-07
7.0897307e-07
7.069993e-07
7.0506424e-07
7.0316562e-07
7.0130137e-07
6.9946933e-07
6.9766732e-07
6.9589355e-07
6.9414643e-07
6.9242423e-07
6.9072523e-07
6.8904789e-07
6.873909e-07
6.8575295e-07
6.8413264e-07
6.8252856e-07
6.809396e-07
6.7936474e-07
6.7780283e-07
6.7625266e-07
6.7471314e-07
6.7318335e-07
6.7166239e-07
6.7014924e-07
6.6864279e-07
6.6714213e-07
6.6564645e-07
6.641549e-07
6.6266645e-07
6.6118006e-07
6.5969492e-07
6.5821025e-07
6.5672511e-07
6.5523843e-07
6.5374923e-07
6.5225665e-07
6.5075983e-07
6.4925768e-07
6.4774899e-07
6.4623278e-07
6.4470809e-07
6.4317374e-07
6.4162834e-07
6.4007061e-07
6.3849938e-07
6.3691331e-07
6.3531075e-07
6.336901e-07
6.3204986e-07
6.303883e-07
6.2870332e-07
6.2699289e-07
6.2525498e-07
6.2348716e-07
6.2168654e-07
6.1985091e-07
6.1801757e-07
6.1624488e-07
6.1455035e-07
6.129282e-07
6.1137295e-07
6.0987955e-07
6.0844369e-07
6.0706149e-07
6.0572919e-07
6.0444328e-07
6.0320085e-07
6.0199925e-07
6.0083588e-07
5.9970824e-07
5.9861382e-07
5.975507e-07
5.9651589e-07
5.9550905e-07
5.9451969e-07
5.935625e-07
5.925709e-07
5.9170509e-07
5.9025167e-07
1.9998762e-06
1.999917e-06
2.0000776e-06
2.0003803e-06
2.000794e-06
2.0012953e-06
2.0018675e-06
2.002498e-06
2.0031762e-06
2.0038935e-06
2.0046432e-06
2.0054204e-06
2.0062218e-06
2.0070456e-06
2.007892e-06
2.0087627e-06
2.0096633e-06
2.0105984e-06
2.0115857e-06
2.0126353e-06
2.0137533e-06
2.0151895e-06
2.0158991e-06
2.0186774e-06
8.1341027e-07
8.5395162e-07
8.8665261e-07
8.9444047e-07
8.9513738e-07
8.9370357e-07
8.911556e-07
8.8794655e-07
8.8436e-07
8.8057741e-07
8.7671471e-07
8.7284519e-07
8.6901365e-07
8.6524712e-07
8.6156227e-07
8.5796901e-07
8.544723e-07
8.5107359e-07
8.4777201e-07
8.445653e-07
8.4145047e-07
8.3842396e-07
8.3548201e-07
8.3262081e-07
8.2983628e-07
8.2712447e-07
8.2448169e-07
8.2190412e-07
8.1938809e-07
8.1693034e-07
8.1452764e-07
8.121767e-07
8.0987462e-07
8.076188e-07
8.0540654e-07
8.0323515e-07
8.0110232e-07
7.9900598e-07
7.9694394e-07
7.9491396e-07
7.9291416e-07
7.909429e-07
7.8899839e-07
7.8707881e-07
7.8518253e-07
7.8330814e-07
7.8145428e-07
7.7961944e-07
7.7780211e-07
7.7600108e-07
7.7421524e-07
7.7244337e-07
7.7068416e-07
7.6893638e-07
7.6719905e-07
7.6547119e-07
7.6375166e-07
7.6203925e-07
7.6033294e-07
7.5863185e-07
7.56935e-07
7.552413e-07
7.5354956e-07
7.5185886e-07
7.5016835e-07
7.4847696e-07
7.4678352e-07
7.450869e-07
7.4338613e-07
7.4168026e-07
7.3996805e-07
7.3824813e-07
7.3651939e-07
7.3478075e-07
7.3303086e-07
7.3126817e-07
7.2949121e-07
7.2769864e-07
7.2588895e-07
7.2406027e-07
7.2221077e-07
7.2033875e-07
7.1844224e-07
7.1651884e-07
7.1456624e-07
7.1258212e-07
7.1056373e-07
7.0850777e-07
7.0641171e-07
7.0431814e-07
7.0229374e-07
7.0035852e-07
6.985059e-07
6.9672963e-07
6.9502397e-07
6.9338398e-07
6.9180525e-07
6.9028349e-07
6.888147e-07
6.8739556e-07
6.8602304e-07
6.8469418e-07
6.8340614e-07
6.8215605e-07
6.8094171e-07
6.7975973e-07
6.7860971e-07
6.7747981e-07
6.7638657e-07
6.7525485e-07
6.7426648e-07
6.7260553e-07
1.9998741e-06
1.9999143e-06
2.0000732e-06
2.0003744e-06
2.000787e-06
2.0012876e-06
2.0018595e-06
2.0024899e-06
2.0031679e-06
2.003885e-06
2.0046344e-06
2.005411e-06
2.0062114e-06
2.0070339e-06
2.0078785e-06
2.0087468e-06
2.0096443e-06
2.0105754e-06
2.0115574e-06
2.0126009e-06
2.013709e-06
2.015137e-06
2.015815e-06
2.01858e-06
8.647579e-07
9.2448132e-07
9.7626058e-07
9.9308294e-07
9.9846767e-07
1.0000681e-06
9.9968669e-07
9.9806377e-07
9.956407e-07
9.9270711e-07
9.894573e-07
9.860212e-07
9.8248427e-07
9.7890357e-07
9.753187e-07
9.7175741e-07
9.6823854e-07
9.6477429e-07
9.6137227e-07
9.5803702e-07
9.5477101e-07
9.5157508e-07
9.4844905e-07
9.4539203e-07
9.4240229e-07
9.3947778e-07
9.3661641e-07
9.3381566e-07
9.310729e-07
9.2838573e-07
9.2575165e-07
9.2316797e-07
9.2063222e-07
9.1814221e-07
9.1569559e-07
9.1328989e-07
9.1092298e-07
9.0859297e-07
9.0629781e-07
9.0403533e-07
9.0180368e-07
8.996013e-07
8.9742644e-07
8.9527727e-07
8.9315212e-07
8.9104958e-07
8.8896829e-07