/*--------------------------------*- C++ -*----------------------------------*\
  =========                 |
  \\      /  F ield         | OpenFOAM: The Open Source CFD Toolbox
   \\    /   O peration     | Website:  https://openfoam.org
    \\  /    A nd           | Version:  12
     \\/     M anipulation  |
\*---------------------------------------------------------------------------*/
FoamFile
{
    format      ascii;
    class       volScalarField;
    location    "1100";
    object      nuTilda;
}
// * * * * * * * * * * * * * * * * * * * * * * * * * * * * * * * * * * * * * //

dimensions      [0 2 -1 0 0 0 0];

internalField   nonuniform List<scalar> 
7480
(
1.7151277e-06
1.436851e-06
1.306926e-06
1.2763548e-06
1.2985597e-06
1.3610889e-06
1.4668897e-06
1.6249455e-06
1.8513297e-06
2.1708707e-06
2.6162389e-06
3.2237547e-06
4.0146951e-06
4.9529768e-06
5.9134921e-06
6.7318632e-06
7.3027215e-06
7.6188467e-06
7.7544106e-06
7.7225694e-06
7.6325054e-06
7.5065217e-06
7.3610478e-06
7.2204232e-06
7.1139826e-06
7.0468956e-06
7.0110596e-06
6.9956913e-06
6.9931873e-06
6.9993171e-06
7.0103517e-06
7.022748e-06
7.0346176e-06
7.0133711e-06
6.9772599e-06
6.9414351e-06
6.9102748e-06
6.8845955e-06
6.8633505e-06
6.8447449e-06
6.8272407e-06
6.810043e-06
6.7929671e-06
6.7765084e-06
6.7635491e-06
6.761945e-06
6.8010749e-06
6.951144e-06
7.3241978e-06
7.9589043e-06
8.5879118e-06
9.0181733e-06
9.3328814e-06
9.5475306e-06
9.6840343e-06
9.7684974e-06
9.8229806e-06
9.8620479e-06
9.8921968e-06
9.9171723e-06
9.9386471e-06
9.9574733e-06
9.9743199e-06
9.9898149e-06
1.0004349e-05
1.0018256e-05
1.0031913e-05
1.0045542e-05
1.0059246e-05
1.0073126e-05
1.0087309e-05
1.0101931e-05
1.0117121e-05
1.0132999e-05
1.0149681e-05
1.0167281e-05
1.0185906e-05
1.0205662e-05
1.0226646e-05
1.0248945e-05
1.0272632e-05
1.0297748e-05
1.0324208e-05
1.0350981e-05
1.0365712e-05
1.0106367e-05
4.3237965e-06
4.0198207e-06
4.0424636e-06
4.0586091e-06
4.068427e-06
4.076038e-06
4.0812325e-06
4.0844814e-06
4.0862866e-06
4.0870261e-06
4.0869208e-06
4.0862008e-06
4.0849163e-06
4.0807908e-06
1.948017e-06
1.8973832e-06
1.8421321e-06
1.7872485e-06
1.7343443e-06
1.6846952e-06
1.6378054e-06
1.6010728e-06
1.5648298e-06
1.5764165e-06
1.6134888e-06
1.6831425e-06
1.7960697e-06
1.969427e-06
2.2227405e-06
2.5699375e-06
3.0323081e-06
3.5933651e-06
4.2392435e-06
4.9654553e-06
5.7636928e-06
6.5346363e-06
7.2475563e-06
7.9046094e-06
8.5021028e-06
9.0396971e-06
9.5209143e-06
9.9520853e-06
1.0344862e-05
1.0711048e-05
1.1053873e-05
1.1373252e-05
1.1665511e-05
1.1924933e-05
1.2154509e-05
1.2363487e-05
1.2561745e-05
1.276345e-05
1.297364e-05
1.3191203e-05
1.3412998e-05
1.3636507e-05
1.3859709e-05
1.4080247e-05
1.4299199e-05
1.4499716e-05
1.4692161e-05
1.49053e-05
1.5184395e-05
1.5557194e-05
1.5964747e-05
1.633506e-05
1.6653852e-05
1.6920361e-05
1.7144488e-05
1.7337048e-05
1.7507016e-05
1.7662344e-05
1.7808754e-05
1.7950253e-05
1.8087104e-05
1.8218957e-05
1.8346068e-05
1.8469266e-05
1.8588782e-05
1.8705173e-05
1.8819454e-05
1.893205e-05
1.9042991e-05
1.9152362e-05
1.9260379e-05
1.9367307e-05
1.947341e-05
1.9578931e-05
1.9684105e-05
1.9789155e-05
1.9894295e-05
1.999973e-05
2.0105652e-05
2.0212225e-05
2.0319597e-05
2.0427856e-05
2.0536839e-05
2.0644657e-05
2.0729095e-05
2.0547767e-05
1.7381618e-05
1.5978257e-05
1.4923275e-05
1.4266663e-05
1.3831595e-05
1.353711e-05
1.3329547e-05
1.3179397e-05
1.3068266e-05
1.2984393e-05
1.2919715e-05
1.2869122e-05
1.2828518e-05
1.2795048e-05
1.9726565e-06
1.954908e-06
1.9352192e-06
1.9145839e-06
1.8932853e-06
1.870911e-06
1.8472634e-06
1.8222991e-06
1.7959757e-06
1.7700731e-06
1.745468e-06
1.7231917e-06
1.704617e-06
1.6911212e-06
1.6784107e-06
1.6800446e-06
1.6922955e-06
1.736619e-06
1.8211754e-06
1.956001e-06
2.1562686e-06
2.4406778e-06
2.8220262e-06
3.3289299e-06
3.9423474e-06
4.6564519e-06
5.4813242e-06
6.3651687e-06
7.2668289e-06
8.1557234e-06
9.00714e-06
9.8012928e-06
1.0512255e-05
1.1155315e-05
1.175983e-05
1.2344553e-05
1.2912105e-05
1.3461508e-05
1.3987609e-05
1.4493615e-05
1.4983472e-05
1.5460893e-05
1.5926448e-05
1.6378479e-05
1.6817408e-05
1.7240499e-05
1.7646271e-05
1.8038087e-05
1.8435196e-05
1.8849095e-05
1.9273585e-05
1.9696587e-05
2.0101229e-05
2.0483566e-05
2.0845991e-05
2.1189637e-05
2.1515149e-05
2.1827074e-05
2.2131021e-05
2.2430449e-05
2.2722343e-05
2.3005558e-05
2.3280322e-05
2.3547664e-05
2.3807123e-05
2.4059726e-05
2.4307058e-05
2.4549288e-05
2.4786165e-05
2.5017697e-05
2.5244094e-05
2.5465621e-05
2.5682536e-05
2.5895074e-05
2.6103459e-05
2.6307909e-05
2.6508634e-05
2.6705844e-05
2.6899741e-05
2.7090513e-05
2.7278345e-05
2.7463387e-05
2.7645607e-05
2.7823895e-05
2.7984557e-05
2.8003817e-05
2.6872378e-05
2.6277352e-05
2.58245e-05
2.5548376e-05
2.5381005e-05
2.5286189e-05
2.5235026e-05
2.5210309e-05
2.5201368e-05
2.5202187e-05
2.5207061e-05
2.5218044e-05
2.5218288e-05
2.5252306e-05
1.9799706e-06
1.9710527e-06
1.9613241e-06
1.9511467e-06
1.9406012e-06
1.92969e-06
1.9184129e-06
1.9066627e-06
1.8944088e-06
1.8814982e-06
1.8678686e-06
1.8534478e-06
1.838232e-06
1.8224563e-06
1.8067331e-06
1.7914186e-06
1.7766877e-06
1.7631594e-06
1.7522076e-06
1.7444462e-06
1.7402158e-06
1.7435789e-06
1.7556698e-06
1.7869921e-06
1.8547792e-06
1.9700201e-06
2.1500533e-06
2.4159707e-06
2.7898736e-06
3.3079092e-06
3.9777148e-06
4.7836677e-06
5.7222503e-06
6.7367121e-06
7.7760436e-06
8.803286e-06
9.7943855e-06
1.0737497e-05
1.1632094e-05
1.2484129e-05
1.330212e-05
1.4094921e-05
1.485821e-05
1.5591759e-05
1.6312515e-05
1.7022464e-05
1.7710224e-05
1.8373354e-05
1.9017753e-05
1.9648165e-05
2.0266701e-05
2.0872627e-05
2.1465066e-05
2.2042214e-05
2.2601854e-05
2.3142489e-05
2.36637e-05
2.4174864e-05
2.4680017e-05
2.5180052e-05
2.5665272e-05
2.6137248e-05
2.6597099e-05
2.7046134e-05
2.7482372e-05
2.7908859e-05
2.8327329e-05
2.8736955e-05
2.9137345e-05
2.9528631e-05
2.9911072e-05
3.0284918e-05
3.0650393e-05
3.1007693e-05
3.1356998e-05
3.1698473e-05
3.2032272e-05
3.2358541e-05
3.267742e-05
3.2989038e-05
3.3293526e-05
3.3591001e-05
3.3881479e-05
3.416466e-05
3.4435031e-05
3.4651517e-05
3.4507667e-05
3.4475498e-05
3.4464457e-05
3.4504838e-05
3.4585102e-05
3.4695849e-05
3.4825125e-05
3.4964044e-05
3.5106372e-05
3.5249271e-05
3.5387203e-05
3.5529906e-05
3.5635939e-05
3.5848922e-05
1.9835954e-06
1.9782908e-06
1.9725653e-06
1.9665889e-06
1.9603964e-06
1.9539903e-06
1.9473671e-06
1.9405191e-06
1.9334392e-06
1.9261104e-06
1.9185101e-06
1.9106093e-06
1.902376e-06
1.8937716e-06
1.8848091e-06
1.8754643e-06
1.8657508e-06
1.8555701e-06
1.8448933e-06
1.8339407e-06
1.8230648e-06
1.8124716e-06
1.8023527e-06
1.7931975e-06
1.7865078e-06
1.78024e-06
1.7811318e-06
1.7865833e-06
1.8033539e-06
1.8357976e-06
1.9081559e-06
2.0374246e-06
2.2474626e-06
2.5677224e-06
3.0284727e-06
3.6828164e-06
4.5053412e-06
5.4843025e-06
6.5912414e-06
7.7642145e-06
8.9539532e-06
1.0124403e-05
1.1254675e-05
1.2338315e-05
1.3380862e-05
1.4393401e-05
1.5381888e-05
1.6345178e-05
1.7281712e-05
1.8192042e-05
1.9078892e-05
1.9939789e-05
2.0786244e-05
2.1612188e-05
2.2417786e-05
2.3203149e-05
2.396785e-05
2.4715152e-05
2.5448188e-05
2.6169502e-05
2.687621e-05
2.7567611e-05
2.8243777e-05
2.8905855e-05
2.9548301e-05
3.0181543e-05
3.08043e-05
3.1413573e-05
3.200989e-05
3.2593778e-05
3.3165589e-05
3.3725596e-05
3.4274038e-05
3.4811128e-05
3.5337055e-05
3.5851993e-05
3.6356094e-05
3.6849503e-05
3.7332351e-05
3.7804759e-05
3.8266848e-05
3.8718727e-05
3.9160447e-05
3.9592078e-05
4.0011789e-05
4.0409347e-05
4.0702978e-05
4.1006984e-05
4.1295053e-05
4.1582436e-05
4.1874572e-05
4.2173747e-05
4.2477193e-05
4.2781059e-05
4.3081614e-05
4.3377794e-05
4.3663263e-05
4.395494e-05
4.4183345e-05
4.4610294e-05
1.9858874e-06
1.9824194e-06
1.9786994e-06
1.9748209e-06
1.9708025e-06
1.9666445e-06
1.9623431e-06
1.9578934e-06
1.9532909e-06
1.9485308e-06
1.9436086e-06
1.9385196e-06
1.9332595e-06
1.9278226e-06
1.9222021e-06
1.9163885e-06
1.9103715e-06
1.9041362e-06
1.8976604e-06
1.8909196e-06
1.8839068e-06
1.876597e-06
1.8690311e-06
1.8609522e-06
1.852591e-06
1.8441117e-06
1.8357915e-06
1.8278003e-06
1.8203044e-06
1.8144369e-06
1.8082202e-06
1.8083944e-06
1.8119755e-06
1.8242585e-06
1.8518573e-06
1.9081862e-06
2.0219447e-06
2.2193834e-06
2.5370759e-06
3.0130658e-06
3.7197195e-06
4.6312401e-06
5.7325048e-06
6.9836288e-06
8.3127299e-06
9.661594e-06
1.099022e-05
1.2279915e-05
1.3528989e-05
1.4743492e-05
1.5929273e-05
1.7087389e-05
1.8218118e-05
1.9322784e-05
2.0402655e-05
2.1458988e-05
2.2491734e-05
2.3501403e-05
2.4490012e-05
2.5460314e-05
2.6412752e-05
2.734706e-05
2.8263075e-05
2.916162e-05
3.0040169e-05
3.0902637e-05
3.1750112e-05
3.2581903e-05
3.3397918e-05
3.4198453e-05
3.4983857e-05
3.5754443e-05
3.6510493e-05
3.7252261e-05
3.7979977e-05
3.8693849e-05
3.9394064e-05
4.0080793e-05
4.0754192e-05
4.1414402e-05
4.2061563e-05
4.2695802e-05
4.3317199e-05
4.3925959e-05
4.4521649e-05
4.5103301e-05
4.565478e-05
4.6196961e-05
4.6716247e-05
4.7216703e-05
4.7705399e-05
4.8188199e-05
4.8666748e-05
4.9140199e-05
4.9606345e-05
5.0065249e-05
5.0509367e-05
5.0962637e-05
5.1325244e-05
5.1991269e-05
1.9875567e-06
1.9851372e-06
1.9825558e-06
1.9798681e-06
1.9770847e-06
1.9742055e-06
1.9712275e-06
1.9681473e-06
1.9649613e-06
1.9616657e-06
1.9582572e-06
1.9547326e-06
1.9510889e-06
1.9473241e-06
1.9434358e-06
1.9394216e-06
1.9352782e-06
1.9310013e-06
1.9265861e-06
1.9220251e-06
1.9173097e-06
1.9124295e-06
1.9073759e-06
1.9021303e-06
1.8966709e-06
1.8909938e-06
1.885079e-06
1.8789267e-06
1.8725127e-06
1.8658343e-06
1.8588778e-06
1.8520115e-06
1.8453996e-06
1.839171e-06
1.834358e-06
1.8294769e-06
1.8299445e-06
1.8339966e-06
1.8472514e-06
1.8775239e-06
1.9382879e-06
2.0667169e-06
2.2980911e-06
2.6791714e-06
3.2708926e-06
4.1350953e-06
5.2403271e-06
6.561394e-06
8.0162189e-06
9.5272477e-06
1.1035008e-05
1.2507524e-05
1.3938704e-05
1.533553e-05
1.6704763e-05
1.8048107e-05
1.9364414e-05
2.0653367e-05
2.1916528e-05
2.3156144e-05
2.4373411e-05
2.5568837e-05
2.6742775e-05
2.7895967e-05
2.9027618e-05
3.0138632e-05
3.123039e-05
3.2303386e-05
3.3357737e-05
3.4393677e-05
3.5411537e-05
3.6411652e-05
3.7394347e-05
3.8359923e-05
3.9308659e-05
4.0240807e-05
4.1156597e-05
4.2056241e-05
4.293993e-05
4.3807842e-05
4.4660144e-05
4.5496989e-05
4.631849e-05
4.7124878e-05
4.7916216e-05
4.8693468e-05
4.9457376e-05
5.020897e-05
5.0938615e-05
5.1644376e-05
5.2330636e-05
5.30032e-05
5.3665525e-05
5.4318613e-05
5.4961366e-05
5.5594775e-05
5.6209993e-05
5.683808e-05
5.7346982e-05
5.8275332e-05
1.9888828e-06
1.9871148e-06
1.9852369e-06
1.9832839e-06
1.9812625e-06
1.9791722e-06
1.977011e-06
1.9747764e-06
1.9724658e-06
1.9700767e-06
1.9676063e-06
1.9650524e-06
1.9624125e-06
1.9596846e-06
1.9568668e-06
1.9539571e-06
1.9509531e-06
1.9478521e-06
1.9446508e-06
1.9413455e-06
1.937932e-06
1.9344064e-06
1.9307638e-06
1.9270001e-06
1.9231098e-06
1.919087e-06
1.9149239e-06
1.9106118e-06
1.9061419e-06
1.901498e-06
1.8966738e-06
1.8916472e-06
1.8864161e-06
1.8809664e-06
1.8752807e-06
1.8693652e-06
1.8635518e-06
1.8579741e-06
1.8529454e-06
1.8492175e-06
1.846463e-06
1.8480535e-06
1.8549612e-06
1.8748495e-06
1.9174457e-06
2.0113143e-06
2.1996701e-06
2.5381441e-06
3.090781e-06
3.9640231e-06
5.1273425e-06
6.5493637e-06
8.1447778e-06
9.8160384e-06
1.1490122e-05
1.3130909e-05
1.4733389e-05
1.6304992e-05
1.785077e-05
1.9370864e-05
2.086463e-05
2.2333057e-05
2.3777459e-05
2.5198492e-05
2.6595833e-05
2.7969671e-05
2.9320909e-05
3.0650237e-05
3.195804e-05
3.3244664e-05
3.4510444e-05
3.5755707e-05
3.6980795e-05
3.8186041e-05
3.9371752e-05
4.0538215e-05
4.1685697e-05
4.2814445e-05
4.3924686e-05
4.5016631e-05
4.6090476e-05
4.7146401e-05
4.8184548e-05
4.9205141e-05
5.0208404e-05
5.1195184e-05
5.2169198e-05
5.3129621e-05
5.4069813e-05
5.498547e-05
5.587793e-05
5.6751503e-05
5.761e-05
5.8455512e-05
5.9287821e-05
6.0108806e-05
6.0908369e-05
6.1724896e-05
6.2392487e-05
6.3605347e-05
1.9900091e-06
1.9886715e-06
1.987256e-06
1.9857854e-06
1.9842639e-06
1.982691e-06
1.9810653e-06
1.9793849e-06
1.9776481e-06
1.9758527e-06
1.973997e-06
1.9720792e-06
1.9700973e-06
1.9680499e-06
1.9659354e-06
1.963752e-06
1.961498e-06
1.959171e-06
1.9567687e-06
1.9542882e-06
1.9517264e-06
1.9490804e-06
1.9463471e-06
1.9435231e-06
1.9406053e-06
1.9375904e-06
1.934475e-06
1.9312555e-06
1.9279282e-06
1.9244885e-06
1.9209321e-06
1.9172524e-06
1.9134414e-06
1.9094914e-06
1.9053872e-06
1.901123e-06
1.8966761e-06
1.8920658e-06
1.8871786e-06
1.8821168e-06
1.8769918e-06
1.8720333e-06
1.8673393e-06
1.8636705e-06
1.8603988e-06
1.8612555e-06
1.8662062e-06
1.8819835e-06
1.9195432e-06
2.0016404e-06
2.1837508e-06
2.530581e-06
3.1213397e-06
4.0830783e-06
5.3819977e-06
6.974924e-06
8.7497948e-06
1.0594744e-05
1.2432963e-05
1.4234966e-05
1.6002928e-05
1.7745596e-05
1.9465292e-05
2.1160323e-05
2.2829949e-05
2.447477e-05
2.6095244e-05
2.769153e-05
2.9264002e-05
3.0813103e-05
3.2339092e-05
3.3842206e-05
3.5322754e-05
3.6781032e-05
3.821732e-05
3.9631899e-05
4.102504e-05
4.2396994e-05
4.3748002e-05
4.5078295e-05
4.638808e-05
4.7677549e-05
4.8946868e-05
5.0196233e-05
5.1425914e-05
5.2636267e-05
5.3830551e-05
5.5009233e-05
5.6168372e-05
5.7303398e-05
5.8413425e-05
5.9500906e-05
6.056917e-05
6.1620802e-05
6.2656255e-05
6.3678267e-05
6.4675574e-05
6.5694105e-05
6.6532763e-05
6.8051358e-05
1.9910181e-06
1.9899784e-06
1.9888815e-06
1.9877429e-06
1.9865652e-06
1.9853481e-06
1.9840904e-06
1.9827908e-06
1.9814479e-06
1.9800602e-06
1.9786263e-06
1.9771448e-06
1.9756143e-06
1.9740335e-06
1.9724012e-06
1.970716e-06
1.9689765e-06
1.9671809e-06
1.9653274e-06
1.9634138e-06
1.9614379e-06
1.9593972e-06
1.9572895e-06
1.9551121e-06
1.9528627e-06
1.9505385e-06
1.9481372e-06
1.9456559e-06
1.943092e-06
1.9404427e-06
1.9377049e-06
1.9348757e-06
1.9319515e-06
1.9289287e-06
1.9258032e-06
1.922571e-06
1.9192255e-06
1.9157614e-06
1.912167e-06
1.9084287e-06
1.9045411e-06
1.900494e-06
1.8962835e-06
1.8918752e-06
1.8873044e-06
1.8828571e-06
1.8786237e-06
1.8752487e-06
1.8723098e-06
1.8731396e-06
1.8781556e-06
1.8943432e-06
1.9346648e-06
2.0272318e-06
2.2397668e-06
2.6528931e-06
3.3811471e-06
4.5379994e-06
6.0760035e-06
7.911337e-06
9.899877e-06
1.1924039e-05
1.3922765e-05
1.588606e-05
1.7823138e-05
1.9738492e-05
2.1630247e-05
2.3497038e-05
2.5339465e-05
2.7157862e-05
2.8951972e-05
3.07218e-05
3.2467533e-05
3.4189266e-05
3.5887124e-05
3.7561303e-05
3.9211985e-05
4.0839358e-05
4.2443625e-05
4.4024984e-05
4.5583616e-05
4.7119688e-05
4.8633359e-05
5.0124788e-05
5.1594224e-05
5.3041575e-05
5.4469155e-05
5.5878532e-05
5.7267891e-05
5.8633429e-05
5.9973029e-05
6.1287457e-05
6.2579126e-05
6.3850632e-05
6.5102852e-05
6.6339309e-05
6.7547647e-05
6.8781521e-05
6.9803475e-05
7.1648254e-05
1.9919557e-06
1.9911298e-06
1.9902607e-06
1.9893591e-06
1.9884269e-06
1.9874637e-06
1.9864687e-06
1.9854407e-06
1.9843786e-06
1.9832815e-06
1.9821481e-06
1.9809773e-06
1.9797681e-06
1.9785195e-06
1.9772304e-06
1.9758997e-06
1.9745263e-06
1.9731089e-06
1.9716459e-06
1.9701356e-06
1.9685765e-06
1.9669666e-06
1.965304e-06
1.963587e-06
1.9618134e-06
1.9599814e-06
1.9580888e-06
1.9561336e-06
1.9541136e-06
1.9520266e-06
1.9498702e-06
1.947642e-06
1.9453394e-06
1.9429598e-06
1.9405004e-06
1.9379585e-06
1.9353312e-06
1.9326154e-06
1.9298082e-06
1.9269057e-06
1.9239033e-06
1.9207946e-06
1.9175738e-06
1.9142281e-06
1.9107499e-06
1.9071254e-06
1.903355e-06
1.8993942e-06
1.8952811e-06
1.8912835e-06
1.8875231e-06
1.8845472e-06
1.8825214e-06
1.8839668e-06
1.8908543e-06
1.9124034e-06
1.9655902e-06
2.0979599e-06
2.3968938e-06
2.9640696e-06
3.9975242e-06
5.4837746e-06
7.3612671e-06
9.4766031e-06
1.1675387e-05
1.3864226e-05
1.6018903e-05
1.8147673e-05
2.0256577e-05
2.234363e-05
2.4406811e-05
2.6446243e-05
2.846183e-05
3.0453022e-05
3.2419631e-05
3.4361612e-05
3.6278873e-05
3.8171408e-05
4.0039275e-05
4.1882533e-05
4.3701251e-05
4.5495501e-05
4.7265382e-05
4.901097e-05
5.0732437e-05
5.2429315e-05
5.4103176e-05
5.5756116e-05
5.7387732e-05
5.8995333e-05
6.0576386e-05
6.2130382e-05
6.3658673e-05
6.51635e-05
6.6645895e-05
6.8110035e-05
6.9542501e-05
7.1004809e-05
7.2222131e-05
7.4412956e-05
1.9928394e-06
1.9921717e-06
1.9914706e-06
1.9907436e-06
1.9899922e-06
1.9892159e-06
1.9884141e-06
1.9875859e-06
1.9867304e-06
1.9858468e-06
1.9849342e-06
1.9839918e-06
1.9830186e-06
1.9820139e-06
1.9809767e-06
1.9799062e-06
1.9788015e-06
1.9776615e-06
1.976485e-06
1.9752707e-06
1.9740172e-06
1.9727232e-06
1.9713871e-06
1.9700075e-06
1.9685828e-06
1.9671113e-06
1.9655916e-06
1.9640219e-06
1.9624005e-06
1.9607257e-06
1.9589955e-06
1.9572081e-06
1.9553613e-06
1.9534531e-06
1.9514813e-06
1.9494436e-06
1.9473378e-06
1.9451616e-06
1.9429125e-06
1.9405883e-06
1.9381862e-06
1.9357034e-06
1.933137e-06
1.9304835e-06
1.9277392e-06
1.9248983e-06
1.9219551e-06
1.9188976e-06
1.9157176e-06
1.9124017e-06
1.9089532e-06
1.9053201e-06
1.9016103e-06
1.8979806e-06
1.8949235e-06
1.8917136e-06
1.8919411e-06
1.8951238e-06
1.9072912e-06
1.9427614e-06
2.0304004e-06
2.2601768e-06
2.7442079e-06
3.6675767e-06
5.1388467e-06
7.0844141e-06
9.3433055e-06
1.1724028e-05
1.4104994e-05
1.6452097e-05
1.8774015e-05
2.1077529e-05
2.3360254e-05
2.5620004e-05
2.7856632e-05
3.0069575e-05
3.2258065e-05
3.4421748e-05
3.6560334e-05
3.8673549e-05
4.0761201e-05
4.282314e-05
4.4859297e-05
4.6869592e-05
4.8854024e-05
5.0811753e-05
5.2743879e-05
5.4652639e-05
5.6538373e-05
5.8399436e-05
6.0233404e-05
6.2038969e-05
6.3816481e-05
6.5567587e-05
6.7293215e-05
6.8998015e-05
7.0667492e-05
7.2371098e-05
7.3795737e-05
7.6352011e-05
1.9936697e-06
1.9931219e-06
1.9925478e-06
1.9919529e-06
1.991338e-06
1.990703e-06
1.9900471e-06
1.9893697e-06
1.9886702e-06
1.9879478e-06
1.9872018e-06
1.9864316e-06
1.9856363e-06
1.9848154e-06
1.9839681e-06
1.9830937e-06
1.9821914e-06
1.9812604e-06
1.9802997e-06
1.9793082e-06
1.9782849e-06
1.9772286e-06
1.9761382e-06
1.9750124e-06
1.9738501e-06
1.9726498e-06
1.9714104e-06
1.9701304e-06
1.9688086e-06
1.9674434e-06
1.9660334e-06
1.964577e-06
1.9630726e-06
1.9615185e-06
1.9599129e-06
1.958254e-06
1.95654e-06
1.9547689e-06
1.952939e-06
1.9510481e-06
1.9490941e-06
1.9470749e-06
1.9449881e-06
1.9428314e-06
1.9406023e-06
1.9382982e-06
1.935916e-06
1.9334525e-06
1.9309043e-06
1.9282657e-06
1.9255319e-06
1.9226909e-06
1.9197358e-06
1.9166559e-06
1.9134374e-06
1.9100029e-06
1.906649e-06
1.9034816e-06
1.9009082e-06
1.8993992e-06
1.9010462e-06
1.9090774e-06
1.9352281e-06
2.004624e-06
2.1976653e-06
2.6421312e-06
3.5340805e-06
5.0515521e-06
7.1166695e-06
9.5477611e-06
1.2120094e-05
1.4693861e-05
1.7233909e-05
1.9751078e-05
2.2251166e-05
2.4731001e-05
2.7188688e-05
2.9623805e-05
3.2035312e-05
3.4422264e-05
3.6784021e-05
3.9119996e-05
4.1429789e-05
4.3713021e-05
4.5969372e-05
4.8197537e-05
5.0398318e-05
5.2573894e-05
5.4724801e-05
5.6850141e-05
5.8947846e-05
6.1016214e-05
6.3054772e-05
6.5064464e-05
6.7045896e-05
6.900398e-05
7.0923083e-05
7.288062e-05
7.4524365e-05
7.7465088e-05
1.9944431e-06
1.9939882e-06
1.9935123e-06
1.9930193e-06
1.9925099e-06
1.9919839e-06
1.9914406e-06
1.9908796e-06
1.9903004e-06
1.9897023e-06
1.9890848e-06
1.9884472e-06
1.9877891e-06
1.9871098e-06
1.9864088e-06
1.9856854e-06
1.984939e-06
1.9841688e-06
1.9833742e-06
1.9825543e-06
1.9817081e-06
1.9808347e-06
1.9799333e-06
1.9790027e-06
1.9780421e-06
1.9770503e-06
1.9760263e-06
1.9749689e-06
1.9738772e-06
1.9727498e-06
1.9715857e-06
1.9703834e-06
1.9691417e-06
1.9678592e-06
1.9665345e-06
1.9651661e-06
1.9637525e-06
1.9622921e-06
1.9607835e-06
1.9592249e-06
1.9576146e-06
1.9559509e-06
1.9542318e-06
1.9524553e-06
1.9506195e-06
1.9487221e-06
1.946761e-06
1.9447338e-06
1.942638e-06
1.9404712e-06
1.9382309e-06
1.9359144e-06
1.9335182e-06
1.9310379e-06
1.9284648e-06
1.9257908e-06
1.9229992e-06
1.9200973e-06
1.9170246e-06
1.9138959e-06
1.9108738e-06
1.9083453e-06
1.9063747e-06
1.9074619e-06
1.9137688e-06
1.9358162e-06
1.9982691e-06
2.1818966e-06
2.6322366e-06
3.5775303e-06
5.2252313e-06
7.4828506e-06
1.0126919e-05
1.2903613e-05
1.5671749e-05
1.8406984e-05
2.1122962e-05
2.382262e-05
2.6502259e-05
2.9160368e-05
3.1795889e-05
3.4407441e-05
3.69941e-05
3.9554968e-05
4.2089165e-05
4.4594741e-05
4.7072229e-05
4.9523642e-05
5.1949286e-05
5.4348603e-05
5.671987e-05
5.9061258e-05
6.1371694e-05
6.3651409e-05
6.590052e-05
6.8123986e-05
7.0304937e-05
7.2528705e-05
7.4403098e-05
7.7747971e-05
1.99516e-06
1.9947783e-06
1.9943795e-06
1.9939667e-06
1.9935401e-06
1.9930997e-06
1.9926449e-06
1.9921753e-06
1.9916905e-06
1.9911899e-06
1.9906732e-06
1.9901398e-06
1.9895892e-06
1.989021e-06
1.9884346e-06
1.9878296e-06
1.9872054e-06
1.9865615e-06
1.985897e-06
1.9852115e-06
1.9845041e-06
1.9837741e-06
1.9830206e-06
1.982243e-06
1.9814403e-06
1.9806116e-06
1.9797562e-06
1.9788731e-06
1.9779614e-06
1.9770201e-06
1.9760481e-06
1.9750446e-06
1.9740082e-06
1.972938e-06
1.9718328e-06
1.9706913e-06
1.9695122e-06
1.9682945e-06
1.9670367e-06
1.9657374e-06
1.9643954e-06
1.963009e-06
1.9615767e-06
1.960097e-06
1.958568e-06
1.9569881e-06
1.9553555e-06
1.953668e-06
1.9519238e-06
1.9501208e-06
1.9482571e-06
1.9463307e-06
1.9443395e-06
1.9422813e-06
1.9401533e-06
1.937953e-06
1.9356753e-06
1.9333158e-06
1.9308636e-06
1.9283088e-06
1.9256515e-06
1.9228369e-06
1.9199182e-06
1.9170808e-06
1.9146818e-06
1.9126837e-06
1.9136216e-06
1.9195575e-06
1.9412378e-06
2.0056721e-06
2.2071143e-06
2.7140466e-06
3.8186357e-06
5.7006661e-06
8.2331383e-06
1.1126655e-05
1.4114539e-05
1.7078607e-05
2.0013633e-05
2.2932496e-05
2.5834291e-05
2.8716132e-05
3.1576933e-05
3.441495e-05
3.7228408e-05
4.0014474e-05
4.2773293e-05
4.5506613e-05
4.8214161e-05
5.089527e-05
5.3548339e-05
5.617151e-05
5.876329e-05
6.1323245e-05
6.3850897e-05
6.6351044e-05
6.880545e-05
7.1307262e-05
7.342348e-05
7.7191608e-05
1.9958233e-06
1.9955001e-06
1.995163e-06
1.994814e-06
1.9944535e-06
1.9940813e-06
1.993697e-06
1.9933003e-06
1.9928907e-06
1.9924679e-06
1.9920315e-06
1.991581e-06
1.9911161e-06
1.9906363e-06
1.9901413e-06
1.9896305e-06
1.9891036e-06
1.98856e-06
1.9879992e-06
1.9874206e-06
1.9868236e-06
1.9862076e-06
1.9855719e-06
1.9849158e-06
1.9842387e-06
1.9835398e-06
1.9828184e-06
1.9820738e-06
1.9813051e-06
1.9805115e-06
1.9796923e-06
1.9788465e-06
1.9779732e-06
1.9770715e-06
1.9761405e-06
1.975179e-06
1.9741861e-06
1.9731607e-06
1.9721018e-06
1.9710082e-06
1.9698787e-06
1.9687121e-06
1.9675071e-06
1.9662623e-06
1.9649764e-06
1.963648e-06
1.9622754e-06
1.960857e-06
1.9593912e-06
1.9578763e-06
1.9563107e-06
1.9546926e-06
1.9530204e-06
1.9512921e-06
1.9495058e-06
1.9476592e-06
1.9457501e-06
1.9437761e-06
1.9417347e-06
1.9396223e-06
1.9374352e-06
1.9351636e-06
1.9327981e-06
1.9303357e-06
1.9277271e-06
1.9250034e-06
1.9223582e-06
1.9201112e-06
1.918356e-06
1.9194557e-06
1.9262379e-06
1.9517378e-06
2.0286038e-06
2.2842514e-06
2.9158601e-06
4.3389901e-06
6.5762665e-06
9.4448562e-06
1.2598968e-05
1.5790763e-05
1.8950192e-05
2.2089477e-05
2.5215043e-05
2.8323e-05
3.1410884e-05
3.4475005e-05
3.7514883e-05
4.0531903e-05
4.3524914e-05
4.6492663e-05
4.9433301e-05
5.2344852e-05
5.5225487e-05
5.8074161e-05
6.0889731e-05
6.3676639e-05
6.6415131e-05
6.9206021e-05
7.1574688e-05
7.57833e-05
1.9964393e-06
1.9961635e-06
1.9958761e-06
1.9955788e-06
1.9952717e-06
1.9949546e-06
1.9946272e-06
1.9942893e-06
1.9939404e-06
1.9935804e-06
1.9932087e-06
1.9928252e-06
1.9924293e-06
1.9920209e-06
1.9915995e-06
1.9911647e-06
1.9907162e-06
1.9902535e-06
1.9897763e-06
1.9892839e-06
1.9887759e-06
1.9882518e-06
1.9877109e-06
1.9871528e-06
1.9865769e-06
1.9859825e-06
1.985369e-06
1.9847359e-06
1.9840823e-06
1.9834077e-06
1.9827114e-06
1.9819926e-06
1.9812505e-06
1.9804843e-06
1.9796934e-06
1.9788767e-06
1.9780334e-06
1.9771627e-06
1.9762636e-06
1.9753352e-06
1.9743764e-06
1.9733863e-06
1.9723638e-06
1.9713078e-06
1.970217e-06
1.9690903e-06
1.9679263e-06
1.9667238e-06
1.9654813e-06
1.9641974e-06
1.9628708e-06
1.9615001e-06
1.9600836e-06
1.95862e-06
1.9571074e-06
1.955544e-06
1.9539279e-06
1.9522573e-06
1.9505301e-06
1.9487443e-06
1.9468979e-06
1.9449886e-06
1.9430131e-06
1.9409683e-06
1.9388448e-06
1.9366334e-06
1.9343311e-06
1.9318881e-06
1.9293432e-06
1.9268929e-06
1.9248034e-06
1.9235905e-06
1.925235e-06
1.9345253e-06
1.9682068e-06
2.0771093e-06
2.4421413e-06
3.3409299e-06
5.1895146e-06
7.8991551e-06
1.1146825e-05
1.4558982e-05
1.7955123e-05
2.1321149e-05
2.4672371e-05
2.8005739e-05
3.1320027e-05
3.4616788e-05
3.7893731e-05
4.1148588e-05
4.4378845e-05
4.7582165e-05
5.0756347e-05
5.3899726e-05
5.7010431e-05
6.0092361e-05
6.3124071e-05
6.621385e-05
6.8844646e-05
7.3510277e-05
1.9970171e-06
1.9967801e-06
1.9965333e-06
1.9962781e-06
1.9960145e-06
1.9957424e-06
1.9954615e-06
1.9951715e-06
1.9948723e-06
1.9945633e-06
1.9942445e-06
1.9939155e-06
1.993576e-06
1.9932257e-06
1.9928644e-06
1.9924915e-06
1.992107e-06
1.9917103e-06
1.9913011e-06
1.990879e-06
1.9904435e-06
1.9899942e-06
1.9895307e-06
1.9890524e-06
1.9885589e-06
1.9880496e-06
1.987524e-06
1.9869816e-06
1.9864218e-06
1.9858441e-06
1.9852477e-06
1.9846322e-06
1.9839969e-06
1.9833411e-06
1.982664e-06
1.9819651e-06
1.9812435e-06
1.9804985e-06
1.9797293e-06
1.9789352e-06
1.9781152e-06
1.9772685e-06
1.9763943e-06
1.9754915e-06
1.9745591e-06
1.9735962e-06
1.9726016e-06
1.9715742e-06
1.9705129e-06
1.9694164e-06
1.9682837e-06
1.9671134e-06
1.9659044e-06
1.9646552e-06
1.9633646e-06
1.9620308e-06
1.9606524e-06
1.9592276e-06
1.9577549e-06
1.9562325e-06
1.9546587e-06
1.9530315e-06
1.9513491e-06
1.9496096e-06
1.9478107e-06
1.9459498e-06
1.9440235e-06
1.942023e-06
1.9399385e-06
1.9377691e-06
1.9354608e-06
1.9330599e-06
1.9309434e-06
1.928446e-06
1.9285907e-06
1.9315038e-06
1.9463282e-06
1.9964269e-06
2.1861218e-06
2.7479917e-06
4.1408896e-06
6.5752681e-06
9.8167082e-06
1.3413651e-05
1.7049716e-05
2.0646131e-05
2.4223034e-05
2.7789954e-05
3.1343098e-05
3.4879663e-05
3.839636e-05
4.1890282e-05
4.5358708e-05
4.8799257e-05
5.220923e-05
5.5591801e-05
5.8923637e-05
6.2320271e-05
6.5221386e-05
7.0358865e-05
1.9975655e-06
1.9973605e-06
1.9971473e-06
1.9969268e-06
1.9966991e-06
1.996464e-06
1.9962214e-06
1.995971e-06
1.9957125e-06
1.9954457e-06
1.9951704e-06
1.9948864e-06
1.9945932e-06
1.9942908e-06
1.9939789e-06
1.993657e-06
1.9933251e-06
1.9929827e-06
1.9926295e-06
1.9922652e-06
1.9918895e-06
1.9915018e-06
1.9911019e-06
1.9906892e-06
1.9902635e-06
1.9898242e-06
1.9893709e-06
1.9889031e-06
1.9884204e-06
1.9879223e-06
1.9874082e-06
1.9868776e-06
1.98633e-06
1.9857648e-06
1.9851813e-06
1.9845791e-06
1.9839574e-06
1.9833157e-06
1.9826532e-06
1.9819693e-06
1.9812632e-06
1.9805343e-06
1.9797817e-06
1.9790046e-06
1.9782022e-06
1.9773736e-06
1.9765179e-06
1.9756341e-06
1.9747213e-06
1.9737784e-06
1.9728045e-06
1.9717984e-06
1.9707593e-06
1.9696858e-06
1.9685768e-06
1.967431e-06
1.9662471e-06
1.9650236e-06
1.9637592e-06
1.9624524e-06
1.9611016e-06
1.9597054e-06
1.958262e-06
1.9567697e-06
1.9552269e-06
1.9536317e-06
1.9519823e-06
1.9502766e-06
1.9485119e-06
1.9466848e-06
1.9447884e-06
1.9428027e-06
1.9407637e-06
1.9385052e-06
1.9362845e-06
1.9343186e-06
1.9325446e-06
1.9333483e-06
1.9395423e-06
1.9658604e-06
2.0578866e-06
2.4122815e-06
3.3784212e-06
5.4943882e-06
8.6425799e-06
1.2374454e-05
1.6245336e-05
2.0087899e-05
2.3906231e-05
2.771362e-05
3.1507478e-05
3.5285039e-05
3.904314e-05
4.2778559e-05
4.6487695e-05
5.0172813e-05
5.3808485e-05
5.7517249e-05
6.0694648e-05
6.6316183e-05
1.9980919e-06
1.9979135e-06
1.9977282e-06
1.9975366e-06
1.9973388e-06
1.9971345e-06
1.9969237e-06
1.9967061e-06
1.9964816e-06
1.9962498e-06
1.9960107e-06
1.995764e-06
1.9955094e-06
1.9952468e-06
1.9949758e-06
1.9946964e-06
1.9944081e-06
1.9941108e-06
1.9938042e-06
1.9934879e-06
1.9931617e-06
1.9928252e-06
1.9924781e-06
1.99212e-06
1.9917505e-06
1.9913693e-06
1.990976e-06
1.9905702e-06
1.9901514e-06
1.9897193e-06
1.9892734e-06
1.9888133e-06
1.9883384e-06
1.9878483e-06
1.9873425e-06
1.9868204e-06
1.9862816e-06
1.9857254e-06
1.9851513e-06
1.9845587e-06
1.983947e-06
1.9833156e-06
1.9826637e-06
1.9819907e-06
1.9812959e-06
1.9805785e-06
1.9798377e-06
1.9790728e-06
1.9782828e-06
1.9774669e-06
1.9766243e-06
1.9757541e-06
1.9748553e-06
1.973927e-06
1.9729682e-06
1.9719777e-06
1.9709544e-06
1.9698971e-06
1.9688047e-06
1.9676758e-06
1.9665092e-06
1.9653035e-06
1.9640574e-06
1.9627694e-06
1.9614379e-06
1.9600614e-06
1.9586384e-06
1.957167e-06
1.9556457e-06
1.9540726e-06
1.9524459e-06
1.9507624e-06
1.9490192e-06
1.9472088e-06
1.9453121e-06
1.9433399e-06
1.9412164e-06
1.9391747e-06
1.9373935e-06
1.9367863e-06
1.9391093e-06
1.9528855e-06
2.0046285e-06
2.2183717e-06
2.8892176e-06
4.6909921e-06
7.676878e-06
1.1492245e-05
1.5587974e-05
1.9679946e-05
2.3741865e-05
2.7792249e-05
3.1830221e-05
3.5852591e-05
3.9855425e-05
4.3840085e-05
4.7778938e-05
5.1801312e-05
5.5257812e-05
6.1371746e-05
1.9986023e-06
1.9984464e-06
1.9982845e-06
1.9981171e-06
1.9979442e-06
1.9977658e-06
1.9975817e-06
1.9973916e-06
1.9971955e-06
1.9969931e-06
1.9967843e-06
1.9965688e-06
1.9963465e-06
1.9961172e-06
1.9958807e-06
1.9956367e-06
1.995385e-06
1.9951255e-06
1.9948579e-06
1.9945818e-06
1.9942971e-06
1.9940034e-06
1.9937005e-06
1.993388e-06
1.9930656e-06
1.992733e-06
1.9923899e-06
1.9920359e-06
1.9916706e-06
1.9912938e-06
1.9909049e-06
1.9905037e-06
1.9900896e-06
1.9896624e-06
1.9892215e-06
1.9887664e-06
1.9882968e-06
1.9878121e-06
1.9873119e-06
1.9867956e-06
1.9862627e-06
1.9857127e-06
1.985145e-06
1.9845589e-06
1.9839539e-06
1.9833293e-06
1.9826844e-06
1.9820186e-06
1.9813311e-06
1.9806212e-06
1.9798881e-06
1.9791311e-06
1.9783494e-06
1.9775421e-06
1.9767084e-06
1.9758472e-06
1.9749577e-06
1.9740389e-06
1.9730896e-06
1.9721088e-06
1.9710955e-06
1.9700484e-06
1.9689664e-06
1.9678482e-06
1.9666926e-06
1.9654981e-06
1.9642634e-06
1.9629871e-06
1.9616676e-06
1.9603033e-06
1.9588928e-06
1.9574344e-06
1.955926e-06
1.9543667e-06
1.9527525e-06
1.9510797e-06
1.9493364e-06
1.9475251e-06
1.945571e-06
1.9435936e-06
1.94181e-06
1.9402401e-06
1.9412079e-06
1.9483252e-06
1.980059e-06
2.1032496e-06
2.6010574e-06
4.0293412e-06
6.8525209e-06
1.0749016e-05
1.5077493e-05
1.9431967e-05
2.3746239e-05
2.8045254e-05
3.2331719e-05
3.6607467e-05
4.0843479e-05
4.517598e-05
4.8910174e-05
5.5519395e-05
1.9991022e-06
1.9989652e-06
1.998823e-06
1.9986761e-06
1.9985244e-06
1.9983678e-06
1.9982061e-06
1.9980393e-06
1.9978672e-06
1.9976896e-06