/*--------------------------------*- C++ -*----------------------------------*\
  =========                 |
  \\      /  F ield         | OpenFOAM: The Open Source CFD Toolbox
   \\    /   O peration     | Website:  https://openfoam.org
    \\  /    A nd           | Version:  12
     \\/     M anipulation  |
\*---------------------------------------------------------------------------*/
FoamFile
{
    format      ascii;
    class       surfaceScalarField;
    location    "1100";
    object      phi;
}
// * * * * * * * * * * * * * * * * * * * * * * * * * * * * * * * * * * * * * //

dimensions      [0 3 -1 0 0 0 0];

internalField   nonuniform List<scalar> 
25880
(
2.0046363e-06
1.7856543e-11
2.0045835e-06
5.2790343e-11
2.0045057e-06
7.7792854e-11
2.004415e-06
9.0665799e-11
2.0043134e-06
1.0160935e-10
2.0042007e-06
1.1275939e-10
2.0040766e-06
1.2405091e-10
2.0039409e-06
1.3567626e-10
2.0037928e-06
1.4810077e-10
2.0036311e-06
1.6178528e-10
2.0034539e-06
1.7717716e-10
2.003259e-06
1.9484144e-10
2.0030435e-06
2.1554885e-10
2.002803e-06
2.4053875e-10
2.0025316e-06
2.7135106e-10
2.00222e-06
3.1159434e-10
2.0018567e-06
3.6335599e-10
2.001413e-06
4.4362216e-10
2.0008726e-06
5.4044255e-10
2.000097e-06
7.7556134e-10
1.9991268e-06
9.7022765e-10
1.996433e-06
2.6938213e-09
1.9943497e-06
2.0832702e-09
1.0260761e-06
9.682736e-07
4.3196211e-08
9.828799e-07
2.7416535e-08
1.5779676e-08
2.5387014e-08
2.029521e-09
2.4570919e-08
8.1609488e-10
2.3988674e-08
5.8224489e-10
2.3490001e-08
4.9867364e-10
2.3048781e-08
4.4121979e-10
2.2654175e-08
3.9460563e-10
2.2297586e-08
3.5658939e-10
2.1972061e-08
3.2552502e-10
2.1672528e-08
2.9953322e-10
2.1395245e-08
2.7728248e-10
2.1137285e-08
2.5796078e-10
2.0896245e-08
2.4103928e-10
2.0670136e-08
2.2610974e-10
2.0457293e-08
2.1284223e-10
2.0256314e-08
2.0097932e-10
2.0065988e-08
1.9032636e-10
1.988526e-08
1.8072776e-10
1.9713219e-08
1.7204111e-10
1.954906e-08
1.6415895e-10
1.9392086e-08
1.5697421e-10
1.9241686e-08
1.5039937e-10
1.9097302e-08
1.443845e-10
1.8958446e-08
1.3885585e-10
1.8824691e-08
1.3375437e-10
1.8695635e-08
1.2905662e-10
1.8570917e-08
1.2471787e-10
1.8450228e-08
1.2068931e-10
1.8333275e-08
1.1695266e-10
1.8219782e-08
1.1349281e-10
1.8109512e-08
1.1027001e-10
1.8002255e-08
1.0725705e-10
1.7897801e-08
1.0445374e-10
1.7795954e-08
1.0184718e-10
1.7696548e-08
9.9405879e-11
1.7599435e-08
9.7113284e-11
1.7504461e-08
9.4973911e-11
1.7411479e-08
9.298212e-11
1.7320367e-08
9.1111969e-11
1.7231017e-08
8.9349714e-11
1.7143315e-08
8.7701947e-11
1.7057149e-08
8.6166822e-11
1.697242e-08
8.4729054e-11
1.6889045e-08
8.3374927e-11
1.6806941e-08
8.2103583e-11
1.6726022e-08
8.0919385e-11
1.6646202e-08
7.9819321e-11
1.6567415e-08
7.8787461e-11
1.6489598e-08
7.7816481e-11
1.6412685e-08
7.6913728e-11
1.6336604e-08
7.608066e-11
1.6261294e-08
7.5310104e-11
1.6186702e-08
7.4591626e-11
1.6112779e-08
7.3923552e-11
1.6039466e-08
7.3312416e-11
1.5966706e-08
7.2760324e-11
1.5894448e-08
7.2258087e-11
1.582265e-08
7.1797984e-11
1.5751266e-08
7.1383849e-11
1.5680245e-08
7.1021102e-11
1.5609534e-08
7.0710868e-11
1.5539091e-08
7.0443446e-11
1.5468877e-08
7.0213645e-11
1.5398848e-08
7.0029382e-11
1.5328952e-08
6.9895415e-11
1.5259143e-08
6.9809436e-11
1.5189379e-08
6.9764216e-11
1.511962e-08
6.9758381e-11
1.5049819e-08
6.9800784e-11
1.4979922e-08
6.9897511e-11
1.4909881e-08
7.0040626e-11
1.4839657e-08
7.0224564e-11
1.4769198e-08
7.0458622e-11
1.4698447e-08
7.0750989e-11
1.4627347e-08
7.1099877e-11
1.4555848e-08
7.1499416e-11
1.4483895e-08
7.1952988e-11
1.4411423e-08
7.247191e-11
1.4338364e-08
7.3058924e-11
1.4264656e-08
7.370808e-11
1.4190232e-08
7.4423735e-11
1.4115012e-08
7.5220542e-11
1.4038911e-08
7.6101076e-11
1.3961849e-08
7.7061456e-11
1.3883737e-08
7.8112202e-11
1.3804465e-08
7.9271683e-11
1.3723935e-08
8.0530435e-11
1.3642008e-08
8.1926878e-11
1.3562043e-08
7.9964508e-11
1.3485878e-08
7.616522e-11
1.3413226e-08
7.2652546e-11
1.3343812e-08
6.9413118e-11
1.3277384e-08
6.6428343e-11
1.3213717e-08
6.3667414e-11
1.3152614e-08
6.1102538e-11
1.3093893e-08
5.8721574e-11
1.3037379e-08
5.6513768e-11
1.2982922e-08
5.445672e-11
1.2930391e-08
5.2531091e-11
1.2879661e-08
5.0730232e-11
1.2830611e-08
4.9049783e-11
1.2783125e-08
4.7486515e-11
1.2737099e-08
4.6025862e-11
1.2692419e-08
4.4679788e-11
1.2649007e-08
4.3411732e-11
1.2606607e-08
4.2400239e-11
1.2565321e-08
4.1286284e-11
1.2523934e-08
4.1386485e-11
1.2484464e-08
3.9470333e-11
1.2435807e-08
4.8656811e-11
3.0833321e-11
2.0345099e-06
3.5986014e-11
2.0344563e-06
1.0640441e-10
2.0343773e-06
1.5682246e-10
2.0342852e-06
1.8278903e-10
2.0341819e-06
2.0485807e-10
2.0340673e-06
2.2733838e-10
2.0339413e-06
2.5010159e-10
2.0338034e-06
2.7353596e-10
2.0336529e-06
2.9857951e-10
2.0334886e-06
3.2616109e-10
2.0333086e-06
3.5718244e-10
2.0331106e-06
3.9278236e-10
2.0328917e-06
4.3451407e-10
2.0326473e-06
4.8487514e-10
2.0323717e-06
5.4696868e-10
2.0320552e-06
6.280665e-10
2.0316862e-06
7.3237442e-10
2.0312357e-06
8.941213e-10
2.0306869e-06
1.089224e-09
2.0298995e-06
1.5630025e-09
2.0289145e-06
1.9552573e-09
2.02618e-06
5.4282507e-09
2.0240639e-06
4.1994205e-09
1.0974681e-06
1.8948694e-06
1.2965335e-07
1.9506946e-06
8.3890238e-08
6.154279e-08
7.7682357e-08
8.2374011e-09
7.5183554e-08
3.3148978e-09
7.3400376e-08
2.3654229e-09
7.1874271e-08
2.0247791e-09
7.0524271e-08
1.7912202e-09
6.9316881e-08
1.6019949e-09
6.8225799e-08
1.4476714e-09
6.7229783e-08
1.3215412e-09
6.631331e-08
1.2160066e-09
6.5464923e-08
1.1256688e-09
6.4675655e-08
1.0472295e-09
6.3938159e-08
9.7853526e-10
6.3246341e-08
9.1792718e-10
6.2595117e-08
8.6406613e-10
6.1980189e-08
8.1590749e-10
6.1397854e-08
7.7266157e-10
6.0844887e-08
7.3369465e-10
6.0318497e-08
6.9843155e-10
5.9816223e-08
6.6643253e-10
5.9335932e-08
6.3726558e-10
5.8875755e-08
6.1057575e-10
5.8433983e-08
5.8615643e-10
5.8009127e-08
5.6371255e-10
5.7599877e-08
5.4300394e-10
5.7205002e-08
5.2393193e-10
5.6823402e-08
5.0631798e-10
5.6454126e-08
4.8996454e-10
5.6096284e-08
4.7479539e-10
5.5749028e-08
4.6074856e-10
5.5411632e-08
4.4766557e-10
5.5083454e-08
4.3543517e-10
5.4763854e-08
4.2405429e-10
5.4452229e-08
4.1347174e-10
5.4148074e-08
4.0356139e-10
5.3850932e-08
3.9425518e-10
5.3560336e-08
3.8556975e-10
5.3275835e-08
3.7748288e-10
5.2997056e-08
3.6989106e-10
5.2723668e-08
3.6273786e-10
5.2455322e-08
3.5604821e-10
5.2191673e-08
3.4981557e-10
5.1932423e-08
3.439786e-10
5.1677316e-08
3.3848195e-10
5.1426099e-08
3.3332093e-10
5.1178505e-08
3.2851324e-10
5.0934278e-08
3.2404677e-10
5.0693207e-08
3.1985807e-10
5.0455107e-08
3.1591688e-10
5.0219769e-08
3.1225179e-10
4.998698e-08
3.0886951e-10
4.9756549e-08
3.0574108e-10
4.9528316e-08
3.0282472e-10
4.9302126e-08
3.0011288e-10
4.9077807e-08
2.9763174e-10
4.8855177e-08
2.9539003e-10
4.8634084e-08
2.9335114e-10
4.8414398e-08
2.9148379e-10
4.819598e-08
2.8980258e-10
4.7978671e-08
2.8832985e-10
4.7762312e-08
2.8707004e-10
4.7546771e-08
2.859846e-10
4.7331932e-08
2.8505217e-10
4.7117657e-08
2.8430404e-10
4.6903793e-08
2.8376003e-10
4.6690191e-08
2.8341084e-10
4.6476728e-08
2.8322757e-10
4.6263282e-08
2.8320417e-10
4.6049707e-08
2.8337629e-10
4.5835836e-08
2.8376868e-10
4.5621526e-08
2.8434984e-10
4.5406654e-08
2.8509701e-10
4.5191065e-08
2.8604723e-10
4.4974582e-08
2.8723402e-10
4.4757032e-08
2.886504e-10
4.4538258e-08
2.9027273e-10
4.4318097e-08
2.921143e-10
4.4096348e-08
2.9422089e-10
4.3872803e-08
2.9660398e-10
4.3647272e-08
2.9923965e-10
4.341955e-08
3.0214524e-10
4.3189391e-08
3.0537996e-10
4.2956537e-08
3.0895475e-10
4.2720744e-08
3.1285393e-10
4.2481737e-08
3.171198e-10
4.2239182e-08
3.218269e-10
4.1992775e-08
3.2693723e-10
4.1742095e-08
3.3260699e-10
4.1497419e-08
3.2464018e-10
4.1264369e-08
3.0921559e-10
4.1042066e-08
2.9495491e-10
4.0829676e-08
2.818035e-10
4.0626419e-08
2.696858e-10
4.0431609e-08
2.5847704e-10
4.0244647e-08
2.4806428e-10
4.0064971e-08
2.3839799e-10
3.989205e-08
2.2943456e-10
3.9725423e-08
2.2108334e-10
3.9564689e-08
2.1326575e-10
3.9409464e-08
2.0595451e-10
3.9259382e-08
1.9913205e-10
3.9114083e-08
1.927852e-10
3.8973254e-08
1.8685497e-10
3.8836544e-08
1.813899e-10
3.8703715e-08
1.7624085e-10
3.8573982e-08
1.7213361e-10
3.8447662e-08
1.6760607e-10
3.8321033e-08
1.6801531e-10
3.8200338e-08
1.601656e-10
3.8051172e-08
1.9782218e-10
1.2473942e-10
2.0947024e-06
5.4659497e-11
2.0946472e-06
1.6164665e-10
2.0945657e-06
2.3827834e-10
2.0944707e-06
2.7775889e-10
2.0943643e-06
3.1130418e-10
2.0942462e-06
3.4546613e-10
2.0941162e-06
3.8005399e-10
2.0939741e-06
4.1565869e-10
2.093819e-06
4.5370526e-10
2.0936495e-06
4.9560486e-10
2.093464e-06
5.4272743e-10
2.09326e-06
5.9680282e-10
2.0930343e-06
6.6019023e-10
2.0927825e-06
7.3668312e-10
2.0924984e-06
8.3099439e-10
2.0921723e-06
9.5416859e-10
2.0917921e-06
1.1125924e-09
2.091328e-06
1.3582521e-09
2.0907627e-06
1.6545654e-09
2.0899515e-06
2.3741149e-09
2.088937e-06
2.969805e-09
2.0861211e-06
8.2441532e-09
2.0839412e-06
6.3792994e-09
1.1864421e-06
2.7923686e-06
2.2125276e-07
2.9158839e-06
1.4538211e-07
1.3741344e-07
1.3462324e-07
1.8996264e-08
1.3029064e-07
7.6475015e-09
1.2719841e-07
5.4576538e-09
1.245535e-07
4.6696873e-09
1.2221422e-07
4.130505e-09
1.2012205e-07
3.6941596e-09
1.182314e-07
3.3383255e-09
1.1650549e-07
3.0474483e-09
1.1491743e-07
2.8040645e-09
1.1344736e-07
2.5957394e-09
1.1207973e-07
2.4148646e-09
1.108018e-07
2.2564631e-09
1.0960302e-07
2.1167068e-09
1.0847458e-07
1.9925079e-09
1.0740903e-07
1.8814588e-09
1.0639995e-07
1.7817389e-09
1.0544176e-07
1.6918844e-09
1.0452962e-07
1.6105724e-09
1.0365927e-07
1.5367847e-09
1.02827e-07
1.4695285e-09
1.0202959e-07
1.407986e-09
1.0126408e-07
1.3516751e-09
1.0052787e-07
1.2999216e-09
9.9818699e-08
1.2521712e-09
9.913444e-08
1.2081911e-09
9.8473184e-08
1.167574e-09
9.7833283e-08
1.1298656e-09
9.7213191e-08
1.0948868e-09
9.6611446e-08
1.0624939e-09
9.6026786e-08
1.0323259e-09
9.5458096e-08
1.004125e-09
9.4904269e-08
9.7788066e-10
9.4364265e-08
9.5347639e-10
9.3837202e-08
9.3062437e-10
9.3322291e-08
9.091662e-10
9.2818723e-08
8.8913746e-10
9.2325718e-08
8.7048803e-10
9.1842627e-08
8.5298217e-10
9.1368876e-08
8.3648874e-10
9.0903862e-08
8.2106228e-10
9.0446988e-08
8.0668912e-10
8.9997738e-08
7.9322913e-10
8.9555665e-08
7.8055508e-10
8.9120331e-08
7.6865442e-10
8.8691277e-08
7.5756758e-10
8.8268056e-08
7.4726717e-10
8.7850306e-08
7.3760871e-10
8.7437701e-08
7.2852156e-10
8.7029883e-08
7.2006978e-10
8.6626483e-08
7.1226978e-10
8.6227169e-08
7.0505545e-10
8.5831662e-08
6.9833114e-10
8.5439697e-08
6.9207836e-10
8.5050972e-08
6.8635674e-10
8.4665175e-08
6.8118684e-10
8.4282041e-08
6.7648536e-10
8.3901344e-08
6.7218019e-10
8.3522843e-08
6.6830362e-10
8.3146266e-08
6.649074e-10
8.2771334e-08
6.6200187e-10
8.2397819e-08
6.5949931e-10
8.2025521e-08
6.5735006e-10
8.16542e-08
6.5562492e-10
8.128359e-08
6.5437028e-10
8.0913436e-08
6.53565e-10
8.054352e-08
6.5314301e-10
8.0173635e-08
6.5308972e-10
7.9803525e-08
6.534867e-10
7.9432902e-08
6.5439128e-10
7.906152e-08
6.5573186e-10
7.8689161e-08
6.5745573e-10
7.8315561e-08
6.5964715e-10
7.7940411e-08
6.6238389e-10
7.7563412e-08
6.6565029e-10
7.7184292e-08
6.693921e-10
7.6802767e-08
6.7363936e-10
7.6418491e-08
6.7849728e-10
7.6031102e-08
6.8399291e-10
7.564027e-08
6.9007153e-10
7.5245643e-08
6.967725e-10
7.4846791e-08
7.0423196e-10
7.4443269e-08
7.124759e-10
7.4034655e-08
7.2146831e-10
7.3620469e-08
7.3130602e-10
7.3200135e-08
7.4216092e-10
7.2773126e-08
7.5394605e-10
7.2338711e-08
7.6702195e-10
7.1914701e-08
7.4864999e-10
7.1510838e-08
7.1307926e-10
7.1125599e-08
6.8019303e-10
7.0757538e-08
6.4986485e-10
7.0405304e-08
6.219203e-10
7.0067709e-08
5.9607205e-10
6.9743713e-08
5.7205957e-10
6.9432343e-08
5.4976819e-10
6.913268e-08
5.2909748e-10
6.8843925e-08
5.0983881e-10
6.856538e-08
4.918109e-10
6.8296384e-08
4.7495036e-10
6.8036299e-08
4.5921685e-10
6.7784504e-08
4.4457996e-10
6.7540455e-08
4.3090387e-10
6.7303545e-08
4.1830026e-10
6.7073361e-08
4.0642468e-10
6.6848544e-08
3.9695027e-10
6.6629647e-08
3.865036e-10
6.6410222e-08
3.8744061e-10
6.6201125e-08
3.6926175e-10
6.5942435e-08
4.5651284e-10
2.8717864e-10
2.1861107e-06
7.4156628e-11
2.186053e-06
2.1934801e-10
2.1859679e-06
3.2339086e-10
2.1858687e-06
3.7701359e-10
2.1857574e-06
4.2256118e-10
2.1856339e-06
4.6893335e-10
2.1854981e-06
5.1587769e-10
2.1853496e-06
5.6419763e-10
2.1851874e-06
6.15827e-10
2.1850104e-06
6.7268078e-10
2.1848165e-06
7.3661796e-10
2.1846033e-06
8.0998565e-10
2.1843675e-06
8.9598457e-10
2.1841044e-06
9.9976116e-10
2.1838077e-06
1.1277087e-09
2.1834671e-06
1.2948105e-09
2.1830699e-06
1.5097288e-09
2.1825852e-06
1.8429877e-09
2.1819948e-06
2.2449519e-09
2.1811479e-06
3.2210546e-09
2.1800886e-06
4.0290596e-09
2.1771492e-06
1.1183532e-08
2.174873e-06
8.6555811e-09
1.2966217e-06
3.6706198e-06
3.2310577e-07
3.8893999e-06
2.1554613e-07
2.4497309e-07
1.9960039e-07
3.4942005e-08
1.9317234e-07
1.4075546e-08
1.8858537e-07
1.0044629e-08
1.8466423e-07
8.5908276e-09
1.811968e-07
7.5979301e-09
1.7809567e-07
6.7952857e-09
1.7529317e-07
6.1408255e-09
1.7273488e-07
5.6057455e-09
1.7038092e-07
5.1580199e-09
1.6820185e-07
4.7748073e-09
1.6617461e-07
4.4421073e-09
1.6428033e-07
4.1507486e-09
1.6250335e-07
3.8936831e-09
1.6083062e-07
3.6652321e-09
1.5925111e-07
3.4609692e-09
1.5775531e-07
3.2775458e-09
1.5633493e-07
3.1122666e-09
1.549828e-07
2.9627024e-09
1.536926e-07
2.826975e-09
1.5245887e-07
2.7032633e-09
1.5127679e-07
2.5900631e-09
1.5014199e-07
2.4864802e-09
1.4905063e-07
2.3912834e-09
1.4799934e-07
2.3034524e-09
1.4698498e-07
2.2225514e-09
1.4600472e-07
2.1478373e-09
1.4505611e-07
2.0784769e-09
1.4413686e-07
2.0141354e-09
1.4324481e-07
1.9545472e-09
1.4237808e-07
1.8990549e-09
1.4153502e-07
1.8471831e-09
1.40714e-07
1.7989063e-09
1.3991346e-07
1.754013e-09
1.391321e-07
1.7119784e-09
1.3836876e-07
1.672509e-09
1.3762223e-07
1.6356657e-09
1.3689136e-07
1.601358e-09
1.3617519e-07
1.5691572e-09
1.3547286e-07
1.5388202e-09
1.3478348e-07
1.510443e-09
1.3410616e-07
1.4840021e-09
1.3344015e-07
1.4592424e-09
1.3278478e-07
1.4359303e-09
1.3213939e-07
1.41404e-09
1.3150331e-07
1.3936451e-09
1.3087588e-07
1.3746963e-09
1.3025656e-07
1.3569306e-09
1.2964487e-07
1.3402168e-09
1.2904027e-07
1.3246696e-09
1.2844222e-07
1.3103207e-09
1.2785022e-07
1.2970498e-09
1.2726387e-07
1.2846818e-09
1.2668277e-07
1.2731811e-09
1.2610647e-07
1.2626561e-09
1.2553451e-07
1.2531454e-09
1.249665e-07
1.2444976e-09
1.244021e-07
1.2365799e-09
1.2384095e-07
1.2294498e-09
1.2328266e-07
1.2232025e-09
1.227268e-07
1.2178574e-09
1.2217304e-07
1.2132551e-09
1.2162109e-07
1.2093035e-09
1.2107059e-07
1.2061307e-09
1.2052113e-07
1.2038229e-09
1.1997236e-07
1.2023421e-09
1.1942393e-07
1.2015675e-09
1.1887555e-07
1.2014712e-09
1.1832683e-07
1.2022022e-09
1.1777736e-07
1.2038664e-09
1.1722676e-07
1.2063339e-09
1.1667471e-07
1.2095072e-09
1.1612081e-07
1.2135397e-09
1.1556462e-07
1.2185748e-09
1.1500569e-07
1.2245847e-09
1.1444361e-07
1.2314701e-09
1.1387796e-07
1.239285e-09
1.1330824e-07
1.2482226e-09
1.127339e-07
1.2583336e-09
1.1215445e-07
1.2695179e-09
1.1156938e-07
1.281847e-09
1.1097804e-07
1.2955706e-09
1.1037978e-07
1.3107379e-09
1.0977396e-07
1.3272828e-09
1.0915989e-07
1.3453823e-09
1.0853669e-07
1.3653526e-09
1.0790361e-07
1.3870349e-09
1.0725953e-07
1.4110929e-09
1.0663089e-07
1.377295e-09
1.0603211e-07
1.3118557e-09
1.0546095e-07
1.2513556e-09
1.0491525e-07
1.1955615e-09
1.0439302e-07
1.1441521e-09
1.0389249e-07
1.0965996e-09
1.0341213e-07
1.0524245e-09
1.0295048e-07
1.0114152e-09
1.0250619e-07
9.7338706e-10
1.0207807e-07
9.3795701e-10
1.0166509e-07
9.0479137e-10
1.0126627e-07
8.7377288e-10
1.0088066e-07
8.4482746e-10
1.0050734e-07
8.1789915e-10
1.0014551e-07
7.9273853e-10
9.9794257e-08
7.6955034e-10
9.9452981e-08
7.4770082e-10
9.9119667e-08
7.3026439e-10
9.8795131e-08
7.1103977e-10
9.8469832e-08
7.1273893e-10
9.8159874e-08
6.7921975e-10
9.7776212e-08
8.4017469e-10
5.2784519e-10
2.3100971e-06
9.476981e-11
2.310036e-06
2.8037888e-10
2.309946e-06
4.1345088e-10
2.3098409e-06
4.8206354e-10
2.3097232e-06
5.4032414e-10
2.3095925e-06
5.996214e-10
2.3094487e-06
6.5964172e-10
2.3092915e-06
7.214144e-10
2.3091199e-06
7.8741151e-10
2.3089325e-06
8.6008096e-10
2.3087273e-06
9.4179905e-10
2.3085018e-06
1.0355657e-09
2.3082523e-06
1.1454712e-09
2.3079739e-06
1.2780924e-09
2.30766e-06
1.4415988e-09
2.3072997e-06
1.6551371e-09
2.3068797e-06
1.9297741e-09
2.306367e-06
2.3556291e-09
2.3057427e-06
2.869264e-09
2.3048472e-06
4.1165365e-09
2.3037274e-06
5.1489016e-09
2.3006207e-06
1.4290253e-08
2.2982138e-06
1.1062419e-08
1.431883e-06
4.5369506e-06
4.4059392e-07
4.880689e-06
2.9852088e-07
3.8704612e-07
2.764546e-07
5.7008283e-08
2.6754319e-07
2.2986965e-08
2.611888e-07
1.6399018e-08
2.5576023e-07
1.4019396e-08
2.5096066e-07
1.2397503e-08
2.4666806e-07
1.1087886e-08
2.4278866e-07
1.0020222e-08
2.3924725e-07
9.1471554e-09
2.3598868e-07
8.4165932e-09
2.3297216e-07
7.7913252e-09
2.3016576e-07
7.2485022e-09
2.2754338e-07
6.7731343e-09
2.2508335e-07
6.3537118e-09
2.2276761e-07
5.9809716e-09
2.2058088e-07
5.6476957e-09
2.1851001e-07
5.348421e-09
2.1654353e-07
5.0787466e-09
2.1467152e-07
4.8347144e-09
2.1288524e-07
4.6132533e-09
2.111771e-07
4.4113989e-09
2.0954047e-07
4.2266973e-09
2.0796927e-07
4.0576793e-09
2.064582e-07
3.9023484e-09
2.0500262e-07
3.7590393e-09
2.0359814e-07
3.6270299e-09
2.0224086e-07
3.5051162e-09
2.0092739e-07
3.3919433e-09
1.9965457e-07
3.2869563e-09
1.984194e-07
3.1897203e-09
1.9721928e-07
3.0991727e-09
1.9605193e-07
3.0145357e-09
1.9491508e-07
2.9357585e-09
1.9380659e-07
2.8625e-09
1.9272466e-07
2.7939118e-09
1.9166765e-07
2.7295112e-09
1.9063393e-07
2.6693903e-09
1.8962188e-07
2.6134046e-09
1.8863018e-07
2.560862e-09
1.8765763e-07
2.511363e-09
1.8670302e-07
2.4650573e-09
1.8576511e-07
2.4219093e-09
1.8484285e-07
2.381507e-09
1.8393531e-07
2.3434699e-09
1.830416e-07
2.3077516e-09
1.8216077e-07
2.2744706e-09
1.8129192e-07
2.2435486e-09
1.8043429e-07
2.2145608e-09
1.7958722e-07
2.1872909e-09
1.7874996e-07
2.1619217e-09
1.7792178e-07
2.1385065e-09
1.7710198e-07
2.1168515e-09
1.7628998e-07
2.0966724e-09
1.7548526e-07
2.0779086e-09
1.7468718e-07
2.0607347e-09
1.7389511e-07
2.0452149e-09
1.731085e-07
2.0311053e-09
1.7232689e-07
2.0181891e-09
1.7154979e-07
2.0065568e-09
1.7077662e-07
1.9963636e-09
1.7000684e-07
1.9876423e-09
1.6923996e-07
1.9801355e-09
1.6847557e-07
1.9736916e-09
1.6771318e-07
1.9685168e-09
1.6695226e-07
1.9647528e-09
1.6619226e-07
1.9623389e-09
1.6543275e-07
1.9610792e-09
1.6467329e-07
1.9609267e-09
1.6391337e-07
1.9621229e-09
1.631524e-07
1.9648412e-09
1.6238986e-07
1.9688723e-09
1.6162531e-07
1.9740565e-09
1.6085821e-07
1.9806414e-09
1.6008792e-07
1.9888618e-09
1.5931383e-07
1.998674e-09
1.5853538e-07
2.0099163e-09
1.5775199e-07
2.0226754e-09
1.5696295e-07
2.0372656e-09
1.5616751e-07
2.0537711e-09
1.55365e-07
2.0720298e-09
1.5455469e-07
2.0921568e-09
1.537357e-07
2.1145588e-09
1.5290712e-07
2.1393176e-09
1.5206808e-07
2.1663259e-09
1.5121759e-07
2.195871e-09
1.5035448e-07
2.2284688e-09
1.4947765e-07
2.2638621e-09
1.4858561e-07
2.3031343e-09
1.4771493e-07
2.2479748e-09
1.4688561e-07
2.1411695e-09
1.4609454e-07
2.0424265e-09
1.4533874e-07
1.9513639e-09
1.4461543e-07
1.8674571e-09
1.4392219e-07
1.7898458e-09
1.4325687e-07
1.7177469e-09
1.4261747e-07
1.6508141e-09
1.4200211e-07
1.5887463e-09
1.4140915e-07
1.5309195e-09
1.4083715e-07
1.4767888e-09
1.4028476e-07
1.4261618e-09
1.3975067e-07
1.3789178e-09
1.392336e-07
1.3349654e-09
1.3873244e-07
1.2938983e-09
1.3824594e-07
1.2560494e-09
1.3777326e-07
1.2203846e-09
1.3731161e-07
1.1919139e-09
1.3686212e-07
1.1605304e-09
1.3641161e-07
1.1632521e-09
1.3598236e-07
1.10847e-09
1.3545088e-07
1.3716546e-09
8.6107108e-10
2.4685091e-06
1.1680869e-10
2.4684438e-06
3.4566282e-10
2.4683475e-06
5.0983058e-10
2.468235e-06
5.9451609e-10
2.4681089e-06
6.6639769e-10
2.467969e-06
7.3953324e-10
2.4678151e-06
8.1354871e-10
2.4676468e-06
8.8971625e-10
2.4674631e-06
9.7108381e-10
2.4672626e-06
1.0606694e-09
2.467043e-06
1.1614029e-09
2.4668015e-06
1.276982e-09
2.4665346e-06
1.4124486e-09
2.4662367e-06
1.5759084e-09
2.4659009e-06
1.7774296e-09
2.4655154e-06
2.0406096e-09
2.4650661e-06
2.3790844e-09
2.4645178e-06
2.9039191e-09
2.4638502e-06
3.5369155e-09
2.4628927e-06
5.0740305e-09
2.4616955e-06
6.3461463e-09
2.458375e-06
1.761069e-08
2.4558015e-06
1.3635949e-08
1.5964611e-06
5.396291e-06
5.7956697e-07
5.8975831e-06
3.9912233e-07
5.6749076e-07
3.6966501e-07
8.6465597e-08
3.5773527e-07
3.4916706e-08
3.4924164e-07
2.4892654e-08
3.4199064e-07
2.127039e-08
3.3558089e-07
1.8807256e-08
3.2984795e-07
1.6820819e-08
3.246665e-07
1.5201675e-08
3.1993627e-07
1.3877384e-08
3.1558368e-07
1.2769185e-08
3.1155427e-07
1.1820741e-08
3.0780538e-07
1.0997385e-08
3.0430217e-07
1.0276345e-08
3.0101574e-07
9.6401473e-09
2.9792196e-07
9.074747e-09
2.9500045e-07
8.5692037e-09
2.9223364e-07
8.1152312e-09
2.8960624e-07
7.7061518e-09
2.8710498e-07
7.3359691e-09
2.8471822e-07
7.0000137e-09
2.8243582e-07
6.6938022e-09
2.8024891e-07
6.4136121e-09
2.7814938e-07
6.1572002e-09
2.7613018e-07
5.9215563e-09
2.7418506e-07
5.7041539e-09
2.7230821e-07
5.503881e-09
2.704944e-07
5.3189242e-09
2.6873911e-07
5.1472351e-09
2.6703811e-07
4.9879586e-09
2.653874e-07
4.8404332e-09
2.6378351e-07
4.7030622e-09
2.6222338e-07
4.5746625e-09
2.6070399e-07
4.4551433e-09
2.592225e-07
4.3439932e-09
2.5777648e-07
4.2399366e-09
2.5636375e-07
4.142236e-09
2.5498212e-07
4.0510202e-09
2.5362945e-07
3.9660746e-09
2.5230395e-07
3.8863604e-09
2.5100405e-07
3.8112677e-09
2.4972809e-07
3.7410128e-09
2.4847446e-07
3.6755454e-09
2.4724172e-07
3.6142479e-09
2.4602864e-07
3.5565431e-09
2.4483404e-07
3.5023548e-09
2.4365665e-07
3.45186e-09
2.4249526e-07
3.4049435e-09
2.4134885e-07
3.3609673e-09
2.4021654e-07
3.3195996e-09
2.3909735e-07
3.2811113e-09
2.3799027e-07
3.2455856e-09
2.3689439e-07
3.2127324e-09
2.3580894e-07
3.1821227e-09
2.3473319e-07
3.1536602e-09
2.3366632e-07
3.1276069e-09
2.3260747e-07
3.1040619e-09
2.3155591e-07
3.08266e-09
2.3051103e-07
3.0630717e-09
2.2947216e-07
3.0454296e-09
2.2843855e-07
3.029969e-09
2.2740945e-07
3.0167416e-09
2.2638423e-07
3.0053605e-09
2.2536233e-07
2.9955942e-09
2.2434309e-07
2.987751e-09
2.233258e-07
2.9820472e-09
2.2230974e-07
2.9783933e-09
2.2129433e-07
2.9764937e-09
2.2027898e-07
2.9762749e-09
2.19263e-07
2.9781003e-09
2.1824561e-07
2.9822346e-09
2.1722612e-07
2.9883641e-09
2.1620393e-07
2.9962458e-09
2.1517832e-07
3.0062509e-09
2.1414844e-07
3.018737e-09
2.1311348e-07
3.0336404e-09
2.1207268e-07
3.0507165e-09
2.1102526e-07
3.0700944e-09
2.0997028e-07
3.0922496e-09
2.0890673e-07
3.1173128e-09
2.0783372e-07
3.145039e-09
2.0675028e-07
3.1756009e-09
2.0565522e-07
3.2096144e-09
2.0454734e-07
3.2472061e-09
2.0342545e-07
3.2882142e-09
2.0228825e-07
3.3330721e-09
2.0113415e-07
3.3825626e-09
1.9996172e-07
3.4362986e-09
1.9876893e-07
3.4959251e-09
1.9760469e-07
3.4122111e-09
1.9649576e-07
3.2501006e-09
1.9543796e-07
3.1002278e-09
1.9442731e-07
2.9620118e-09
1.9346011e-07
2.834656e-09
1.925331e-07
2.7168559e-09
1.9164342e-07
2.6074228e-09
1.9078841e-07
2.5058294e-09
1.8996554e-07
2.4116191e-09
1.8917261e-07
2.3238468e-09
1.8840771e-07
2.2416849e-09
1.8766903e-07
2.1648398e-09
1.8695482e-07
2.0931285e-09
1.8626338e-07
2.0264125e-09
1.855932e-07
1.9640762e-09
1.8494263e-07
1.9066225e-09
1.8431053e-07
1.8524837e-09
1.8369319e-07
1.8092489e-09
1.8309212e-07
1.7616064e-09
1.8248972e-07
1.7656474e-09
1.8191577e-07
1.6824236e-09
1.8120496e-07
2.0824566e-09
1.3066174e-09
2.6637076e-06
1.4060493e-10
2.6636371e-06
4.1619121e-10
2.6635329e-06
6.1400595e-10
2.6634113e-06
7.1610237e-10
2.663275e-06
8.0272626e-10
2.6631237e-06
8.908272e-10
2.6629572e-06
9.7997186e-10
2.6627753e-06
1.0716964e-09
2.6625767e-06
1.169671e-09
2.6623598e-06
1.2775298e-09
2.6621224e-06
1.3988005e-09
2.6618615e-06
1.5379349e-09
2.6615729e-06
1.7010019e-09
2.6612511e-06
1.8977581e-09
2.6608882e-06
2.1403213e-09
2.6604717e-06
2.4570936e-09
2.6599863e-06
2.8644828e-09
2.659394e-06
3.4961648e-09
2.658673e-06
4.2580009e-09
2.657639e-06
6.1079703e-09
2.6563464e-06
7.6388033e-09
2.6527626e-06
2.1194419e-08
2.6499837e-06
1.6414874e-08
1.7950092e-06
6.2512655e-06
7.4648412e-07
6.9461082e-06
5.2302882e-07
7.9094606e-07
4.8452639e-07
1.2496803e-07
4.6887547e-07
5.0567625e-08
4.5775835e-07
3.6009779e-08
4.4827536e-07
3.0753376e-08
4.3989382e-07
2.7188801e-08
4.3239663e-07
2.4318006e-08
4.2561981e-07
2.1978493e-08
4.1943261e-07
2.006459e-08
4.1373893e-07
1.8462863e-08
4.0846761e-07
1.7092058e-08
4.0356293e-07
1.5902073e-08
3.9897932e-07
1.4859947e-08
3.9467906e-07
1.3940407e-08
3.9063065e-07
1.3123164e-08
3.8680743e-07
1.239242e-08
3.8318646e-07
1.1736204e-08
3.7974775e-07
1.1144862e-08
3.7647398e-07
1.0609736e-08
3.7334992e-07
1.0124072e-08
3.7036232e-07
9.6813997e-09
3.674996e-07
9.2763418e-09
3.6475116e-07
8.9056363e-09
3.6210776e-07
8.5649581e-09
3.5956126e-07
8.2506557e-09
3.5710404e-07
7.9610978e-09
3.5472928e-07
7.6936818e-09
3.5243106e-07
7.4454575e-09
3.5020385e-07
7.2151694e-09
3.4804242e-07
7.0018588e-09
3.4594224e-07
6.8032397e-09
3.4389931e-07
6.6175974e-09
3.4190967e-07
6.4447804e-09
3.3996961e-07
6.2840583e-09
3.3807594e-07
6.1336047e-09
3.3622583e-07
5.9923449e-09
3.344164e-07
5.8604495e-09
3.3264486e-07
5.7376147e-09
3.3090887e-07
5.6223557e-09
3.2920635e-07
5.5137844e-09
3.2753516e-07
5.4121984e-09
3.2589318e-07
5.31753e-09
3.2427853e-07
5.2288973e-09
3.2268961e-07
5.1454664e-09
3.2112484e-07
5.0671177e-09
3.195826e-07
4.9941036e-09
3.1806128e-07
4.9262629e-09
3.1655957e-07
4.8626824e-09
3.1507629e-07
4.8028775e-09
3.1361017e-07
4.7472297e-09
3.1215989e-07
4.6958632e-09
3.1072426e-07
4.6483649e-09
3.0930227e-07
4.6041166e-09
3.0789295e-07
4.5629741e-09
3.0649525e-07
4.5253106e-09
3.0510804e-07
4.491273e-09
3.0373036e-07
4.4603397e-09
3.0236139e-07
4.4320341e-09
3.0100028e-07
4.4065407e-09
2.9964605e-07
4.3841992e-09
2.9829771e-07
4.3650875e-09
2.9695442e-07
4.3486518e-09
2.9561546e-07
4.3345548e-09
2.9427997e-07
4.3232355e-09
2.9294701e-07
4.3150089e-09
2.9161565e-07
4.3097497e-09
2.9028511e-07
4.3070325e-09
2.8895464e-07
4.3067478e-09
2.8762332e-07
4.3094169e-09
2.8629013e-07
4.315425e-09
2.8495417e-07
4.3243244e-09
2.8361466e-07
4.335762e-09
2.8227064e-07
4.3502689e-09
2.8092101e-07
4.3683636e-09
2.7956469e-07
4.3899586e-09
2.7820071e-07
4.4147007e-09
2.7682803e-07
4.4427733e-09
2.7544542e-07
4.4748624e-09
2.7405157e-07
4.5111607e-09
2.7264529e-07
4.5513163e-09
2.7122532e-07
4.5955757e-09
2.697901e-07
4.6448278e-09
2.6833805e-07
4.6992603e-09
2.6686762e-07
4.7586402e-09
2.6537711e-07
4.8235908e-09
2.6386442e-07
4.8952447e-09
2.6232768e-07
4.9730466e-09
2.6076422e-07
5.0593778e-09
2.5923818e-07
4.9382592e-09
2.577846e-07
4.7036766e-09
2.5639802e-07
4.4868026e-09
2.5507324e-07
4.2867953e-09
2.538054e-07
4.1025008e-09
2.5259022e-07
3.9320344e-09
2.5142397e-07
3.7736753e-09
2.5030314e-07
3.6266581e-09
2.4922443e-07
3.4903233e-09
2.4818497e-07
3.3633056e-09
2.4718225e-07
3.244407e-09
2.4621389e-07
3.1332003e-09
2.452776e-07
3.0294211e-09
2.4437114e-07
2.9328694e-09
2.4349256e-07
2.8426559e-09
2.4263968e-07
2.7595049e-09
2.4181101e-07
2.6811503e-09
2.4100171e-07
2.6185512e-09
2.4021372e-07
2.5495978e-09
2.3942406e-07
2.5553019e-09
2.386717e-07
2.4347923e-09
2.3773977e-07
3.0143838e-09
1.8907084e-09
2.8986014e-06
1.6651736e-10
2.8985245e-06
4.9303921e-10
2.8984109e-06
7.2758133e-10
2.8982783e-06
8.4870676e-10
2.8981296e-06
9.5142757e-10
2.8979646e-06
1.055854e-09
2.8977831e-06
1.1614957e-09
2.8975846e-06
1.2701783e-09
2.897368e-06
1.3862504e-09
2.8971315e-06
1.5140174e-09
2.8968727e-06
1.6576586e-09
2.8965882e-06
1.8224473e-09
2.8962736e-06
2.0155707e-09
2.8959228e-06
2.248583e-09
2.8955273e-06
2.535833e-09
2.8950734e-06
2.9109539e-09
2.8945445e-06
3.3933694e-09
2.8938993e-06
4.14137e-09
2.8931138e-06
5.0434557e-09
2.8919878e-06
7.2339789e-09
2.8905803e-06
9.0463553e-09
2.8866798e-06
2.5094947e-08
2.8836536e-06
1.9441058e-08
2.0326074e-06
7.1023117e-06
9.4847481e-07
8.0302408e-06
6.7691891e-07
1.062502e-06
6.2728737e-07
1.7459957e-07
6.0702636e-07
7.0828634e-08
5.9267842e-07
5.035772e-08
5.8045107e-07
4.2980724e-08
5.6964519e-07
3.799468e-08
5.5997793e-07
3.3985271e-08
5.5123783e-07
3.0718591e-08
5.432569e-07
2.8045517e-08
5.3591156e-07
2.5808205e-08
5.2911019e-07
2.3893433e-08
5.2278102e-07
2.2231234e-08
5.1686546e-07
2.0775509e-08
5.1131493e-07
1.9490938e-08
5.0608889e-07
1.83492e-08
5.0115306e-07
1.7328259e-08
4.9647786e-07
1.6411399e-08
4.9203758e-07
1.5585139e-08
4.8780992e-07
1.4837399e-08
4.8377526e-07
1.4158735e-08
4.7991653e-07
1.3540132e-08
4.7621879e-07
1.2974078e-08
4.7266844e-07
1.245599e-08
4.6925353e-07
1.1979866e-08
4.6596358e-07
1.1540602e-08
4.6278879e-07
1.1135889e-08
4.5972036e-07
1.0762116e-08
4.5675064e-07
1.0415177e-08
4.5387252e-07
1.009329e-08
4.5107926e-07
9.7951137e-09
4.4836502e-07
9.5174848e-09
4.4572461e-07
9.2580012e-09
4.4315297e-07
9.0164224e-09
4.4064529e-07
8.7917409e-09
4.3819746e-07
8.5814298e-09
4.3580583e-07
8.3839755e-09
4.3346669e-07
8.1995928e-09
4.3117643e-07
8.0278681e-09
4.2893204e-07
7.8667504e-09
4.2673084e-07
7.7149893e-09
4.2457006e-07
7.5729787e-09
4.2244695e-07
7.4406315e-09
4.2035912e-07
7.3167315e-09
4.1830447e-07
7.2001136e-09
4.1628099e-07
7.0905976e-09
4.1428657e-07
6.9885303e-09
4.1231913e-07
6.8936952e-09
4.1037699e-07
6.8048289e-09
4.0845862e-07
6.7212467e-09
4.0656238e-07
6.6434678e-09
4.0468657e-07
6.5716708e-09
4.0282965e-07
6.5052881e-09
4.0099031e-07
6.4434587e-09
3.9916731e-07
6.3859728e-09
3.9735927e-07
6.3333452e-09
3.9556476e-07
6.2857859e-09
3.9378252e-07
6.242576e-09
3.9201151e-07
6.2030477e-09
3.902506e-07
6.1674493e-09
3.8849855e-07
6.1362546e-09
3.8675406e-07
6.1095776e-09
3.8501606e-07
6.0866524e-09
3.8328361e-07
6.0670032e-09
3.8155561e-07
6.0512344e-09
3.7983083e-07
6.0397895e-09
3.7810808e-07
6.0324996e-09
3.7638634e-07
6.028773e-09
3.7466463e-07
6.0284515e-09
3.7294179e-07
6.0322583e-09
3.7121648e-07
6.0407359e-09
3.6948754e-07
6.0532669e-09
3.6775395e-07
6.0693549e-09
3.6601448e-07
6.0897346e-09
3.6426771e-07
6.1151337e-09
3.6251223e-07
6.1454359e-09
3.6074679e-07
6.1801488e-09
3.5897003e-07
6.2195235e-09
3.5718038e-07
6.2645178e-09
3.5537613e-07
6.3154068e-09
3.5355575e-07
6.3717018e-09
3.5171758e-07
6.4337427e-09