/*--------------------------------*- C++ -*----------------------------------*\
  =========                 |
  \\      /  F ield         | OpenFOAM: The Open Source CFD Toolbox
   \\    /   O peration     | Website:  https://openfoam.org
    \\  /    A nd           | Version:  12
     \\/     M anipulation  |
\*---------------------------------------------------------------------------*/
FoamFile
{
    format      ascii;
    class       volVectorField;
    location    "1100";
    object      U;
}
// * * * * * * * * * * * * * * * * * * * * * * * * * * * * * * * * * * * * * //

dimensions      [0 1 -1 0 0 0 0];

internalField   nonuniform List<vector> 
7480
(
(0.98683284 0.00053292375 1.0344762e-16)
(0.97532596 0.0012562241 0)
(0.9625668 0.001733621 0)
(0.94882947 0.0020076811 0)
(0.9343465 0.0021846326 0)
(0.91932151 0.002313641 0)
(0.90383187 0.00241617 0)
(0.88790277 0.0025127754 0)
(0.87157749 0.0026181891 0)
(0.85498235 0.0027399199 0)
(0.83831093 0.0028783747 0)
(0.8218437 0.0030272115 0)
(0.80596206 0.0031620153 0)
(0.79112485 0.0032332195 0)
(0.77776121 0.0031650322 0)
(0.7661227 0.0028611394 0)
(0.75622436 0.0022156383 0)
(0.74786167 0.0028584614 0)
(0.74082392 0.0018703395 -5.166548e-17)
(0.73480154 0.0010619934 7.2993033e-18)
(0.72956335 0.001445941 -1.1460858e-16)
(0.72490812 0.00076869173 0)
(0.72065217 0.00028344222 0)
(0.71662454 0.00010659584 0)
(0.71274583 -1.3671468e-05 0)
(0.70898579 -5.5841788e-05 0)
(0.70532529 -4.1231319e-05 0)
(0.70176235 -8.8819462e-06 0)
(0.69830183 2.748453e-05 0)
(0.69495294 5.9779414e-05 0)
(0.69171954 8.4602257e-05 0)
(0.68859282 0.00010224943 0)
(0.68555525 0.00011124826 0)
(0.68254369 0.00011320934 0)
(0.67951599 0.00011531013 0)
(0.67646712 0.00011978641 0)
(0.6734152 0.00012468651 0)
(0.67039595 0.00012727699 0)
(0.66744588 0.0001260441 0)
(0.66459065 0.00012124586 0)
(0.66184129 0.00011419965 0)
(0.65919824 0.00010622084 0)
(0.65665598 9.8249969e-05 0)
(0.65420316 9.0306329e-05 0)
(0.65182854 8.1868594e-05 0)
(0.64948305 7.0187192e-05 0)
(0.64708825 4.6910186e-05 0)
(0.64451182 -3.8502981e-06 0)
(0.64154075 -7.9742777e-05 0)
(0.63797735 -0.0001497992 0)
(0.63402984 -0.00016830577 0)
(0.63017846 -0.00015166021 0)
(0.62669698 -0.00011797152 0)
(0.62364103 -9.1944405e-05 0)
(0.62091537 -7.3297606e-05 0)
(0.61841148 -5.8059583e-05 0)
(0.61604359 -4.3610005e-05 0)
(0.61373886 -3.0302099e-05 0)
(0.61150904 -1.9100611e-05 0)
(0.60934008 -1.0048152e-05 0)
(0.607223 -2.5967167e-06 0)
(0.6051465 3.7636746e-06 0)
(0.60310025 9.0322499e-06 0)
(0.60107719 1.3220475e-05 0)
(0.59907172 1.6425937e-05 0)
(0.59707933 1.8748217e-05 0)
(0.59509819 2.0291805e-05 0)
(0.59312733 2.119122e-05 0)
(0.5911651 2.1583734e-05 0)
(0.5892095 2.1573587e-05 0)
(0.58725865 2.1241835e-05 0)
(0.58531082 2.0646086e-05 0)
(0.58336451 1.9826007e-05 0)
(0.58141834 1.8824317e-05 0)
(0.57947087 1.7673923e-05 0)
(0.57752077 1.6401165e-05 0)
(0.57556668 1.5127325e-05 0)
(0.57360721 1.3956819e-05 0)
(0.57164118 1.2831826e-05 0)
(0.56966735 1.1711446e-05 0)
(0.56768469 1.056637e-05 0)
(0.56569291 9.3904113e-06 0)
(0.56369305 8.1735994e-06 0)
(0.56170039 7.2563488e-06 0)
(0.55986712 1.7926184e-05 0)
(0.55934255 0.00027241478 0)
(0.5700888 0.00038258667 0)
(0.57556388 0.00035067535 0)
(0.57885815 0.00029533938 0)
(0.58009782 0.00023251857 0)
(0.58027321 0.00018250221 0)
(0.57985564 0.00014385352 0)
(0.57910511 0.00011360858 0)
(0.57815088 9.0208845e-05 0)
(0.57707202 7.2859969e-05 0)
(0.57589825 6.035405e-05 0)
(0.5746975 5.1775345e-05 0)
(0.57335778 8.2353132e-05 6.8627766e-20)
(0.5722102 3.7947079e-05 -1.4905913e-19)
(0.56992399 5.9847322e-05 -1.0537832e-17)
(0.99589768 0.0022871085 0)
(0.99632273 0.0034464241 0)
(0.99686955 0.0040224369 0)
(0.99714225 0.0040894909 0)
(0.99714777 0.0041216079 0)
(0.99700196 0.0041177631 0)
(0.9967378 0.0040963118 0)
(0.99631518 0.0040503412 0)
(0.99568101 0.0039748573 0)
(0.99474115 0.0038564994 0)
(0.99336863 0.0036782932 0)
(0.99138798 0.0034259425 0)
(0.98857059 0.003092024 0)
(0.98465832 0.0026892054 0)
(0.97943469 0.0022650302 0)
(0.97282276 0.0018957811 0)
(0.96489616 0.0016012657 0)
(0.95586956 0.0013470641 0)
(0.94595973 0.0013429456 0)
(0.9354395 0.0012564641 0)
(0.92458468 0.0011318799 0)
(0.91371945 0.0011212856 0)
(0.90310165 0.0010888258 0)
(0.89293589 0.0010462534 0)
(0.88333294 0.0010070748 0)
(0.8743454 0.00093737898 0)
(0.86599602 0.00085087929 0)
(0.858266 0.00076777682 0)
(0.85109998 0.00069331749 0)
(0.84441826 0.00062908541 0)
(0.8381355 0.00057671467 0)
(0.83217587 0.00053686729 0)
(0.82646674 0.0005100481 0)
(0.82098779 0.00049369686 0)
(0.81573124 0.00048073187 0)
(0.81068483 0.0004658288 0)
(0.80583044 0.00044741371 0)
(0.80114527 0.00042598892 0)
(0.79660544 0.00040257597 0)
(0.79219487 0.0003785635 0)
(0.78790539 0.00035530358 0)
(0.78373435 0.00033352783 0)
(0.77968022 0.00031359764 0)
(0.77574029 0.00029562146 0)
(0.77191203 0.00028047397 0)
(0.76820429 0.00027065617 0)
(0.76463811 0.00027021185 0)
(0.76126019 0.00028402677 0)
(0.75816053 0.00031082256 0)
(0.7554079 0.00033360708 0)
(0.7528373 0.00033138727 0)
(0.75017983 0.00030550485 0)
(0.74733285 0.00026867209 0)
(0.74432589 0.00023575314 0)
(0.74125129 0.00021151235 0)
(0.73818049 0.00019507693 0)
(0.73514624 0.00018393316 0)
(0.73215513 0.0001747849 0)
(0.72921432 0.00016575865 0)
(0.72632785 0.00015736649 0)
(0.72349686 0.00014966851 0)
(0.72071964 0.00014269961 0)
(0.71799327 0.00013635499 0)
(0.7153153 0.00013055505 0)
(0.71268265 0.00012526893 0)
(0.7100924 0.00012038882 0)
(0.7075433 0.0001157965 0)
(0.70503431 0.00011147187 0)
(0.70256396 0.00010742131 0)
(0.70013064 0.00010362633 0)
(0.6977329 0.00010007335 0)
(0.69536931 9.6741195e-05 0)
(0.69303857 9.3601649e-05 0)
(0.69073955 9.0649833e-05 0)
(0.68847108 8.7871324e-05 0)
(0.68623213 8.5250232e-05 0)
(0.68402169 8.2776716e-05 0)
(0.6818387 8.0412134e-05 0)
(0.6796823 7.814472e-05 0)
(0.67755145 7.6000666e-05 0)
(0.6754452 7.3947146e-05 0)
(0.67336296 7.1963659e-05 0)
(0.67130385 6.992281e-05 0)
(0.66926842 6.6450306e-05 0)
(0.66725507 4.3743593e-05 0)
(0.66499979 -0.00013181814 0)
(0.66050487 -0.0001657416 0)
(0.6586666 -8.6236112e-05 0)
(0.65725436 -4.4112504e-05 0)
(0.65594666 -9.8358089e-06 0)
(0.6545202 8.7710916e-06 0)
(0.65297371 1.8642294e-05 0)
(0.65135124 2.3676534e-05 0)
(0.64968641 2.6488477e-05 0)
(0.64800455 2.8150112e-05 0)
(0.64630135 2.8706289e-05 0)
(0.64462636 2.9137656e-05 0)
(0.64283842 3.1353534e-05 0)
(0.64130831 3.1353575e-05 0)
(0.6385019 3.3653305e-05 0)
(0.99617322 0.0021847872 0)
(0.99654091 0.0028425265 0)
(0.9971124 0.0030009768 0)
(0.99757807 0.0029794257 0)
(0.99788965 0.0029839225 0)
(0.9981409 0.0030079629 0)
(0.99837985 0.0030360924 0)
(0.99860542 0.0030650068 0)
(0.9988136 0.0030962191 0)
(0.99900723 0.0031281437 0)
(0.99918901 0.0031568623 0)
(0.99935378 0.0031796353 0)
(0.99948581 0.0031940999 0)
(0.99956031 0.0032007425 0)
(0.99954359 0.0032053076 0)
(0.99939124 0.0032082301 0)
(0.99904666 0.0032029394 0)
(0.99845419 0.0031665452 0)
(0.99753202 0.0030933115 0)
(0.99618456 0.0030207884 0)
(0.99427834 0.0029154792 0)
(0.99162349 0.0027962947 0)
(0.98812032 0.0026840279 0)
(0.98371791 0.0025564332 0)
(0.97840602 0.0024123992 0)
(0.97222532 0.0022732052 0)
(0.96524223 0.0021269726 0)
(0.95766377 0.0019659379 0)
(0.94969365 0.0018061362 0)
(0.94153268 0.0016520574 0)
(0.93337067 0.0015055667 0)
(0.92536415 0.0013680962 0)
(0.91763106 0.0012459972 0)
(0.91023974 0.0011446165 0)
(0.90320781 0.0010606822 0)
(0.89651385 0.00098978811 0)
(0.89011689 0.00092879607 0)
(0.88396888 0.00087517176 0)
(0.87802968 0.00082649292 0)
(0.87227273 0.00078072843 0)
(0.86668266 0.00073673365 0)
(0.86125107 0.00069441882 0)
(0.85596865 0.00065427769 0)
(0.85082662 0.00061638139 0)
(0.8458214 0.00058149867 0)
(0.84096499 0.00055124967 0)
(0.83627275 0.00052724465 0)
(0.83176795 0.00051256372 0)
(0.82748586 0.00050548345 0)
(0.82345135 0.00049978941 0)
(0.81961916 0.00048432973 0)
(0.8158934 0.0004590536 0)
(0.81220096 0.00042980988 0)
(0.80850606 0.00040163079 0)
(0.80481228 0.00037634859 0)
(0.80113995 0.00035420395 0)
(0.79750812 0.00033562048 0)
(0.79392955 0.00031893319 0)
(0.79041288 0.00030283302 0)
(0.78696137 0.00028783296 0)
(0.78357503 0.00027387642 0)
(0.78025362 0.0002610016 0)
(0.77699653 0.00024912559 0)
(0.77380299 0.00023811916 0)
(0.77067063 0.00022791023 0)
(0.76759725 0.00021831296 0)
(0.76458201 0.0002091784 0)
(0.76162319 0.00020050071 0)
(0.75871884 0.00019228344 0)
(0.75586723 0.00018449327 0)
(0.75306687 0.00017711088 0)
(0.75031624 0.00017010802 0)
(0.74761391 0.00016344474 0)
(0.74495857 0.00015711246 0)
(0.74234888 0.00015108822 0)
(0.73978365 0.00014534748 0)
(0.73726175 0.00013986158 0)
(0.73478197 0.00013459587 0)
(0.73234331 0.00012956306 0)
(0.7299446 0.00012477363 0)
(0.72758469 0.00012017445 0)
(0.72526275 0.00011575241 0)
(0.72297734 0.00011150527 0)
(0.72072473 0.0001062372 0)
(0.71847371 9.0607655e-05 0)
(0.71585886 7.6275117e-06 0)
(0.71115424 -5.1215886e-05 0)
(0.7080088 -2.1943605e-05 0)
(0.70546223 1.0360624e-05 0)
(0.70329911 3.5977161e-05 0)
(0.70124399 5.0141512e-05 0)
(0.69921089 5.700087e-05 0)
(0.69718098 5.9750646e-05 0)
(0.69515653 6.0269003e-05 0)
(0.69314697 5.9578637e-05 0)
(0.69113881 5.8011572e-05 0)
(0.68917663 5.7282032e-05 0)
(0.68710872 5.5368997e-05 0)
(0.68533677 6.0301113e-05 0)
(0.68216213 5.488535e-05 4.0182892e-20)
(0.99636938 0.0020428817 0)
(0.9966647 0.0026450527 0)
(0.99717667 0.0029790266 0)
(0.99763004 0.0031498416 0)
(0.99794943 0.0032870338 0)
(0.99820798 0.0034022508 0)
(0.99845407 0.0034847237 0)
(0.9986905 0.0035399618 0)
(0.99891398 0.0035746692 0)
(0.99912849 0.0035932074 0)
(0.99933888 0.0035831893 0)
(0.99954564 0.0035477044 0)
(0.9997424 0.0034784452 0)
(0.99991918 0.0033746328 0)
(1.0000658 0.0032375202 0)
(1.0001758 0.0030768774 0)
(1.0002466 0.0029080935 0)
(1.000288 0.0027593716 0)
(1.000305 0.002625224 0)
(1.000298 0.0025302747 0)
(1.0002726 0.0024762975 0)
(1.0002122 0.0024372702 0)
(1.0000902 0.0024142121 0)
(0.99987409 0.0024011321 0)
(0.99951201 0.0023919844 0)
(0.99893045 0.0023807095 0)
(0.99804894 0.0023651779 0)
(0.99669237 0.0023435459 0)
(0.99472209 0.0023115775 0)
(0.9920274 0.0022673033 0)
(0.98853065 0.0022116281 0)
(0.9842057 0.0021496416 0)
(0.97907587 0.0020733401 0)
(0.97328944 0.0019766139 0)
(0.96701255 0.0018688199 0)
(0.96042256 0.0017547342 0)
(0.95368688 0.0016380318 0)
(0.94694524 0.0015232042 0)
(0.94029944 0.0014167639 0)
(0.93380426 0.0013217784 0)
(0.92747479 0.0012371396 0)
(0.92130189 0.0011617589 0)
(0.91526969 0.0010946219 0)
(0.90936795 0.0010340103 0)
(0.90359305 0.00097816385 0)
(0.89795035 0.00092621237 0)
(0.89245115 0.00087883046 0)
(0.88711014 0.00083715628 0)
(0.88194098 0.00080283766 0)
(0.87695116 0.00077325542 0)
(0.87213102 0.0007426306 0)
(0.86745237 0.0007080845 0)
(0.86288724 0.00067125672 0)
(0.85841122 0.00063468862 0)
(0.85400947 0.00059999768 0)
(0.84967765 0.00056789289 0)
(0.8454189 0.00053909447 0)
(0.84123739 0.00051240466 0)
(0.83713421 0.00048666212 0)
(0.83310888 0.00046234029 0)
(0.8291616 0.00043961001 0)
(0.82529237 0.00041853875 0)
(0.82150038 0.0003988728 0)
(0.81778465 0.00038045362 0)
(0.8141428 0.00036322646 0)
(0.81057297 0.00034696188 0)
(0.80707412 0.00033149791 0)
(0.80364365 0.00031684018 0)
(0.80027932 0.00030296936 0)
(0.79697924 0.00028982212 0)
(0.79374175 0.00027736321 0)
(0.7905651 0.0002655498 0)
(0.7874476 0.00025432339 0)
(0.78438768 0.0002436649 0)
(0.78138373 0.00023353681 0)
(0.77843429 0.00022389995 0)
(0.77553797 0.00021475067 0)
(0.77269331 0.00020605272 0)
(0.76989906 0.00019777014 0)
(0.76715384 0.00018990456 0)
(0.76445629 0.00018238006 0)
(0.76180541 0.00017517596 0)
(0.75919962 0.00016829779 0)
(0.75663558 0.00016097657 0)
(0.75408998 0.0001463464 0)
(0.75134328 7.663538e-05 0)
(0.74758609 1.8609763e-05 0)
(0.74440509 3.3622531e-05 0)
(0.74158748 5.5252133e-05 0)
(0.73907439 7.5179816e-05 0)
(0.73669854 8.7128047e-05 0)
(0.73438044 9.3080747e-05 0)
(0.73208929 9.5116675e-05 0)
(0.72981778 9.4622718e-05 0)
(0.7275707 9.2929974e-05 0)
(0.72533259 9.0446965e-05 0)
(0.72314706 8.9441532e-05 0)
(0.72085852 8.6146821e-05 0)
(0.71889338 9.6074844e-05 0)
(0.71540579 8.1700025e-05 -3.3225066e-20)
(0.99655568 0.0019822331 0)
(0.99680338 0.0025641769 0)
(0.99724923 0.0029217856 0)
(0.9976615 0.0030775034 0)
(0.99796299 0.0031644495 0)
(0.99820929 0.0032260173 0)
(0.99844591 0.0032634978 0)
(0.99867666 0.0032823952 0)
(0.99889717 0.0032906376 0)
(0.99910997 0.0032876543 0)
(0.99931943 0.0032730749 0)
(0.99952572 0.0032395577 0)
(0.99972308 0.0031828642 0)
(0.99990309 0.0031031869 0)
(1.0000573 0.0030070547 0)
(1.0001787 0.0029048562 0)
(1.0002653 0.0028097429 0)
(1.0003275 0.0027385228 0)
(1.0003721 0.0026826229 0)
(1.0004047 0.0026472486 0)
(1.0004376 0.0026254447 0)
(1.0004701 0.0026019588 0)
(1.0005003 0.0025804539 0)
(1.0005311 0.0025595326 0)
(1.0005608 0.0025374701 0)
(1.0005855 0.0025148606 0)
(1.0006001 0.0024917586 0)
(1.0005944 0.0024677187 0)
(1.0005519 0.0024429528 0)
(1.0004468 0.0024177827 0)
(1.0002383 0.0023920757 0)
(0.99986454 0.0023643059 0)
(0.99925189 0.0023343992 0)
(0.99824833 0.0023024317 0)
(0.99671867 0.0022653033 0)
(0.99454555 0.0022204205 0)
(0.99164829 0.0021676191 0)
(0.98799184 0.0021051544 0)
(0.98361864 0.0020258398 0)
(0.97865355 0.0019314123 0)
(0.97324563 0.0018300564 0)
(0.96754814 0.0017254118 0)
(0.96169969 0.0016216993 0)
(0.95580782 0.0015243274 0)
(0.94993504 0.001435562 0)
(0.94410877 0.0013551609 0)
(0.93834185 0.0012831376 0)
(0.93264709 0.0012195188 0)
(0.92704195 0.0011638069 0)
(0.92154384 0.0011133824 0)
(0.91616203 0.0010639069 0)
(0.91089518 0.0010127669 0)
(0.90573644 0.00096097875 0)
(0.90067781 0.00091071838 0)
(0.89571303 0.00086334087 0)
(0.89083803 0.00081920949 0)
(0.88605293 0.00077867608 0)
(0.88135749 0.00074051571 0)
(0.87674808 0.00070370664 0)
(0.87222244 0.00066877737 0)
(0.86778146 0.0006358622 0)
(0.86342571 0.00060502563 0)
(0.85915455 0.00057604952 0)
(0.85496691 0.00054879093 0)
(0.85086159 0.00052320033 0)
(0.84683689 0.00049902263 0)
(0.84289072 0.0004760622 0)
(0.83902115 0.00045431241 0)
(0.83522623 0.00043373462 0)
(0.83150414 0.00041423295 0)
(0.82785319 0.00039575277 0)
(0.82427157 0.00037823398 0)
(0.82075756 0.00036159737 0)
(0.8173095 0.00034581066 0)
(0.81392569 0.00033081948 0)
(0.81060456 0.00031656772 0)
(0.80734456 0.00030303775 0)
(0.80414413 0.00029017664 0)
(0.80100187 0.00027794089 0)
(0.79791627 0.00026632769 0)
(0.79488585 0.00025524053 0)
(0.79190949 0.00024465443 0)
(0.78898561 0.00023462048 0)
(0.78611181 0.00022461739 0)
(0.78327386 0.00020882472 0)
(0.78035386 0.00014574782 0)
(0.77700219 9.1656645e-05 0)
(0.77385454 9.5520142e-05 0)
(0.7709123 0.0001093435 0)
(0.76817843 0.00012377214 0)
(0.765567 0.00013265672 0)
(0.76302015 0.00013656569 0)
(0.76050899 0.00013684964 0)
(0.7580231 0.00013489617 0)
(0.75556543 0.00013200707 0)
(0.75312019 0.00012801523 0)
(0.75073107 0.00012624082 0)
(0.74824019 0.00012084362 4.9923851e-20)
(0.74609718 0.00013670726 0)
(0.74231359 0.00011087846 0)
(0.99672898 0.0019374375 0)
(0.9969366 0.002469596 0)
(0.99732025 0.002811755 0)
(0.99769428 0.0029725031 0)
(0.99798449 0.0030715954 0)
(0.99822684 0.0031568891 0)
(0.99845961 0.0032253821 0)
(0.99868707 0.0032755947 0)
(0.99890433 0.0033102037 0)
(0.99911341 0.003337064 0)
(0.99931821 0.0033349217 0)
(0.99951845 0.0033177934 0)
(0.99970953 0.0032742929 0)
(0.99988386 0.0032057506 0)
(1.0000336 0.0031172261 0)
(1.000153 0.003016973 0)
(1.0002409 0.0029159389 0)
(1.0003052 0.0028265504 0)
(1.0003523 0.0027437932 0)
(1.0003882 0.0026756484 0)
(1.0004241 0.0026203188 0)
(1.0004604 0.0025690579 0)
(1.0004962 0.0025274458 0)
(1.0005344 0.002493566 0)
(1.0005746 0.0024640816 0)
(1.0006158 0.0024379309 0)
(1.0006575 0.0024138413 0)
(1.0006986 0.0023904829 0)
(1.0007376 0.0023684654 0)
(1.0007741 0.0023481003 0)
(1.000807 0.0023295314 0)
(1.0008344 0.0023136639 0)
(1.0008529 0.0023010209 0)
(1.0008549 0.0022906592 0)
(1.0008254 0.002280845 0)
(1.0007371 0.0022695073 0)
(1.0005447 0.002254808 0)
(1.0001841 0.0022351086 0)
(0.9995483 0.0022105494 0)
(0.99849139 0.002180714 0)
(0.99688267 0.002143801 0)
(0.99462157 0.0020999988 0)
(0.99164997 0.0020475597 0)
(0.9879898 0.0019807501 0)
(0.98374251 0.0019012696 0)
(0.97903864 0.0018152564 0)
(0.97401691 0.0017258569 0)
(0.96880293 0.0016388588 0)
(0.96349263 0.0015596068 0)
(0.95814658 0.0014871863 0)
(0.95279559 0.0014183196 0)
(0.94745619 0.0013505891 0)
(0.94214141 0.0012841641 0)
(0.93686543 0.0012202233 0)
(0.9316413 0.001159608 0)
(0.92647725 0.0011024823 0)
(0.92137951 0.0010490954 0)
(0.91635272 0.00099844068 0)
(0.9113985 0.00094967348 0)
(0.90651768 0.00090322802 0)
(0.90171222 0.0008591697 0)
(0.89698432 0.00081760357 0)
(0.89233561 0.00077834801 0)
(0.88776682 0.00074126519 0)
(0.88327913 0.0007063092 0)
(0.87887218 0.00067322508 0)
(0.87454413 0.00064180957 0)
(0.87029445 0.00061203186 0)
(0.86612226 0.000583823 0)
(0.86202644 0.00055706515 0)
(0.85800584 0.00053169052 0)
(0.85405911 0.00050762302 0)
(0.85018493 0.00048476294 0)
(0.84638194 0.00046306514 0)
(0.84264868 0.00044245847 0)
(0.83898377 0.00042286958 0)
(0.83538583 0.00040426824 0)
(0.83185337 0.00038658479 0)
(0.82838508 0.00036976493 0)
(0.82497949 0.00035379982 0)
(0.82163516 0.00033857121 0)
(0.81835101 0.00032404789 0)
(0.81512552 0.00031031157 0)
(0.81195714 0.00029698371 0)
(0.80883752 0.00027880563 0)
(0.80570335 0.00021892705 0)
(0.80240501 0.0001652572 0)
(0.79919154 0.00016179284 0)
(0.79610277 0.00016937863 0)
(0.79315924 0.00017887274 0)
(0.79032144 0.00018437078 0)
(0.78755088 0.00018584389 0)
(0.78482335 0.0001841854 0)
(0.78212709 0.00018042494 0)
(0.77946332 0.00017584823 0)
(0.77681569 0.0001700584 0)
(0.77422775 0.00016734154 0)
(0.77153927 0.00015927516 0)
(0.76922271 0.00018211769 3.5545686e-20)
(0.76514874 0.00014270773 0)
(0.9968891 0.0018995631 0)
(0.99706442 0.0023817365 0)
(0.99739506 0.0027143041 0)
(0.99773446 0.0028930076 0)
(0.99801256 0.0030081192 0)
(0.99824898 0.0031032676 0)
(0.99847509 0.0031759381 0)
(0.99869653 0.0032239254 0)
(0.99890871 0.003253018 0)
(0.99911334 0.0032655022 0)
(0.99931369 0.0032613184 0)
(0.99950877 0.0032362075 0)
(0.99969487 0.0031879194 0)
(0.99986511 0.0031172604 0)
(1.0000123 0.0030286801 0)
(1.0001311 0.0029299601 0)
(1.0002206 0.0028318258 0)
(1.0002875 0.0027455741 0)
(1.0003374 0.0026697163 0)
(1.0003766 0.0026113736 0)
(1.0004146 0.0025686195 0)
(1.0004525 0.0025329683 0)
(1.0004897 0.0025062626 0)
(1.0005287 0.0024851456 0)
(1.0005696 0.0024661477 0)
(1.0006115 0.0024481093 0)
(1.0006543 0.0024299144 0)
(1.000697 0.002410804 0)
(1.0007389 0.0023914691 0)
(1.0007796 0.0023722043 0)
(1.0008188 0.0023533027 0)
(1.0008568 0.0023356431 0)
(1.0008944 0.0023192095 0)
(1.000932 0.002303293 0)
(1.0009694 0.0022875063 0)
(1.0010063 0.0022712503 0)
(1.0010408 0.002254409 0)
(1.0010698 0.0022376345 0)
(1.0010869 0.0022212737 0)
(1.0010796 0.0022050155 0)
(1.0010248 0.002188376 0)
(1.0008821 0.0021703812 0)
(1.0005909 0.0021499623 0)
(1.0000445 0.0021269647 0)
(0.99909937 0.0021004544 0)
(0.99762341 0.0020685533 0)
(0.99551722 0.0020318473 0)
(0.99272591 0.0019851831 0)
(0.98930719 0.0019259188 0)
(0.98536412 0.00185877 0)
(0.98102379 0.0017834184 0)
(0.97640999 0.0017023282 0)
(0.97162083 0.001621319 0)
(0.96672101 0.0015436085 0)
(0.96174869 0.0014705623 0)
(0.956729 0.0014021981 0)
(0.95168548 0.001338009 0)
(0.94664095 0.0012764587 0)
(0.94161289 0.0012167189 0)
(0.93661287 0.0011593011 0)
(0.93164975 0.0011043494 0)
(0.92673161 0.0010520742 0)
(0.92186573 0.0010023711 0)
(0.91705773 0.00095512765 0)
(0.9123126 0.00091034251 0)
(0.90763378 0.00086782466 0)
(0.90302288 0.00082737588 0)
(0.89848155 0.00078893806 0)
(0.894011 0.00075243792 0)
(0.88961203 0.00071774855 0)
(0.88528512 0.0006847976 0)
(0.88103027 0.00065349954 0)
(0.87684727 0.00062373936 0)
(0.87273576 0.00059546338 0)
(0.86869509 0.00056858704 0)
(0.86472457 0.00054302225 0)
(0.8608234 0.00051872989 0)
(0.85699059 0.00049562557 0)
(0.85322524 0.00047364301 0)
(0.84952623 0.0004527674 0)
(0.84589241 0.00043285857 0)
(0.84232294 0.00041387824 0)
(0.83881658 0.00039592631 0)
(0.83537248 0.00037870255 0)
(0.83198573 0.00035715002 0)
(0.82861988 0.00029704066 0)
(0.82521041 0.0002419004 0)
(0.82185588 0.00023335968 0)
(0.8185892 0.00023583364 0)
(0.81543113 0.00024074989 0)
(0.81236624 0.00024262233 0)
(0.80937069 0.00024124393 0)
(0.80642559 0.0002372245 0)
(0.80351883 0.00023130873 0)
(0.80065004 0.00022476664 0)
(0.79780192 0.00021692517 0)
(0.79501753 0.00021307812 0)
(0.79213401 0.00020189263 0)
(0.78964626 0.0002326927 3.4331796e-20)
(0.78528598 0.00017763902 0)
(0.99703742 0.0018684017 0)
(0.99718726 0.0023054901 0)
(0.99747282 0.0026268387 0)
(0.99777919 0.0028163047 0)
(0.99804294 0.0029391685 0)
(0.99827195 0.003037067 0)
(0.99849108 0.003112444 0)
(0.99870658 0.0031642163 0)
(0.99891451 0.0031973251 0)
(0.99911536 0.0032163941 0)
(0.99931149 0.0032178722 0)
(0.99950207 0.0032000084 0)
(0.99968371 0.0031606082 0)
(0.9998502 0.0030999992 0)
(0.99999503 0.0030221269 0)
(1.0001133 0.0029340866 0)
(1.0002044 0.0028456665 0)
(1.0002736 0.00276641 0)
(1.0003261 0.0026962376 0)
(1.0003681 0.0026405537 0)
(1.0004079 0.0025971018 0)
(1.0004467 0.0025588598 0)
(1.0004847 0.0025271945 0)
(1.0005241 0.0024998128 0)
(1.0005649 0.002474469 0)
(1.0006068 0.0024505203 0)
(1.0006494 0.0024272058 0)
(1.0006919 0.0024039974 0)
(1.0007335 0.0023813873 0)
(1.000774 0.0023596625 0)
(1.0008135 0.0023391002 0)
(1.0008522 0.0023203407 0)
(1.0008909 0.0023033232 0)
(1.0009301 0.0022875545 0)
(1.0009704 0.0022726842 0)
(1.0010114 0.0022578727 0)
(1.0010525 0.0022426296 0)
(1.0010928 0.002226889 0)
(1.0011321 0.0022103315 0)
(1.0011695 0.0021930899 0)
(1.0012044 0.00217583 0)
(1.0012359 0.0021591914 0)
(1.0012621 0.0021438894 0)
(1.0012769 0.0021300728 0)
(1.0012673 0.0021171931 0)
(1.0012077 0.0021044635 0)
(1.0010502 0.0020905714 0)
(1.0007269 0.0020757554 0)
(1.0000986 0.0020600697 0)
(0.99902604 0.0020401906 0)
(0.99738893 0.0020127944 0)
(0.99510575 0.0019721006 0)
(0.99219424 0.0019155788 0)
(0.98873914 0.0018484522 0)
(0.98485757 0.0017749155 0)
(0.98066838 0.0016995476 0)
(0.97626707 0.0016267047 0)
(0.97171683 0.001556385 0)
(0.96705612 0.00148832 0)
(0.96231358 0.0014228972 0)
(0.9575165 0.0013597919 0)
(0.95268977 0.0012989311 0)
(0.94785311 0.0012403161 0)
(0.94302147 0.0011839686 0)
(0.93820761 0.0011300363 0)
(0.93342249 0.0010784696 0)
(0.92867459 0.001029142 0)
(0.92397057 0.00098203794 0)
(0.91931589 0.00093711484 0)
(0.91471512 0.00089426104 0)
(0.91017196 0.00085342319 0)
(0.90568918 0.00081452555 0)
(0.90126894 0.00077745254 0)
(0.89691289 0.00074215427 0)
(0.89262212 0.00070854226 0)
(0.88839742 0.00067652158 0)
(0.88423926 0.00064605101 0)
(0.88014775 0.00061703653 0)
(0.87612293 0.00058940366 0)
(0.87216448 0.00056313505 0)
(0.86827196 0.00053807081 0)
(0.86444511 0.00051416733 0)
(0.86068325 0.00049153732 0)
(0.85698627 0.00046992395 0)
(0.85335139 0.00044427508 0)
(0.84975501 0.00038184402 0)
(0.84616923 0.00032421364 0)
(0.84263626 0.00031136583 0)
(0.83917608 0.00030929587 0)
(0.83580403 0.00030982279 0)
(0.83251595 0.00030787187 0)
(0.82929838 0.00030325273 0)
(0.82613765 0.0002964418 0)
(0.82302239 0.00028799101 0)
(0.81995106 0.00027916771 0)
(0.81690541 0.00026898025 0)
(0.81392781 0.00026378142 0)
(0.81085252 0.00024904002 -2.0648905e-20)
(0.80819642 0.00028873208 0)
(0.80355476 0.00021596952 1.0817632e-20)
(0.99717524 0.0018416015 0)
(0.99730485 0.0022381471 0)
(0.99755201 0.00254527 0)
(0.99782745 0.0027403633 0)
(0.99807592 0.0028700284 0)
(0.99829706 0.0029723644 0)
(0.9985093 0.0030529378 0)
(0.99871865 0.003110259 0)
(0.99892184 0.0031479067 0)
(0.99911831 0.0031698208 0)
(0.99930973 0.0031734598 0)
(0.99949551 0.0031577747 0)
(0.99967244 0.0031210684 0)
(0.99983497 0.0030638388 0)
(0.99997723 0.0029899047 0)
(1.0000948 0.0029058885 0)
(1.0001871 0.0028207849 0)
(1.0002584 0.0027429438 0)
(1.0003135 0.0026735787 0)
(1.0003582 0.0026173554 0)
(1.0003999 0.0025725675 0)
(1.0004401 0.0025339053 0)
(1.0004794 0.0025023498 0)
(1.0005197 0.002475909 0)
(1.0005611 0.0024524578 0)
(1.0006035 0.0024309872 0)
(1.0006463 0.0024104761 0)
(1.0006889 0.0023902131 0)
(1.0007307 0.0023703899 0)
(1.0007713 0.0023512242 0)
(1.0008109 0.0023329248 0)
(1.0008498 0.0023159939 0)
(1.0008884 0.0023004349 0)
(1.0009275 0.0022858215 0)
(1.0009673 0.0022717255 0)
(1.0010079 0.0022573395 0)
(1.0010488 0.0022421899 0)
(1.0010895 0.0022262338 0)
(1.0011296 0.002209387 0)
(1.0011689 0.0021920443 0)
(1.0012071 0.0021748616 0)
(1.001244 0.0021582109 0)
(1.0012797 0.0021423031 0)
(1.0013143 0.0021269228 0)
(1.0013476 0.0021121072 0)
(1.0013788 0.0020982532 0)
(1.001407 0.0020860871 0)
(1.0014296 0.0020765274 0)
(1.0014387 0.0020696369 0)
(1.0014157 0.0020634828 0)
(1.0013208 0.0020540566 0)
(1.0010885 0.0020389493 0)
(1.0005905 0.0020186292 0)
(0.99968003 0.0019932222 0)
(0.99823063 0.0019631977 0)
(0.99615687 0.0019240584 0)
(0.99348118 0.0018729886 0)
(0.9902841 0.001812813 0)
(0.98667656 0.0017457627 0)
(0.98276639 0.0016765653 0)
(0.97863543 0.0016084354 0)
(0.97433635 0.0015422397 0)
(0.96990528 0.0014782257 0)
(0.96537412 0.0014161163 0)
(0.96077308 0.0013557768 0)
(0.9561276 0.0012972487 0)
(0.9514574 0.0012405808 0)
(0.94677853 0.0011859255 0)
(0.94210471 0.001133365 0)
(0.93744747 0.0010828725 0)
(0.93281624 0.0010344689 0)
(0.92821877 0.00098813014 0)
(0.92366155 0.00094377364 0)
(0.91914989 0.00090138106 0)
(0.91468802 0.00086088103 0)
(0.91027946 0.000822189 0)
(0.905927 0.00078527592 0)
(0.90163276 0.00075004924 0)
(0.89739851 0.00071643588 0)
(0.89322545 0.00068442412 0)
(0.88911441 0.00065384022 0)
(0.88506627 0.00062464063 0)
(0.88108133 0.00059695143 0)
(0.87716051 0.00057054149 0)
(0.87330265 0.00054028145 0)
(0.86949048 0.00047441515 0)
(0.86571237 0.00041350639 0)
(0.86199089 0.0003963618 0)
(0.85833675 0.00038990666 0)
(0.85475914 0.00038610427 0)
(0.85125823 0.0003801658 0)
(0.8478274 0.00037198397 0)
(0.84445779 0.00036200505 0)
(0.84113961 0.00035065982 0)
(0.83787092 0.00033923596 0)
(0.83463275 0.00032640604 0)
(0.83146688 0.00031963498 0)
(0.82820453 0.00030089713 0)
(0.82538408 0.00035043827 3.409614e-20)
(0.82046748 0.00025787359 0)
(0.99730381 0.001818202 0)
(0.9974172 0.0021785378 0)
(0.9976318 0.0024698685 0)
(0.99787886 0.0026673908 0)
(0.99811167 0.0028030596 0)
(0.99832432 0.0029094915 0)
(0.99852934 0.0029939502 0)
(0.99873208 0.0030551429 0)
(0.99892993 0.0030957819 0)
(0.99912169 0.0031196121 0)
(0.99930838 0.0031256951 0)
(0.99948944 0.0031130666 0)
(0.99966184 0.0030805304 0)
(0.99982059 0.0030287489 0)
(0.99996041 0.0029612518 0)
(1.0000773 0.0028840632 0)
(1.0001706 0.0028053017 0)
(1.0002439 0.0027323035 0)
(1.0003015 0.0026671049 0)
(1.0003488 0.0026137103 0)
(1.0003924 0.002570728 0)
(1.000434 0.0025338953 0)
(1.0004745 0.0025035812 0)
(1.0005155 0.0024778568 0)
(1.0005574 0.0024547351 0)
(1.0006 0.0024331725 0)
(1.000643 0.0024122521 0)
(1.0006857 0.002391412 0)
(1.0007276 0.0023708524 0)
(1.0007684 0.0023508796 0)
(1.0008082 0.0023317534 0)
(1.0008473 0.0023139443 0)
(1.0008861 0.0022975189 0)
(1.0009254 0.0022820983 0)
(1.0009652 0.0022672556 0)
(1.0010057 0.0022522926 0)
(1.0010465 0.0022367784 0)
(1.001087 0.0022206792 0)
(1.001127 0.0022039606 0)
(1.0011659 0.0021869235 0)
(1.0012037 0.0021700557 0)
(1.0012406 0.0021536395 0)
(1.0012766 0.0021378467 0)
(1.0013122 0.0021225956 0)
(1.0013473 0.0021080734 0)
(1.001382 0.002094631 0)
(1.0014162 0.0020826506 0)
(1.0014501 0.0020724076 0)
(1.001485 0.002063985 0)
(1.0015212 0.0020565321 0)
(1.001558 0.0020479032 0)
(1.0015911 0.0020369987 0)
(1.0016107 0.0020245789 0)
(1.0015973 0.0020114952 0)
(1.0015116 0.0019973423 0)
(1.0012893 0.0019817032 0)
(1.0007948 0.0019640647 0)
(0.99988253 0.0019419237 0)
(0.9984265 0.0019130001 0)
(0.99636342 0.0018733696 0)
(0.99373393 0.0018222673 0)
(0.99062736 0.0017631621 0)
(0.98715063 0.0016998262 0)
(0.9833957 0.001635983 0)
(0.97942582 0.0015728976 0)
(0.97528369 0.0015111439 0)
(0.97100519 0.0014506769 0)
(0.9666241 0.0013914727 0)
(0.96216931 0.0013336492 0)
(0.95766385 0.0012773453 0)
(0.95312683 0.0012227631 0)
(0.94857468 0.0011700181 0)
(0.94402124 0.0011191322 0)
(0.939478 0.0010701767 0)
(0.93495451 0.0010231404 0)
(0.9304589 0.00097798441 0)
(0.9259979 0.00093472112 0)
(0.921577 0.00089328088 0)
(0.91720092 0.00085361054 0)
(0.91287337 0.00081571977 0)
(0.90859738 0.00077943259 0)
(0.90437572 0.00074471629 0)
(0.90021034 0.00071171682 0)
(0.89610369 0.00068022223 0)
(0.89205631 0.00064500473 0)
(0.8880546 0.00057508821 0)
(0.88409458 0.0005103037 0)
(0.88019329 0.00048863022 0)
(0.87635676 0.00047773955 0)
(0.87258933 0.00046957231 0)
(0.86889208 0.00045949681 0)
(0.86526252 0.00044748675 0)
(0.86169588 0.00043401427 0)
(0.85818457 0.00041944331 0)
(0.85472702 0.00040511099 0)
(0.851304 0.00038934907 0)
(0.84795698 0.000380791 0)
(0.84451418 0.00035760889 0)
(0.84153496 0.00041781054 0)
(0.83635186 0.00030350156 0)
(0.9974242 0.0017973454 0)
(0.99752443 0.0021254638 0)
(0.99771152 0.0024003638 0)
(0.99793286 0.0025975555 0)
(0.99814993 0.002737661 0)
(0.99835347 0.0028472951 0)
(0.99855099 0.0029346906 0)
(0.99874686 0.0029992755 0)
(0.99893905 0.0030431 0)
(0.99912593 0.0030695904 0)
(0.99930785 0.0030787211 0)
(0.99948417 0.0030695362 0)
(0.99965206 0.0030412136 0)
(0.99980705 0.0029945322 0)
(0.99994436 0.002932732 0)
(1.0000604 0.0028613116 0)
(1.0001544 0.0027876149 0)
(1.0002295 0.0027182041 0)
(1.0002893 0.002655684 0)
(1.0003391 0.0026035791 0)
(1.0003844 0.0025608442 0)
(1.0004274 0.0025241305 0)
(1.000469 0.0024934902 0)
(1.0005108 0.002467244 0)
(1.0005533 0.0024436887 0)
(1.0005962 0.0024218575 0)
(1.0006393 0.0024009174 0)
(1.0006822 0.0023803538 0)
(1.0007243 0.0023602676 0)
(1.0007654 0.002340909 0)
(1.0008054 0.0023224823 0)
(1.0008448 0.0023053498 0)
(1.0008839 0.0022895556 0)
(1.0009233 0.0022747301 0)
(1.0009632 0.0022604398 0)
(1.0010038 0.0022460469 0)
(1.0010445 0.002231118 0)
(1.001085 0.0022155823 0)