/*--------------------------------*- C++ -*----------------------------------*\
  =========                 |
  \\      /  F ield         | OpenFOAM: The Open Source CFD Toolbox
   \\    /   O peration     | Website:  https://openfoam.org
    \\  /    A nd           | Version:  12
     \\/     M anipulation  |
\*---------------------------------------------------------------------------*/
FoamFile
{
    format      ascii;
    class       volVectorField;
    location    "1100";
    object      U;
}
// * * * * * * * * * * * * * * * * * * * * * * * * * * * * * * * * * * * * * //

dimensions      [0 1 -1 0 0 0 0];

internalField   nonuniform List<vector> 
13056
(
(1 2.2279868e-10 8.7545847e-25)
(0.99998325 7.4755341e-10 0)
(0.99994847 1.2499982e-09 0)
(0.99990611 1.6527161e-09 0)
(0.99985835 2.1005956e-09 0)
(0.99980507 2.6425943e-09 0)
(0.99974618 3.2938244e-09 0)
(0.99968163 4.0785748e-09 0)
(0.99961115 5.0356664e-09 0)
(0.99953423 6.2145508e-09 0)
(0.99945012 7.6768017e-09 0)
(0.99935786 9.5039469e-09 0)
(0.99925616 1.1806984e-08 0)
(0.99914328 1.4749859e-08 0)
(0.99901671 1.8554055e-08 0)
(0.99887314 2.3641907e-08 0)
(0.99870653 3.0409056e-08 0)
(0.99851131 4.0652957e-08 0)
(0.99826517 5.3757204e-08 0)
(0.99797253 8.2878951e-08 0)
(0.99749519 1.1007311e-07 0)
(0.99700175 3.2015358e-07 0)
(0.99483051 2.5559857e-07 -2.6061068e-21)
(0.9948894 0.00011939912 2.7988754e-16)
(0.028596453 0.00012500121 0)
(0.014433931 4.6883233e-07 -9.8678207e-20)
(0.012912642 1.9012607e-07 1.6268121e-17)
(0.012414343 1.9977434e-08 2.2209618e-21)
(0.012098136 1.4173974e-08 0)
(0.011833578 1.2050485e-08 0)
(0.011600784 1.0571249e-08 0)
(0.011393499 9.3629945e-09 0)
(0.011207165 8.3781553e-09 0)
(0.011037796 7.5722524e-09 0)
(0.010882447 6.896372e-09 0)
(0.010739001 6.316822e-09 0)
(0.010605845 5.8129216e-09 0)
(0.010481671 5.3712186e-09 0)
(0.010365393 4.9811357e-09 0)
(0.010256111 4.6341379e-09 0)
(0.010153067 4.3235418e-09 0)
(0.010055618 4.0442149e-09 0)
(0.0099632 3.7921616e-09 0)
(0.0098753258 3.563546e-09 0)
(0.0097915721 3.3556895e-09 0)
(0.0097115606 3.1657493e-09 0)
(0.0096349738 2.9914585e-09 0)
(0.0095615202 2.8315679e-09 0)
(0.0094909338 2.68406e-09 0)
(0.0094229951 2.5474821e-09 0)
(0.009357497 2.4212038e-09 0)
(0.0092942447 2.3039804e-09 0)
(0.0092330746 2.1946455e-09 0)
(0.0091738406 2.0926971e-09 0)
(0.0091163977 1.9976727e-09 0)
(0.0090606153 1.9085749e-09 0)
(0.0090063871 1.8247869e-09 0)
(0.0089536099 1.746212e-09 0)
(0.0089021781 1.6724386e-09 0)
(0.008852001 1.6027554e-09 0)
(0.0088030044 1.5367986e-09 0)
(0.008755114 1.4745663e-09 0)
(0.0087082513 1.4158321e-09 0)
(0.0086623479 1.360044e-09 0)
(0.0086173506 1.3069221e-09 0)
(0.0085732047 1.2565247e-09 0)
(0.008529851 1.2087028e-09 0)
(0.0084872363 1.1631463e-09 0)
(0.0084453168 1.1195826e-09 0)
(0.0084040526 1.0779652e-09 0)
(0.0083634011 1.0382797e-09 0)
(0.0083233178 1.0004198e-09 0)
(0.0082837635 9.6409539e-10 0)
(0.0082447094 9.291781e-10 0)
(0.0082061233 8.9573251e-10 0)
(0.0081679695 8.6370108e-10 0)
(0.008130214 8.3295114e-10 0)
(0.0080928286 8.0330889e-10 0)
(0.0080557895 7.7473305e-10 0)
(0.0080190701 7.4725667e-10 0)
(0.0079826402 7.2085433e-10 0)
(0.0079464711 6.95382e-10 0)
(0.0079105418 6.7072953e-10 0)
(0.0078748311 6.469187e-10 0)
(0.0078393144 6.2395579e-10 0)
(0.0078039649 6.0181826e-10 0)
(0.0077687571 5.803756e-10 0)
(0.0077336738 5.5956241e-10 0)
(0.0076986945 5.3942781e-10 0)
(0.0076637943 5.1996789e-10 0)
(0.0076289477 5.0113465e-10 0)
(0.0075941324 4.8284107e-10 0)
(0.0075593301 4.6506019e-10 0)
(0.0075245196 4.4782883e-10 0)
(0.0074896738 4.3115587e-10 0)
(0.0074547656 4.1495483e-10 0)
(0.0074197758 3.9917095e-10 0)
(0.0073846827 3.8384228e-10 0)
(0.0073494578 3.6898151e-10 0)
(0.0073140713 3.5454831e-10 0)
(0.0072784966 3.4048523e-10 0)
(0.0072427096 3.2678915e-10 0)
(0.0072066803 3.1348689e-10 0)
(0.0071703731 3.0055808e-10 0)
(0.0071337555 2.8794912e-10 0)
(0.007096798 2.7565523e-10 0)
(0.0070594632 2.637055e-10 0)
(0.007021707 2.5207432e-10 0)
(0.0069834898 2.4071974e-10 0)
(0.0069447712 2.2965009e-10 0)
(0.0069055007 2.188877e-10 0)
(0.0068656195 2.083715e-10 0)
(0.0068250874 1.9816615e-10 0)
(0.0067847309 1.8852401e-10 0)
(0.0067458258 1.7956807e-10 0)
(0.0067087426 1.7128645e-10 0)
(0.0066733419 1.6364928e-10 0)
(0.0066394906 1.56613e-10 0)
(0.0066070678 1.5010375e-10 0)
(0.006575971 1.4405641e-10 0)
(0.0065461071 1.3844334e-10 0)
(0.0065173857 1.3323899e-10 0)
(0.0064897246 1.283894e-10 0)
(0.0064630555 1.2384921e-10 0)
(0.0064373154 1.1960403e-10 0)
(0.006412443 1.1564272e-10 0)
(0.0063883795 1.1195817e-10 0)
(0.0063650668 1.0851549e-10 0)
(0.0063424605 1.0534227e-10 0)
(0.0063204906 1.0235747e-10 0)
(0.0062991498 9.997092e-11 0)
(0.0062781878 9.7373839e-11 0)
(0.0062579618 9.7538354e-11 0)
(0.0062368898 3.5123533e-10 0)
(0.0062186235 1.1302973e-10 1.5772328e-22)
(0.0061881552 2.7563804e-10 0)
(1 6.718674e-10 0)
(0.99998324 2.2547134e-09 0)
(0.99994843 3.7707868e-09 0)
(0.99990602 4.9861403e-09 0)
(0.99985821 6.3375743e-09 0)
(0.99980486 7.9728161e-09 0)
(0.99974591 9.9375082e-09 0)
(0.99968128 1.2304916e-08 0)
(0.99961072 1.5192107e-08 0)
(0.99953371 1.8748208e-08 0)
(0.99944951 2.3158897e-08 0)
(0.99935716 2.8670019e-08 0)
(0.99925536 3.5616271e-08 0)
(0.99914238 4.4492004e-08 0)
(0.99901569 5.5965032e-08 0)
(0.99887201 7.1308798e-08 0)
(0.99870529 9.1716134e-08 0)
(0.99850995 1.2260677e-07 0)
(0.99826367 1.6212139e-07 0)
(0.99797088 2.4993125e-07 0)
(0.99749335 3.319205e-07 0)
(0.99699978 9.653368e-07 0)
(0.99482812 7.7070423e-07 9.5470321e-21)
(0.99488647 0.00035987111 -2.9138823e-21)
(0.083760536 0.00036787563 0)
(0.04351726 8.1930414e-06 0)
(0.038930242 1.0710148e-06 2.2940336e-20)
(0.037428956 4.2098685e-07 0)
(0.036474449 2.9773993e-07 -1.9627047e-21)
(0.035676527 2.5267703e-07 0)
(0.034974664 2.2148773e-07 0)
(0.034349753 1.9620279e-07 0)
(0.033787987 1.7556575e-07 0)
(0.033277368 1.5866037e-07 0)
(0.032809026 1.4448609e-07 0)
(0.032376577 1.3233773e-07 0)
(0.031975149 1.2178034e-07 0)
(0.031600799 1.1252619e-07 0)
(0.031250253 1.0435327e-07 0)
(0.030920797 9.7082948e-08 0)
(0.030610147 9.057551e-08 0)
(0.030316364 8.4724152e-08 0)
(0.030037747 7.9442805e-08 0)
(0.029772829 7.4654347e-08 0)
(0.029520332 7.0299085e-08 0)
(0.029279117 6.6319879e-08 0)
(0.029048226 6.2669776e-08 0)
(0.028826781 5.9318872e-08 0)
(0.028613979 5.622887e-08 0)
(0.028409159 5.3368698e-08 0)
(0.028211697 5.0722406e-08 0)
(0.028021005 4.8266461e-08 0)
(0.02783659 4.5976601e-08 0)
(0.027658012 4.3841029e-08 0)
(0.027484834 4.184949e-08 0)
(0.027316661 3.9983191e-08 0)
(0.027153174 3.8228584e-08 0)
(0.026994061 3.6582169e-08 0)
(0.026839004 3.5036111e-08 0)
(0.02668773 3.3576565e-08 0)
(0.026540015 3.219532e-08 0)
(0.026395634 3.0891378e-08 0)
(0.026254352 2.9660406e-08 0)
(0.026115962 2.8491857e-08 0)
(0.025980303 2.7379496e-08 0)
(0.025847211 2.6323481e-08 0)
(0.025716507 2.5321383e-08 0)
(0.025588031 2.4366912e-08 0)
(0.025461651 2.3454594e-08 0)
(0.025337247 2.2582786e-08 0)
(0.025214689 2.1751295e-08 0)
(0.025093845 2.0957863e-08 0)
(0.024974596 2.0197021e-08 0)
(0.024856854 1.9465808e-08 0)
(0.024740523 1.8765007e-08 0)
(0.024625495 1.8093862e-08 0)
(0.024511669 1.7449556e-08 0)
(0.024398958 1.6828731e-08 0)
(0.024287291 1.6230183e-08 0)
(0.024176588 1.565451e-08 0)
(0.024066757 1.5101246e-08 0)
(0.023957713 1.456761e-08 0)
(0.023849392 1.4051326e-08 0)
(0.023741729 1.355248e-08 0)
(0.023634652 1.3071395e-08 0)
(0.023528079 1.2607493e-08 0)
(0.023421933 1.2158332e-08 0)
(0.023316162 1.172244e-08 0)
(0.023210704 1.1300576e-08 0)
(0.023105485 1.0892864e-08 0)
(0.023000428 1.0498261e-08 0)
(0.022895465 1.0115088e-08 0)
(0.022790541 9.7426399e-09 0)
(0.022685592 9.381634e-09 0)
(0.022580537 9.0322626e-09 0)
(0.022475294 8.6928799e-09 0)
(0.022369805 8.3622967e-09 0)
(0.022264004 8.041146e-09 0)
(0.022157806 7.7297878e-09 0)
(0.02205112 7.4274039e-09 0)
(0.021943868 7.1328329e-09 0)
(0.021835975 6.8459264e-09 0)
(0.021727351 6.5672233e-09 0)
(0.02161789 6.296356e-09 0)
(0.021507493 6.0322342e-09 0)
(0.021396071 5.7747047e-09 0)
(0.021283511 5.5243363e-09 0)
(0.021169681 5.2806676e-09 0)
(0.021054462 5.042822e-09 0)
(0.02093773 4.8109208e-09 0)
(0.020819335 4.5854364e-09 0)
(0.020699098 4.3651261e-09 0)
(0.020576899 4.1513808e-09 0)
(0.020455229 3.949389e-09 0)
(0.020337935 3.761745e-09 0)
(0.020226134 3.5882579e-09 0)
(0.020119406 3.4282646e-09 0)
(0.020017348 3.28085e-09 0)
(0.019919598 3.1444905e-09 0)
(0.019825845 3.017814e-09 0)
(0.019735809 2.9002201e-09 0)
(0.019649218 2.791178e-09 0)
(0.019565823 2.6895821e-09 0)
(0.019485419 2.5944774e-09 0)
(0.019407816 2.5055342e-09 0)
(0.019332829 2.4225378e-09 0)
(0.019260281 2.3453286e-09 0)
(0.019189996 2.2731874e-09 0)
(0.019121842 2.2067061e-09 0)
(0.019055606 2.1440733e-09 0)
(0.018991267 2.0941207e-09 0)
(0.018928073 2.0390738e-09 0)
(0.018867095 2.044107e-09 0)
(0.018803582 1.9774775e-09 0)
(0.018748511 2.4048741e-09 -2.4225378e-22)
(0.018656652 1.5422543e-09 3.7104549e-23)
(1 1.1311229e-09 0)
(0.99998323 3.7965356e-09 0)
(0.99994839 6.3503026e-09 0)
(0.99990594 8.397823e-09 0)
(0.99985805 1.0674282e-08 0)
(0.99980464 1.3428519e-08 0)
(0.9997456 1.6737483e-08 0)
(0.99968089 2.0724551e-08 0)
(0.99961024 2.5586815e-08 0)
(0.99953313 3.1575338e-08 0)
(0.99944883 3.9002716e-08 0)
(0.99935638 4.8282828e-08 0)
(0.99925447 5.9979117e-08 0)
(0.99914138 7.4923785e-08 0)
(0.99901457 9.4241005e-08 0)
(0.99887077 1.2007448e-07 0)
(0.99870391 1.5443202e-07 0)
(0.99850843 2.0643706e-07 0)
(0.998262 2.7295871e-07 0)
(0.99796905 4.2077768e-07 0)
(0.99749133 5.587954e-07 0)
(0.99699759 1.6250065e-06 0)
(0.99482554 1.2977927e-06 -4.9945975e-21)
(0.99488332 0.00058819112 9.7500031e-55)
(0.13772493 0.00060803421 -8.2369533e-54)
(0.073249465 2.2857821e-05 0)
(0.065526573 3.0599024e-06 -1.2125802e-20)
(0.063000054 1.2227875e-06 0)
(0.061391899 8.6502261e-07 0)
(0.060048538 7.3367666e-07 0)
(0.058867253 6.4300679e-07 0)
(0.05781554 5.6960248e-07 0)
(0.056870071 5.0969586e-07 0)
(0.056010685 4.6061165e-07 0)
(0.055222462 4.1945661e-07 0)
(0.054494654 3.841863e-07 0)
(0.053819053 3.5353736e-07 0)
(0.053189023 3.2667229e-07 0)
(0.052599054 3.0294596e-07 0)
(0.052044577 2.8183982e-07 0)
(0.05152175 2.629485e-07 0)
(0.051027308 2.45962e-07 0)
(0.050558391 2.3062994e-07 0)
(0.050112526 2.1672913e-07 0)
(0.049687567 2.0408546e-07 0)
(0.049281594 1.9253369e-07 0)
(0.048892995 1.8193762e-07 0)
(0.048520293 1.7220941e-07 0)
(0.048162139 1.6323901e-07 0)
(0.047817416 1.5493611e-07 0)
(0.047485076 1.472535e-07 0)
(0.047164132 1.4012363e-07 0)
(0.046853751 1.3347624e-07 0)
(0.046553192 1.2727656e-07 0)
(0.046261722 1.2149467e-07 0)
(0.045978677 1.1607673e-07 0)
(0.045703516 1.1098321e-07 0)
(0.045435717 1.062034e-07 0)
(0.045174745 1.0171483e-07 0)
(0.044920139 9.7477727e-08 0)
(0.044671522 9.3468037e-08 0)
(0.044428516 8.9682471e-08 0)
(0.044190727 8.610862e-08 0)
(0.043957805 8.2716264e-08 0)
(0.043729479 7.9487144e-08 0)
(0.043505472 7.642135e-08 0)
(0.043285486 7.3512014e-08 0)
(0.04306925 7.0741041e-08 0)
(0.04285654 6.8092587e-08 0)
(0.042647155 6.5561658e-08 0)
(0.042440878 6.3147671e-08 0)
(0.042237486 6.0844125e-08 0)
(0.042036777 5.863535e-08 0)
(0.041838605 5.6512648e-08 0)
(0.041642808 5.447809e-08 0)
(0.041449204 5.2529598e-08 0)
(0.041257622 5.0659048e-08 0)
(0.041067918 4.8856766e-08 0)
(0.040879969 4.7119138e-08 0)
(0.040693643 4.5447847e-08 0)
(0.040508786 4.3841575e-08 0)
(0.040325253 4.2292352e-08 0)
(0.040142936 4.0793562e-08 0)
(0.039961727 3.9345341e-08 0)
(0.039781503 3.7948653e-08 0)
(0.039602128 3.6601823e-08 0)
(0.039423472 3.5297859e-08 0)
(0.039245446 3.4032443e-08 0)
(0.039067948 3.2807689e-08 0)
(0.038890851 3.1624009e-08 0)
(0.038714027 3.0478394e-08 0)
(0.038537361 2.9366004e-08 0)
(0.038360761 2.8284747e-08 0)
(0.038184119 2.7236675e-08 0)
(0.038007297 2.6222359e-08 0)
(0.03783016 2.523708e-08 0)
(0.037652607 2.427737e-08 0)
(0.03747453 2.3345008e-08 0)
(0.037295785 2.2441064e-08 0)
(0.037116219 2.1563185e-08 0)
(0.036935699 2.0708008e-08 0)
(0.0367541 1.9875075e-08 0)
(0.036571271 1.9065938e-08 0)
(0.036387033 1.8279553e-08 0)
(0.03620122 1.751277e-08 0)
(0.036013681 1.6765121e-08 0)
(0.035824227 1.6038245e-08 0)
(0.035632636 1.5330827e-08 0)
(0.035438704 1.4640325e-08 0)
(0.035242228 1.3967072e-08 0)
(0.035042951 1.3312439e-08 0)
(0.034840576 1.2672837e-08 0)
(0.034634897 1.2052307e-08 0)
(0.034430109 1.1465884e-08 0)
(0.034232685 1.0921108e-08 0)
(0.034044507 1.0417442e-08 0)
(0.033864867 9.9529488e-09 0)
(0.033693089 9.5249721e-09 0)
(0.033528561 9.1290949e-09 0)
(0.03337076 8.7613318e-09 0)
(0.033219216 8.4199312e-09 0)
(0.03307347 8.103354e-09 0)
(0.032933104 7.8083998e-09 0)
(0.032797771 7.5322939e-09 0)
(0.032667154 7.2740699e-09 0)
(0.032540939 7.0331082e-09 0)
(0.03241883 6.8089436e-09 0)
(0.03230053 6.5994937e-09 0)
(0.032185817 6.4064719e-09 0)
(0.032074333 6.224606e-09 0)
(0.031966042 6.0795367e-09 0)
(0.03185968 5.9195864e-09 0)
(0.031757047 5.9340598e-09 0)
(0.031650165 5.6474832e-09 0)
(0.031557472 6.9892686e-09 0)
(0.031402859 4.3951631e-09 0)
(1 1.6074504e-09 1.8757253e-24)
(0.99998322 5.3962923e-09 0)
(0.99994835 9.0276868e-09 0)
(0.99990584 1.1939697e-08 0)
(0.99985788 1.5176804e-08 0)
(0.99980439 1.9092847e-08 0)
(0.99974526 2.3797351e-08 0)
(0.99968046 2.9465697e-08 0)
(0.99960971 3.6377983e-08 0)
(0.99953249 4.4890997e-08 0)
(0.99944808 5.5448976e-08 0)
(0.99935551 6.8640067e-08 0)
(0.99925348 8.5264935e-08 0)
(0.99914026 1.0650614e-07 0)
(0.99901333 1.3396107e-07 0)
(0.99886938 1.7067587e-07 0)
(0.99870238 2.1950328e-07 0)
(0.99850675 2.9340739e-07 0)
(0.99826015 3.8793762e-07 0)
(0.99796703 5.9798647e-07 0)
(0.99748908 7.9409888e-07 0)
(0.99699517 2.3090431e-06 0)
(0.99482273 1.8445271e-06 0)
(0.9948799 0.00080959048 -5.0821751e-55)
(0.19117314 0.00085068605 4.2777623e-54)
(0.10405703 4.5600776e-05 0)
(0.093091699 6.3085485e-06 0)
(0.089500931 2.5196875e-06 0)
(0.087214374 1.7826023e-06 0)
(0.085305801 1.5112715e-06 0)
(0.083628003 1.324325e-06 0)
(0.082134305 1.1731415e-06 0)
(0.080791448 1.0497709e-06 0)
(0.079570849 9.4867144e-07 0)
(0.07845133 8.6390231e-07 0)
(0.07741762 7.9125808e-07 0)
(0.076458056 7.281357e-07 0)
(0.075563209 6.7280701e-07 0)
(0.074725254 6.2394224e-07 0)
(0.073937704 5.8047359e-07 0)
(0.073195105 5.4156652e-07 0)
(0.072492817 5.0658264e-07 0)
(0.071826779 4.750057e-07 0)
(0.071193481 4.4637687e-07 0)
(0.070589872 4.2033654e-07 0)
(0.07001323 3.9654526e-07 0)
(0.069461261 3.747226e-07 0)
(0.068931869 3.5468635e-07 0)
(0.068423141 3.3621139e-07 0)
(0.067933487 3.1911152e-07 0)
(0.067461419 3.0328835e-07 0)
(0.067005537 2.8860371e-07 0)
(0.066564659 2.7491327e-07 0)
(0.066137729 2.6214459e-07 0)
(0.065723708 2.502359e-07 0)
(0.065321654 2.3907728e-07 0)
(0.064930798 2.2858709e-07 0)
(0.064550395 2.1874246e-07 0)
(0.064179691 2.0949747e-07 0)
(0.06381803 2.0077087e-07 0)
(0.063464873 1.9251279e-07 0)
(0.063119686 1.8471587e-07 0)
(0.062781908 1.7735482e-07 0)
(0.062451043 1.7036797e-07 0)
(0.062126706 1.637175e-07 0)
(0.061808504 1.5740304e-07 0)
(0.061496012 1.514107e-07 0)
(0.061188846 1.4570349e-07 0)
(0.06088669 1.4024883e-07 0)
(0.060589254 1.3503611e-07 0)
(0.060296233 1.3006408e-07 0)
(0.06000731 1.2531945e-07 0)
(0.059722199 1.2077025e-07 0)
(0.05944069 1.163984e-07 0)
(0.059162553 1.1220789e-07 0)
(0.058887532 1.0819458e-07 0)
(0.058615383 1.0434185e-07 0)
(0.0583459 1.0062987e-07 0)
(0.058078911 9.7051027e-08 0)
(0.057814226 9.3608699e-08 0)
(0.057551627 9.0300234e-08 0)
(0.057290909 8.7109363e-08 0)
(0.057031918 8.4022457e-08 0)
(0.056774501 8.1039623e-08 0)
(0.056518482 7.816287e-08 0)
(0.056263668 7.538878e-08 0)
(0.056009876 7.2703075e-08 0)
(0.055756979 7.009681e-08 0)
(0.055504831 6.7574203e-08 0)
(0.055253253 6.5136165e-08 0)
(0.055002061 6.2776541e-08 0)
(0.054751094 6.0485413e-08 0)
(0.054500219 5.8258408e-08 0)
(0.054249285 5.6099696e-08 0)
(0.053998096 5.4010479e-08 0)
(0.053746457 5.1981129e-08 0)
(0.053494228 5.0004472e-08 0)
(0.053241254 4.8084093e-08 0)
(0.05298733 4.6222221e-08 0)
(0.052732241 4.4414053e-08 0)
(0.052475794 4.2652678e-08 0)
(0.052217815 4.0937101e-08 0)
(0.051958089 3.9270507e-08 0)
(0.05169636 3.7650784e-08 0)
(0.051432393 3.6071457e-08 0)
(0.051165973 3.4531534e-08 0)
(0.050896834 3.3034371e-08 0)
(0.050624657 3.1577296e-08 0)
(0.050349156 3.0155079e-08 0)
(0.050070039 2.8768376e-08 0)
(0.049786943 2.7420012e-08 0)
(0.049499445 2.610262e-08 0)
(0.049207252 2.4824529e-08 0)
(0.048916325 2.3616665e-08 0)
(0.04863586 2.2494568e-08 0)
(0.048368529 2.1457159e-08 0)
(0.048113327 2.0500448e-08 0)
(0.047869294 1.9618918e-08 0)
(0.047635559 1.8803524e-08 0)
(0.047411382 1.8046041e-08 0)
(0.047196093 1.7342847e-08 0)
(0.04698904 1.6690777e-08 0)
(0.04678963 1.6083251e-08 0)
(0.046597372 1.5514552e-08 0)
(0.046411812 1.4982676e-08 0)
(0.046232506 1.448635e-08 0)
(0.046059033 1.4024615e-08 0)
(0.045890972 1.3593191e-08 0)
(0.045728005 1.3195594e-08 0)
(0.045569628 1.2820959e-08 0)
(0.045415786 1.2522049e-08 0)
(0.04526469 1.2192453e-08 0)
(0.045118886 1.2221902e-08 0)
(0.044967076 1.1641501e-08 0)
(0.04483539 1.4403776e-08 0)
(0.044615738 9.0502952e-09 0)
(1 2.1079816e-09 0)
(0.99998322 7.0780343e-09 0)
(0.9999483 1.1843356e-08 0)
(0.99990572 1.5665364e-08 0)
(0.99985769 1.9913344e-08 0)
(0.99980411 2.5051612e-08 0)
(0.99974488 3.1224043e-08 0)
(0.99967997 3.8660703e-08 0)
(0.99960911 4.7728914e-08 0)
(0.99953177 5.8896569e-08 0)
(0.99944724 7.2746233e-08 0)
(0.99935454 9.0049165e-08 0)
(0.99925237 1.1185528e-07 0)
(0.99913901 1.3971522e-07 0)
(0.99901193 1.7572353e-07 0)
(0.99886784 2.2387446e-07 0)
(0.99870067 2.8790822e-07 0)
(0.99850487 3.8482383e-07 0)
(0.99825808 5.0878308e-07 0)
(0.99796476 7.842124e-07 0)
(0.99748657 1.0413477e-06 0)
(0.99699246 3.0276499e-06 0)
(0.99481964 2.4190859e-06 0)
(0.99487617 0.001027193 0)
(0.2446254 0.0010954564 0)
(0.136369 7.6417064e-05 0)
(0.12201793 1.0943027e-05 0)
(0.11730644 4.3718448e-06 4.4001712e-21)
(0.11430768 3.0925098e-06 0)
(0.11180683 2.6206901e-06 0)
(0.10960905 2.2962079e-06 0)
(0.10765248 2.0340776e-06 0)
(0.1058934 1.8201999e-06 0)
(0.10429444 1.6449034e-06 0)
(0.10282788 1.497918e-06 0)
(0.10147371 1.3719622e-06 0)
(0.10021665 1.262521e-06 0)
(0.099044355 1.1665933e-06 0)
(0.097946569 1.0818717e-06 0)
(0.096914801 1.0065052e-06 0)
(0.095941909 9.3904747e-07 0)
(0.095021813 8.7839185e-07 0)
(0.094149199 8.2364256e-07 0)
(0.093319468 7.7400502e-07 0)
(0.092528624 7.2885462e-07 0)
(0.091773104 6.8760396e-07 0)
(0.091049901 6.497669e-07 0)
(0.090356272 6.1502576e-07 0)
(0.089689711 5.8299231e-07 0)
(0.089048135 5.5334361e-07 0)
(0.088429595 5.2590725e-07 0)
(0.087832259 5.0044512e-07 0)
(0.087254577 4.7670756e-07 0)
(0.086695165 4.5456768e-07 0)
(0.086152665 4.3391819e-07 0)
(0.085625842 4.1456996e-07 0)
(0.085113686 3.9638114e-07 0)
(0.084615225 3.7931076e-07 0)
(0.08412947 3.6327984e-07 0)
(0.083655561 3.4814845e-07 0)
(0.083192791 3.3382966e-07 0)
(0.082740463 3.2030981e-07 0)
(0.082297841 3.0754541e-07 0)
(0.081864277 2.9543048e-07 0)
(0.081439262 2.8389907e-07 0)
(0.081022284 2.7294972e-07 0)
(0.080612787 2.6255869e-07 0)
(0.080210269 2.5266231e-07 0)
(0.079814312 2.4320415e-07 0)
(0.079424538 2.3416536e-07 0)
(0.079040549 2.255436e-07 0)
(0.078661927 2.1731608e-07 0)
(0.0782883 2.0942776e-07 0)
(0.077919391 2.0184711e-07 0)
(0.077554899 1.9458056e-07 0)
(0.077194489 1.8762116e-07 0)
(0.076837842 1.809403e-07 0)
(0.076484687 1.745037e-07 0)
(0.076134798 1.6829794e-07 0)
(0.075787926 1.623287e-07 0)
(0.075443789 1.565915e-07 0)
(0.075102115 1.5105835e-07 0)
(0.074762701 1.4570561e-07 0)
(0.074425349 1.4053322e-07 0)
(0.074089829 1.3554466e-07 0)
(0.073755886 1.3073409e-07 0)
(0.073423282 1.2607693e-07 0)
(0.073091848 1.2155758e-07 0)
(0.072761395 1.1718316e-07 0)
(0.072431687 1.1295533e-07 0)
(0.072102486 1.088635e-07 0)
(0.071773578 1.0489054e-07 0)
(0.071444788 1.0102877e-07 0)
(0.071115919 9.7285334e-08 0)
(0.070786716 9.3662356e-08 0)
(0.070456922 9.0143278e-08 0)
(0.070126354 8.6715621e-08 0)
(0.069794807 8.3385474e-08 0)
(0.069462014 8.0156744e-08 0)
(0.069127693 7.7021169e-08 0)
(0.068791591 7.3966779e-08 0)
(0.068453481 7.0991788e-08 0)
(0.068113078 6.8101688e-08 0)
(0.067770051 6.5292873e-08 0)
(0.067424088 6.2554147e-08 0)
(0.06707491 5.9883739e-08 0)
(0.066722165 5.728744e-08 0)
(0.066365439 5.4760673e-08 0)
(0.066004354 5.2294375e-08 0)
(0.065638529 4.9889639e-08 0)
(0.065267488 4.7551364e-08 0)
(0.064890675 4.526682e-08 0)
(0.064507708 4.3050454e-08 0)
(0.064126397 4.0955836e-08 0)
(0.063758799 3.9009927e-08 0)
(0.063408414 3.7210898e-08 0)
(0.063073924 3.5551806e-08 0)
(0.062754072 3.4023086e-08 0)
(0.062447718 3.2609064e-08 0)
(0.06215389 3.1295471e-08 0)
(0.06187171 3.0076011e-08 0)
(0.061600326 2.8945195e-08 0)
(0.061338959 2.7891639e-08 0)
(0.061086965 2.6905421e-08 0)
(0.060843748 2.5983046e-08 0)
(0.06060873 2.5122311e-08 0)
(0.060381356 2.4321554e-08 0)
(0.060161077 2.3573363e-08 0)
(0.059947474 2.2883816e-08 0)
(0.059739887 2.223407e-08 0)
(0.059538245 2.1715498e-08 0)
(0.059340209 2.1143775e-08 0)
(0.0591491 2.1193983e-08 0)
(0.058950159 2.0196021e-08 0)
(0.058777555 2.4986972e-08 -3.1185526e-22)
(0.058489647 1.5691548e-08 4.7766151e-23)
(1 2.6402284e-09 0)
(0.99998321 8.8671597e-09 0)
(0.99994825 1.4840087e-08 0)
(0.9999056 1.9631637e-08 0)
(0.99985748 2.4956225e-08 0)
(0.99980379 3.1395811e-08 0)
(0.99974446 3.913094e-08 0)
(0.99967943 4.8449867e-08 0)
(0.99960844 5.9812675e-08 0)
(0.99953097 7.3805404e-08 0)
(0.9994463 9.1157711e-08 0)
(0.99935345 1.1283556e-07 0)
(0.99925113 1.4015386e-07 0)
(0.99913761 1.7505461e-07 0)
(0.99901037 2.2016085e-07 0)
(0.9988661 2.8047477e-07 0)
(0.99869876 3.6067982e-07 0)
(0.99850276 4.8206464e-07 0)
(0.99825576 6.3731435e-07 0)
(0.99796222 9.8225301e-07 0)
(0.99748376 1.3042471e-06 0)
(0.99698943 3.7915524e-06 0)
(0.99481624 3.0301063e-06 0)
(0.99487213 0.0012426312 0)
(0.2984291 0.001345921 0)
(0.17060127 0.00011611741 0)
(0.15269268 1.7217778e-05 0)
(0.14678641 6.8867572e-06 0)
(0.14303361 4.8692447e-06 0)
(0.13990709 4.1244671e-06 0)
(0.13716034 3.6133275e-06 0)
(0.13471507 3.2008669e-06 0)
(0.13251641 2.8643839e-06 0)
(0.13051777 2.5885505e-06 0)
(0.12868458 2.3572554e-06 0)
(0.12699181 2.1590589e-06 0)
(0.12542038 1.9868552e-06 0)
(0.12395485 1.8359149e-06 0)
(0.12258242 1.7026047e-06 0)
(0.12129248 1.5840126e-06 0)
(0.1200761 1.4778646e-06 0)
(0.11892571 1.3824191e-06 0)
(0.11783464 1.2962662e-06 0)
(0.11679717 1.2181568e-06 -6.2131196e-33)
(0.1158083 1.1471065e-06 0)
(0.11486357 1.082193e-06 0)
(0.11395923 1.0226513e-06 0)
(0.11309185 9.6797911e-07 0)
(0.11225831 9.1756855e-07 0)
(0.11145599 8.7091134e-07 0)
(0.11068247 8.2773359e-07 0)
(0.10993545 7.8766266e-07 0)
(0.10921299 7.5030668e-07 0)
(0.10851337 7.1546404e-07 0)
(0.10783489 6.8296563e-07 0)
(0.10717601 6.5251605e-07 0)
(0.10653546 6.2389157e-07 0)
(0.10591203 5.9702585e-07 0)
(0.10530449 5.7179543e-07 0)
(0.10471175 5.479817e-07 0)
(0.10413294 5.254471e-07 0)
(0.10356717 5.0416873e-07 0)
(0.10301355 4.8407877e-07 0)
(0.10247124 4.6501185e-07 0)
(0.10193962 4.4686364e-07 0)
(0.10141805 4.296306e-07 0)
(0.10090583 4.1327582e-07 0)
(0.10040234 3.9769996e-07 0)
(0.099907045 3.828142e-07 0)
(0.09941948 3.6858819e-07 0)
(0.098939147 3.5501805e-07 0)
(0.098465524 3.4206822e-07 0)
(0.097998144 3.2965278e-07 0)
(0.09753666 3.1772172e-07 0)
(0.097080698 3.0628454e-07 0)
(0.096629838 2.9533053e-07 0)
(0.096183682 2.8481505e-07 0)
(0.09574189 2.7468432e-07 0)
(0.09530418 2.6491688e-07 0)
(0.09487024 2.5552135e-07 0)
(0.094439718 2.4649088e-07 0)
(0.094012274 2.3778181e-07 0)
(0.093587654 2.2935688e-07 0)
(0.093165609 2.2121561e-07 0)
(0.092745852 2.133635e-07 0)
(0.092328066 2.0579146e-07 0)
(0.091911952 1.984611e-07 0)
(0.091497298 1.9134775e-07 0)
(0.091083867 1.8446229e-07 0)
(0.090671365 1.7780744e-07 0)
(0.090259495 1.7136671e-07 0)
(0.089847988 1.651132e-07 0)
(0.089436626 1.5903469e-07 0)
(0.089025161 1.5314228e-07 0)
(0.088613275 1.4743941e-07 0)
(0.088200648 1.4190019e-07 0)
(0.087787047 1.3650494e-07 0)
(0.087372219 1.3126304e-07 0)
(0.086955829 1.2618071e-07 0)
(0.086537525 1.2124504e-07 0)
(0.086116989 1.1643722e-07 0)
(0.085693936 1.1175434e-07 0)
(0.085268012 1.0720501e-07 0)
(0.084838801 1.0278362e-07 0)
(0.084405913 9.8472612e-08 0)
(0.083968999 9.4269112e-08 0)
(0.083527619 9.0182201e-08 0)
(0.083081253 8.6204753e-08 0)
(0.08262943 8.2322515e-08 0)
(0.082171672 7.8537141e-08 0)
(0.081707383 7.4856344e-08 0)
(0.081235869 7.1260153e-08 0)
(0.08075665 6.7771315e-08 0)
(0.080279499 6.4474066e-08 0)
(0.079819504 6.1410864e-08 0)
(0.079381045 5.8578896e-08 0)
(0.078962475 5.5967192e-08 0)
(0.07856222 5.3560722e-08 0)
(0.078178852 5.1334805e-08 0)
(0.077811158 4.9266987e-08 0)
(0.077458038 4.7347322e-08 0)
(0.077118426 4.5567181e-08 0)
(0.076791348 4.3908678e-08 0)
(0.076475997 4.2356184e-08 0)
(0.07617163 4.0904168e-08 0)
(0.075877521 3.9549168e-08 0)
(0.075592978 3.828857e-08 0)
(0.075317312 3.7110725e-08 0)
(0.075050001 3.6025161e-08 0)
(0.074790218 3.5002238e-08 0)
(0.074537876 3.4185533e-08 0)
(0.074290052 3.3285373e-08 0)
(0.07405089 3.3362794e-08 0)
(0.073801976 3.1791471e-08 0)
(0.073585966 3.9344213e-08 0)
(0.073225652 2.4692653e-08 -2.7235481e-23)
(1 3.2121935e-09 0)
(0.9999832 1.0790789e-08 0)
(0.99994819 1.8063655e-08 0)
(0.99990546 2.3899386e-08 0)
(0.99985724 3.038297e-08 0)
(0.99980344 3.8222989e-08 0)
(0.99974398 4.7639565e-08 0)
(0.99967882 5.898354e-08 0)
(0.99960768 7.2814685e-08 0)
(0.99953006 8.9846009e-08 0)
(0.99944523 1.1096524e-07 0)
(0.99935222 1.3734756e-07 0)
(0.99924974 1.7059259e-07 0)
(0.99913604 2.1306283e-07 0)
(0.99900861 2.6794904e-07 0)
(0.99886414 3.4133632e-07 0)
(0.9986966 4.3892121e-07 0)
(0.99850038 5.8660077e-07 0)
(0.99825315 7.7547212e-07 0)
(0.99795937 1.1950904e-06 0)
(0.9974806 1.5867551e-06 0)
(0.99698602 4.6121481e-06 0)
(0.99481248 3.6867748e-06 0)
(0.99486773 0.0014567521 0)
(0.35273561 0.001603949 0)
(0.20713607 0.00016608656 0)
(0.18547794 2.5492631e-05 0)
(0.17828927 1.0214843e-05 -1.1554257e-20)
(0.17373478 7.2160315e-06 6.612688e-21)
(0.16994495 6.1092297e-06 0)
(0.1666165 5.3514497e-06 0)
(0.16365325 4.7407013e-06 0)
(0.16098848 4.2425405e-06 0)
(0.1585659 3.8340901e-06 0)
(0.15634368 3.4915693e-06 0)
(0.15429154 3.198069e-06 0)
(0.15238636 2.943066e-06 0)
(0.15060943 2.7195475e-06 0)
(0.14894527 2.5221296e-06 0)
(0.14738103 2.3465024e-06 0)
(0.14590592 2.1893007e-06 0)
(0.14451074 2.0479461e-06 0)
(0.14318745 1.9203503e-06 0)
(0.14192909 1.8046656e-06 6.6697493e-33)
(0.14072961 1.6994323e-06 0)
(0.13958364 1.6032872e-06 0)
(0.13848661 1.5150976e-06 0)
(0.13743437 1.4341164e-06 0)
(0.13642314 1.3594477e-06 0)
(0.13544975 1.2903387e-06 0)
(0.13451126 1.2263801e-06 0)
(0.1336049 1.1670229e-06 0)
(0.13272832 1.1116884e-06 0)
(0.13187941 1.0600751e-06 0)
(0.13105613 1.0119322e-06 0)
(0.13025661 9.6682542e-07 0)
(0.12947931 9.2442276e-07 0)
(0.12872276 8.8462311e-07 0)
(0.12798547 8.4724493e-07 0)
(0.12726613 8.1196679e-07 0)
(0.12656367 7.785838e-07 0)
(0.12587703 7.4705996e-07 0)
(0.12520511 7.1729575e-07 0)
(0.12454691 6.8904836e-07 0)
(0.12390167 6.6216241e-07 0)
(0.12326861 6.3663083e-07 0)
(0.12264688 6.1239962e-07 0)
(0.12203574 5.8932288e-07 0)
(0.12143453 5.6726911e-07 0)
(0.1208427 5.4619232e-07 0)
(0.12025963 5.2608633e-07 0)
(0.1196847 5.0689911e-07 0)
(0.11911733 4.8850435e-07 0)
(0.11855711 4.708274e-07 0)
(0.11800358 4.5388136e-07 0)
(0.11745624 4.3765078e-07 0)
(0.1169146 4.220701e-07 0)
(0.11637825 4.0705986e-07 0)
(0.11584684 3.9258776e-07 0)
(0.11532 3.7866617e-07 0)
(0.11479731 3.6528519e-07 0)
(0.11427834 3.5238073e-07 0)
(0.11376279 3.398975e-07 0)
(0.11325036 3.2783426e-07 0)
(0.1127407 3.1619913e-07 0)
(0.11223343 3.0497887e-07 0)
(0.11172818 2.9411701e-07 0)
(0.11122469 2.8357677e-07 0)
(0.11072268 2.7337387e-07 0)
(0.11022179 2.6351247e-07 0)
(0.10972166 2.5396838e-07 0)
(0.10922196 2.4470188e-07 0)
(0.10872243 2.3569466e-07 0)
(0.10822277 2.2696294e-07 0)
(0.10772259 2.1851191e-07 0)
(0.10722151 2.1030358e-07 0)
(0.10671923 2.0230865e-07 0)
(0.10621546 1.9454075e-07 0)
(0.10570978 1.8700916e-07 0)
(0.10520177 1.7969495e-07 0)
(0.10469104 1.7257027e-07 0)
(0.10417725 1.6563065e-07 0)
(0.10365996 1.5888878e-07 0)
(0.10313867 1.5233651e-07 0)
(0.10261291 1.4594787e-07 0)
(0.10208225 1.397185e-07 0)
(0.10154616 1.3366177e-07 0)
(0.10100401 1.2776727e-07 0)
(0.10045522 1.220139e-07 0)
(0.099899208 1.1640399e-07 0)
(0.099335259 1.1094898e-07 0)
(0.098762526 1.0561938e-07 0)
(0.098180424 1.0044892e-07 0)
(0.097600824 9.5562285e-08 0)
(0.097042056 9.1022442e-08 0)
(0.096509441 8.6825312e-08 0)
(0.096000979 8.2954613e-08 0)
(0.095514759 7.9388034e-08 0)
(0.095049047 7.6089063e-08 0)
(0.094602371 7.3024403e-08 0)
(0.094173394 7.0179271e-08 0)
(0.093760823 6.7540893e-08 0)
(0.093363475 6.5082813e-08 0)
(0.092980369 6.2781855e-08 0)
(0.092610604 6.062978e-08 0)
(0.092253299 5.8621459e-08 0)
(0.091907611 5.6753027e-08 0)
(0.091572707 5.5007251e-08 0)
(0.09124795 5.3398185e-08 0)
(0.09093234 5.1881947e-08 0)
(0.090625766 5.0670894e-08 0)
(0.090324692 4.933658e-08 0)
(0.090034128 4.9448645e-08 0)
(0.089731779 4.7117413e-08 -4.2052892e-23)
(0.089469336 5.8326481e-08 0)
(0.08903156 3.6589951e-08 0)
(1 3.8324928e-09 0)
(0.99998319 1.2878191e-08 0)
(0.99994813 2.1563563e-08 0)
(0.9999053 2.8534526e-08 0)
(0.99985697 3.6277569e-08 0)
(0.99980304 4.5638836e-08 0)
(0.99974344 5.6881578e-08 0)
(0.99967813 7.042458e-08 0)
(0.99960683 8.6935735e-08 0)
(0.99952904 1.0726576e-07 0)
(0.99944403 1.324738e-07 0)
(0.99935084 1.6396193e-07 0)
(0.99924816 2.036385e-07 0)
(0.99913426 2.5432188e-07 0)
(0.99900662 3.1981839e-07 0)
(0.99886194 4.0738719e-07 0)
(0.99869416 5.2382283e-07 0)
(0.99849771 7.0001874e-07 0)
(0.99825021 9.2534842e-07 0)
(0.99795615 1.4259368e-06 0)
(0.99747703 1.8931244e-06 0)
(0.99698219 5.5016913e-06 0)
(0.99480831 4.3989732e-06 0)
(0.99486293 0.0016698933 -1.3409591e-54)
(0.4074742 0.0018710119 1.0645465e-53)
(0.24628137 0.00022740175 -5.9517757e-19)
(0.22067409 3.6226507e-05 0)
(0.21210932 1.4549883e-05 -1.3490997e-20)
(0.20670401 1.0264923e-05 0)
(0.20221275 8.6855352e-06 0)