/*--------------------------------*- C++ -*----------------------------------*\
  =========                 |
  \\      /  F ield         | OpenFOAM: The Open Source CFD Toolbox
   \\    /   O peration     | Website:  https://openfoam.org
    \\  /    A nd           | Version:  12
     \\/     M anipulation  |
\*---------------------------------------------------------------------------*/
FoamFile
{
    format      ascii;
    class       volScalarField;
    location    "1100";
    object      yPlus;
}
// * * * * * * * * * * * * * * * * * * * * * * * * * * * * * * * * * * * * * //

dimensions      [];

internalField   uniform 0;

boundaryField
{
    inlet
    {
        type            calculated;
        value           uniform 0;
    }
    top
    {
        type            calculated;
        value           uniform 0;
    }
    outlet
    {
        type            calculated;
        value           uniform 0;
    }
    slipsurface
    {
        type            calculated;
        value           uniform 0;
    }
    bottom
    {
        type            calculated;
        value           nonuniform List<scalar> 
100
(
116.32487
115.1501
113.84576
112.43931
110.95415
109.41079
107.81686
106.17464
104.48829
102.77058
101.04136
99.329673
97.675342
96.126595
94.728909
93.509428
92.470576
91.592159
90.851563
90.217319
89.665416
89.174403
88.725264
88.299984
87.890185
87.492693
87.105502
86.72842
86.361976
86.007165
85.664413
85.332802
85.010488
84.690779
84.369202
84.045216
83.720747
83.399592
83.085643
82.781641
82.488777
82.20711
81.936068
81.674453
81.421075
81.170705
80.914969
80.639722
80.322165
79.941084
79.518652
79.106224
78.733165
78.405514
78.113126
77.844403
77.5902
77.342646
77.103042
76.869884
76.642215
76.418824
76.198605
75.980802
75.764811
75.550152
75.336625
75.124127
74.912484
74.701478
74.490907
74.280585
74.07035
73.860053
73.649537
73.438658
73.227269
73.015218
72.802377
72.588609
72.373803
72.157926
71.941086
71.724944
71.526015
71.469087
72.634274
73.226975
73.583295
73.717322
73.73628
73.691137
73.609991
73.506806
73.390121
73.263143
73.133218
72.98822
72.863987
72.616408
)
;
    }
    frontandback
    {
        type            empty;
    }
}


// ************************************************************************* //
