#      distance             U_x             U_y             U_z wallShearStr... wallShearStr... wallShearStr...               p           omega               k             nut
  5.5511169e-17      0.99945301   3.5119347e-22               0               0               0               0    0.0045419159       82.608593   1.4478235e-05   1.7503879e-07
   0.0021021021      0.99943685   3.5119347e-22               0               0               0               0     0.004557659       81.764413   1.4318659e-05   1.7489773e-07
   0.0042042042       0.9994207   3.5119347e-22               0               0               0               0    0.0045734021       80.920233   1.4159082e-05   1.7475668e-07
   0.0063063063      0.99940455   3.5119347e-22               0               0               0               0    0.0045891452       80.076053   1.3999505e-05   1.7461562e-07
   0.0084084084      0.99938839   3.5119347e-22               0               0               0               0    0.0046048884       79.231872   1.3839928e-05   1.7447457e-07
    0.010510511      0.99937224   3.5119347e-22               0               0               0               0    0.0046206315       78.387692   1.3680351e-05   1.7433351e-07
    0.012612613      0.99935608   3.5119347e-22               0               0               0               0    0.0046363746       77.543512   1.3520774e-05   1.7419246e-07
    0.014714715      0.99933993   3.5119347e-22               0               0               0               0    0.0046521177       76.699332   1.3361197e-05    1.740514e-07
    0.016816817      0.99932378   3.5119347e-22               0               0               0               0    0.0046678609       75.855152    1.320162e-05   1.7391035e-07
    0.018918919      0.99930762   3.5119347e-22               0               0               0               0     0.004683604       75.010972   1.3042043e-05   1.7376929e-07
    0.021021021      0.99929147   3.5119347e-22               0               0               0               0    0.0046993471       74.166791   1.2882466e-05   1.7362824e-07
    0.023123123      0.99926467    5.725078e-22               0               0               0               0    0.0047258385       73.498536   1.2757361e-05   1.7349591e-07
    0.025225225      0.99923751    5.725078e-22               0               0               0               0    0.0047526813       72.836033   1.2633382e-05   1.7336387e-07
    0.027327327      0.99921036    5.725078e-22               0               0               0               0    0.0047795241       72.173531   1.2509403e-05   1.7323184e-07
    0.029429429      0.99918321    5.725078e-22               0               0               0               0    0.0048063669       71.511028   1.2385424e-05    1.730998e-07
    0.031531532      0.99915606    5.725078e-22               0               0               0               0    0.0048332097       70.848525   1.2261445e-05   1.7296776e-07
    0.033633634      0.99912891    5.725078e-22               0               0               0               0    0.0048600525       70.186022   1.2137467e-05   1.7283572e-07
    0.035735736      0.99910176    5.725078e-22               0               0               0               0    0.0048868953        69.52352   1.2013488e-05   1.7270368e-07
    0.037837838      0.99907461    5.725078e-22               0               0               0               0    0.0049137381       68.861017   1.1889509e-05   1.7257164e-07
     0.03993994      0.99904746    5.725078e-22               0               0               0               0    0.0049405809       68.198514    1.176553e-05    1.724396e-07
    0.042042042      0.99902031    5.725078e-22               0               0               0               0    0.0049674237       67.536011   1.1641552e-05   1.7230756e-07
    0.044144144      0.99899316    5.725078e-22               0               0               0               0    0.0049942665       66.873508   1.1517573e-05   1.7217552e-07
    0.046246246      0.99896601    5.725078e-22               0               0               0               0    0.0050211093       66.211006   1.1393594e-05   1.7204348e-07
    0.048348348      0.99892498   1.0257351e-21               0               0               0               0    0.0050604519       65.614945   1.1282532e-05   1.7191558e-07
     0.05045045      0.99887712   1.0257351e-21               0               0               0               0    0.0051059317       65.051506   1.1177811e-05    1.717897e-07
    0.052552553      0.99882927   1.0257351e-21               0               0               0               0    0.0051514115       64.488067    1.107309e-05   1.7166383e-07
    0.054654655      0.99878142   1.0257351e-21               0               0               0               0    0.0051968913       63.924628   1.0968369e-05   1.7153795e-07
    0.056756757      0.99873356   1.0257351e-21               0               0               0               0    0.0052423711       63.361189   1.0863648e-05   1.7141208e-07
    0.058858859      0.99868571   1.0257351e-21               0               0               0               0    0.0052878509        62.79775   1.0758927e-05   1.7128621e-07
    0.060960961      0.99863786   1.0257351e-21               0               0               0               0    0.0053333307       62.234311   1.0654206e-05   1.7116033e-07
    0.063063063      0.99859001   1.0257351e-21               0               0               0               0    0.0053788105       61.670872   1.0549485e-05   1.7103446e-07
    0.065165165      0.99854215   1.0257351e-21               0               0               0               0    0.0054242903       61.107433   1.0444764e-05   1.7090858e-07
    0.067267267      0.99846863   1.5321775e-21               0               0               0               0    0.0054990142       60.594403   1.0349791e-05   1.7078635e-07
    0.069369369      0.99839075   1.5321775e-21               0               0               0               0    0.0055787024        60.08993   1.0256473e-05   1.7066474e-07
    0.071471471      0.99831287   1.5321775e-21               0               0               0               0    0.0056583906       59.585457   1.0163155e-05   1.7054313e-07
    0.073573574      0.99823499   1.5321775e-21               0               0               0               0    0.0057380789       59.080983   1.0069837e-05   1.7042152e-07
    0.075675676      0.99815711   1.5321775e-21               0               0               0               0    0.0058177671        58.57651   9.9765191e-06   1.7029991e-07
    0.077777778      0.99807922   1.5321775e-21               0               0               0               0    0.0058974553       58.072037   9.8832012e-06    1.701783e-07
     0.07987988      0.99794619   3.7884305e-21               0               0               0               0    0.0060138547       57.587424   9.7937113e-06   1.7005829e-07
    0.081981982      0.99776523   3.7884305e-21               0               0               0               0    0.0061621526       57.120066   9.7075477e-06   1.6993967e-07
    0.084084084      0.99758427   3.7884305e-21               0               0               0               0    0.0063104505       56.652709   9.6213841e-06   1.6982104e-07
    0.086186186      0.99740332   3.7884305e-21               0               0               0               0    0.0064587485       56.185352   9.5352204e-06   1.6970242e-07
    0.088288288      0.99722195    7.721593e-21               0               0               0               0    0.0066078753        55.71811   9.4490787e-06    1.695838e-07
     0.09039039      0.99695239    7.721593e-21               0               0               0               0    0.0069369736       55.275838   9.3676883e-06   1.6946667e-07
    0.092492492      0.99668283    7.721593e-21               0               0               0               0     0.007266072       54.833566   9.2862979e-06   1.6934954e-07
    0.094594595      0.99641326    7.721593e-21               0               0               0               0    0.0075951703       54.391294   9.2049075e-06   1.6923241e-07
    0.096696697      0.83436274   8.9810914e-20               0  -0.00054356896  -5.7656452e-07               0    0.0079619824       61.565252   9.1590715e-06   3.3089883e-07
    0.098798799      0.62032581   8.9810914e-20               0   -0.0012618074  -1.3384013e-06               0    0.0083409133       71.186597   9.1246603e-06    5.445525e-07
      0.1009009      0.35479566   8.4431383e-20               0   -0.0021425916  -2.7120964e-06               0    0.0084649191       83.294364    9.168311e-06   8.0791072e-07
       0.103003     0.020607864   8.4431383e-20               0   -0.0032401034  -4.9016027e-06               0    0.0082490248       98.717361    9.316044e-06   1.1375417e-06
     0.10510511   1.0765686e-16   1.5614884e-19               0   -0.0032618923  -6.4484826e-06               0    0.0075727582       99.668428   9.6931344e-06   1.1498614e-06
     0.10720721   1.0618773e-16   1.9599374e-19               0   -0.0032125965  -7.7376031e-06               0    0.0069412184       99.668428   1.0333781e-05   1.1412152e-06
     0.10930931   1.0618773e-16   1.9599374e-19               0   -0.0031627212  -8.7065316e-06               0    0.0064210727       99.668428   1.1343581e-05   1.1324014e-06
     0.11141141   1.0462173e-16   2.3138016e-19               0   -0.0031134438  -9.6737521e-06               0    0.0061113433       191.92494    0.0004525428   1.1235926e-06
     0.11351351    1.030706e-16   2.7620275e-19               0   -0.0030648653  -1.0612028e-05               0    0.0058642304       314.57607     0.001084874   1.1148653e-06
     0.11561562    1.030706e-16   2.7620275e-19               0   -0.0030187461  -1.1426308e-05               0       0.0056872       480.71789    0.0021248429   1.1064867e-06
     0.11771772    1.015745e-16   3.0393129e-19               0   -0.0029743958   -1.198031e-05               0    0.0055315176        608.8316    0.0031038807   1.0983743e-06
     0.11981982    1.015745e-16   3.0393129e-19               0   -0.0029317774  -1.2279459e-05               0     0.005396738          699.71    0.0040232577   1.0905224e-06
     0.12192192   1.0013603e-16   3.0712727e-19               0   -0.0028917213  -1.2272493e-05               0    0.0052801207       764.59539    0.0047768101   1.0830625e-06
     0.12402402   1.0013603e-16   3.0712727e-19               0   -0.0028524236  -1.2174918e-05               0    0.0051688795       821.78693    0.0054812788   1.0757186e-06
     0.12612613   9.8753797e-17   2.9986622e-19               0   -0.0028160256  -1.1922959e-05               0    0.0050731559       857.84018     0.005975155   1.0688251e-06
     0.12822823   9.7417499e-17   2.8774029e-19               0   -0.0027800285  -1.1656754e-05               0    0.0049801402       891.53317    0.0064406242   1.0619938e-06
     0.13033033   9.7417499e-17   2.8774029e-19               0   -0.0027461661  -1.1319484e-05               0    0.0049019228       913.03796    0.0067553129   1.0554942e-06
     0.13243243   9.6116588e-17   2.7095026e-19               0    -0.002712778  -1.0969225e-05               0    0.0048271581       932.25804    0.0070382034   1.0490661e-06
     0.13453453   9.6116588e-17   2.7095026e-19               0    -0.002680856  -1.0578821e-05               0    0.0047630644       944.41681    0.0072228159   1.0428589e-06
     0.13663664   9.4828759e-17   2.5145447e-19               0   -0.0026493539   -1.018992e-05               0    0.0047006823       954.82856     0.007381445   1.0367111e-06
     0.13873874   9.4828759e-17   2.5145447e-19               0   -0.0026188913  -9.8047368e-06               0     0.004642537       960.91558    0.0074757526   1.0307104e-06
     0.14084084   9.3544199e-17   2.3316581e-19               0   -0.0025887658  -9.4301557e-06               0    0.0045843691       965.93099    0.0075535425   1.0247555e-06
     0.14294294   9.3544199e-17   2.3316581e-19               0   -0.0025595476  -9.0841105e-06               0    0.0045261404       968.06206    0.0075868733   1.0189241e-06
     0.14504505    9.225931e-17   2.1612852e-19               0   -0.0025305529  -8.7446605e-06               0     0.004467921       969.70069    0.0076124992   1.0131229e-06
     0.14714715    9.225931e-17   2.1612852e-19               0   -0.0025024982  -8.4329514e-06               0    0.0044097411       969.26804    0.0076057165   1.0074491e-06
     0.14924925    9.097462e-17   2.0012649e-19               0   -0.0024745005   -8.122655e-06               0    0.0043516334       968.75464    0.0075976718   1.0017831e-06
     0.15135135    9.097462e-17   2.0012649e-19               0   -0.0024475993  -7.8395435e-06               0    0.0042949161       966.68742     0.007565344   9.9626897e-07
     0.15345345    9.097462e-17   2.0012649e-19               0   -0.0024206981  -7.5564319e-06               0    0.0042381989        964.6202    0.0075330161   9.9075487e-07
     0.15555556   8.9692731e-17   1.8500792e-19               0    -0.002394791  -7.2927773e-06               0    0.0041833076       961.70505    0.0074876599   9.8538402e-07
     0.15765766   8.9692731e-17   1.8500792e-19               0   -0.0023690719  -7.0328039e-06               0    0.0041287618       958.62947    0.0074398388   9.8004028e-07
     0.15975976   8.8418327e-17   1.7052075e-19               0   -0.0023440617  -6.7802773e-06               0    0.0040757871       955.22429    0.0073871474   9.7480441e-07
     0.16186186   8.8418327e-17   1.7052075e-19               0   -0.0023195982  -6.5334946e-06               0    0.0040240242       951.56487    0.0073306994   9.6965176e-07
     0.16396396    8.715952e-17   1.5589322e-19               0   -0.0022954461  -6.2887482e-06               0    0.0039732982       947.84388     0.007273426   9.6455012e-07
     0.16606607    8.715952e-17   1.5589322e-19               0   -0.0022724094   -6.051295e-06               0    0.0039262861       943.90239    0.0072131961   9.5963123e-07
     0.16816817    8.715952e-17   1.5589322e-19               0   -0.0022493728  -5.8138419e-06               0    0.0038792741        939.9609    0.0071529662   9.5471234e-07
     0.17027027   8.5932998e-17    1.413841e-19               0   -0.0022274418  -5.5935973e-06               0    0.0038365714       936.00242    0.0070929667   9.4997864e-07
     0.17237237   8.5932998e-17    1.413841e-19               0   -0.0022057874  -5.3776576e-06               0    0.0037949468        932.0397    0.0070330248   9.4529127e-07
     0.17447447   8.4725512e-17   1.2841063e-19               0   -0.0021845497  -5.1687441e-06               0    0.0037538768       928.11353    0.0069738245   9.4067587e-07
     0.17657658   8.4725512e-17   1.2841063e-19               0   -0.0021642513   -4.975674e-06               0    0.0037140576       924.26981    0.0069162965   9.3622275e-07
     0.17867868   8.4725512e-17   1.2841063e-19               0    -0.002143953  -4.7826039e-06               0    0.0036742383       920.42609    0.0068587684   9.3176963e-07
     0.18078078   8.3556423e-17   1.1612592e-19               0   -0.0021247595   -4.600137e-06               0    0.0036343093       916.69484    0.0068033557   9.2751844e-07
     0.18288288   8.3556423e-17   1.1612592e-19               0   -0.0021059584   -4.421435e-06               0    0.0035943414       913.00352    0.0067486939   9.2333894e-07
     0.18498498   8.2432943e-17   1.0433506e-19               0   -0.0020872929  -4.2439201e-06               0    0.0035545955       909.32819    0.0066943182   9.1918513e-07
     0.18708709   8.2432943e-17   1.0433506e-19               0   -0.0020700023  -4.0784391e-06               0    0.0035171014       905.81483    0.0066428421   9.1529161e-07
     0.18918919   8.2432943e-17   1.0433506e-19               0   -0.0020527118   -3.912958e-06               0    0.0034796072       902.30147    0.0065913659    9.113981e-07
     0.19129129   8.1361183e-17   9.3059473e-20               0   -0.0020359646  -3.7521804e-06               0    0.0034438272       898.86194     0.006541153   9.0761092e-07
     0.19339339   8.1361183e-17   9.3059473e-20               0   -0.0020201825  -3.5997554e-06               0     0.003411091       895.55351    0.0064931836   9.0401258e-07
      0.1954955   8.1361183e-17   9.3059473e-20               0   -0.0020044004  -3.4473303e-06               0    0.0033783548       892.24508    0.0064452141   9.0041423e-07
      0.1975976   8.0347371e-17   8.2360149e-20               0   -0.0019894357  -3.3021743e-06               0     0.003348284       889.07197    0.0063994522   8.9698092e-07
      0.1996997   8.0347371e-17   8.2360149e-20               0   -0.0019751486  -3.1630417e-06               0     0.003320422         886.011    0.0063555195   8.9368436e-07
      0.2018018   8.0347371e-17   8.2360149e-20               0   -0.0019608614  -3.0239091e-06               0    0.0032925599       882.95002    0.0063115868    8.903878e-07
      0.2039039    7.939686e-17   7.2334361e-20               0   -0.0019475234   -2.892991e-06               0    0.0032678429       880.06874    0.0062704831   8.8728849e-07
     0.20600601    7.939686e-17   7.2334361e-20               0   -0.0019347032  -2.7665544e-06               0    0.0032448417        877.2855    0.0062309227    8.842968e-07
     0.20810811    7.939686e-17   7.2334361e-20               0   -0.0019218831  -2.6401178e-06               0    0.0032218405       874.50225    0.0061913624    8.813051e-07
     0.21021021   7.8514397e-17   6.2902712e-20               0   -0.0019100047  -2.5214186e-06               0    0.0032015857        871.9117    0.0061547528   8.7851449e-07
     0.21231231   7.8514397e-17   6.2902712e-20               0   -0.0018986155  -2.4067391e-06               0    0.0031827578       869.42127    0.0061196762   8.7582835e-07
     0.21441441   7.8514397e-17   6.2902712e-20               0   -0.0018872263  -2.2920597e-06               0    0.0031639298       866.93084    0.0060845996   8.7314222e-07
     0.21651652   7.7704405e-17    5.408237e-20               0   -0.0018766294   -2.184517e-06               0     0.003146242       864.61083    0.0060520733   8.7062941e-07
     0.21861862   7.7704405e-17    5.408237e-20               0   -0.0018666125  -2.0821988e-06               0    0.0031293888       862.41558    0.0060214141   8.6824349e-07
     0.22072072   7.7704405e-17    5.408237e-20               0   -0.0018565956  -1.9798807e-06               0    0.0031125356       860.22032    0.0059907548   8.6585757e-07
     0.22282282   7.6968198e-17   4.6057481e-20               0   -0.0018470926  -1.8826589e-06               0     0.003096238       858.13995    0.0059617822   8.6358644e-07
     0.22492492   7.6968198e-17   4.6057481e-20               0   -0.0018383542    -1.79302e-06               0     0.003080767       856.23052    0.0059353191   8.6148609e-07
     0.22702703   7.6968198e-17   4.6057481e-20               0   -0.0018296158   -1.703381e-06               0     0.003065296       854.32109    0.0059088561   8.5938574e-07
     0.22912913   7.6304186e-17   3.8808382e-20               0   -0.0018210279  -1.6152736e-06               0    0.0030501474       852.44611    0.0058828906    8.573196e-07
     0.23123123   7.6304186e-17   3.8808382e-20               0   -0.0018134556  -1.5375073e-06               0    0.0030371755       850.80371    0.0058602853   8.5548441e-07
     0.23333333   7.6304186e-17   3.8808382e-20               0   -0.0018058833  -1.4597409e-06               0    0.0030242036        849.1613      0.00583768   8.5364923e-07
     0.23543544   7.6304186e-17   3.8808382e-20               0    -0.001798311  -1.3819746e-06               0    0.0030112317        847.5189    0.0058150746   8.5181405e-07
     0.23753754   7.5709408e-17   3.2326881e-20               0    -0.001791531  -1.3129671e-06               0     0.003000236       846.05943    0.0057950764   8.5016193e-07
     0.23963964   7.5709408e-17   3.2326881e-20               0   -0.0017850075  -1.2467945e-06               0    0.0029898798       844.65917    0.0057759219   8.4856906e-07
     0.24174174   7.5709408e-17   3.2326881e-20               0    -0.001778484  -1.1806219e-06               0    0.0029795236        843.2589    0.0057567675   8.4697619e-07
     0.24384384   7.5179846e-17   2.6718132e-20               0    -0.001772219  -1.1175784e-06               0    0.0029697298       841.91817    0.0057384518    8.454439e-07
     0.24594595   7.5179846e-17   2.6718132e-20               0   -0.0017666244  -1.0626478e-06               0    0.0029613941       840.73179    0.0057223109   8.4406865e-07
     0.24804805   7.5179846e-17   2.6718132e-20               0   -0.0017610298  -1.0077173e-06               0    0.0029530584        839.5454    0.0057061701   8.4269341e-07
     0.25015015   7.5179846e-17   2.6718132e-20               0   -0.0017554352  -9.5278675e-07               0    0.0029447227       838.35902    0.0056900292   8.4131817e-07
     0.25225225   7.4710302e-17   2.1966835e-20               0   -0.0017504038  -9.0467395e-07               0    0.0029376524       837.30097    0.0056756792   8.4007648e-07
     0.25435435   7.4710302e-17   2.1966835e-20               0   -0.0017456204  -8.5956217e-07               0    0.0029311392       836.29941    0.0056621176   8.3889358e-07
     0.25645646   7.4710302e-17   2.1966835e-20               0   -0.0017408369   -8.144504e-07               0    0.0029246259       835.29785     0.005648556   8.3771068e-07
     0.25855856   7.4295214e-17   1.7942405e-20               0   -0.0017360537  -7.6934082e-07               0    0.0029181131       834.29634     0.005634995   8.3652782e-07
     0.26066066   7.4295214e-17   1.7942405e-20               0   -0.0017319783   -7.322572e-07               0    0.0029132646         833.453     0.005623623   8.3551464e-07
     0.26276276   7.4295214e-17   1.7942405e-20               0   -0.0017279028  -6.9517358e-07               0    0.0029084162       832.60966    0.0056122511   8.3450146e-07
     0.26486486   7.4295214e-17   1.7942405e-20               0   -0.0017238274  -6.5808996e-07               0    0.0029035677       831.76632    0.0056008792   8.3348827e-07
     0.26696697   7.3930211e-17   1.4523102e-20               0    -0.001719871   -6.223425e-07               0    0.0028987972       830.94915    0.0055898668    8.325039e-07
     0.26906907   7.3930211e-17   1.4523102e-20               0   -0.0017164133  -5.9219285e-07               0    0.0028943536       830.24162    0.0055803606   8.3164023e-07
     0.27117117   7.3930211e-17   1.4523102e-20               0   -0.0017129556   -5.620432e-07               0    0.0028899099        829.5341    0.0055708544   8.3077656e-07
     0.27327327   7.3930211e-17   1.4523102e-20               0   -0.0017094979  -5.3189356e-07               0    0.0028854663       828.82657    0.0055613482   8.2991289e-07
     0.27537538   7.3610507e-17    1.170007e-20               0   -0.0017061812  -5.0337923e-07               0    0.0028808323       828.14979    0.0055522619   8.2908361e-07
     0.27747748   7.3610507e-17    1.170007e-20               0   -0.0017032491  -4.7932825e-07               0    0.0028756785       827.55697    0.0055443218   8.2834819e-07
     0.27957958   7.3610507e-17    1.170007e-20               0   -0.0017003171  -4.5527727e-07               0    0.0028705248       826.96415    0.0055363816   8.2761276e-07
     0.28168168   7.3610507e-17    1.170007e-20               0    -0.001697385   -4.312263e-07               0    0.0028653711       826.37132    0.0055284415   8.2687733e-07
     0.28378378     7.33298e-17   9.3800916e-21               0   -0.0016945492    -4.08367e-07               0    0.0028601615       825.79908    0.0055207811   8.2616552e-07
     0.28588589     7.33298e-17   9.3800916e-21               0   -0.0016920484  -3.8965944e-07               0    0.0028547573       825.29855    0.0055140953   8.2553599e-07
     0.28798799     7.33298e-17   9.3800916e-21               0   -0.0016895477  -3.7095188e-07               0    0.0028493531       824.79801    0.0055074095   8.2490645e-07
     0.29009009     7.33298e-17   9.3800916e-21               0    -0.001687047  -3.5224432e-07               0    0.0028439489       824.29747    0.0055007237   8.2427691e-07
     0.29219219   7.3081172e-17   7.5647506e-21               0   -0.0016845646  -3.3380782e-07               0    0.0028385671       823.80067    0.0054940886    8.236519e-07
     0.29429429   7.3081172e-17   7.5647506e-21               0   -0.0016824064  -3.2015587e-07               0    0.0028335805       823.36977    0.0054883468    8.231068e-07
      0.2963964   7.3081172e-17   7.5647506e-21               0   -0.0016802481  -3.0650392e-07               0    0.0028285939       822.93887     0.005482605    8.225617e-07
      0.2984985   7.3081172e-17   7.5647506e-21               0   -0.0016780899  -2.9285196e-07               0    0.0028236073       822.50798    0.0054768632    8.220166e-07
      0.3006006   7.3081172e-17   7.5647506e-21               0   -0.0016759317  -2.7920001e-07               0    0.0028186207       822.07708    0.0054711215    8.214715e-07
      0.3027027   7.2857717e-17   6.2882164e-21               0   -0.0016739729  -2.6887588e-07               0    0.0028140386       821.68372    0.0054658882   8.2097573e-07
      0.3048048   7.2857717e-17   6.2882164e-21               0   -0.0016720785  -2.5962511e-07               0     0.002809587       821.30247     0.005460819   8.2049587e-07
     0.30690691   7.2857717e-17   6.2882164e-21               0   -0.0016701842  -2.5037434e-07               0    0.0028051355       820.92122    0.0054557498     8.20016e-07
     0.30900901   7.2857717e-17   6.2882164e-21               0   -0.0016682898  -2.4112357e-07               0    0.0028006839       820.53997    0.0054506805   8.1953614e-07
     0.31111111    7.265309e-17    5.454617e-21               0   -0.0016664622  -2.3282849e-07               0     0.002796459       820.17001    0.0054457645   8.1907281e-07
     0.31321321    7.265309e-17    5.454617e-21               0   -0.0016647723  -2.2650394e-07               0    0.0027927016       819.82335    0.0054411644   8.1864359e-07
     0.31531532    7.265309e-17    5.454617e-21               0   -0.0016630824  -2.2017939e-07               0    0.0027889442       819.47669    0.0054365643   8.1821437e-07
     0.31741742    7.265309e-17    5.454617e-21               0   -0.0016613924  -2.1385484e-07               0    0.0027851868       819.13002    0.0054319643   8.1778514e-07
     0.31951952    7.265309e-17    5.454617e-21               0   -0.0016597025  -2.0753029e-07               0    0.0027814294       818.78336    0.0054273642   8.1735592e-07
     0.32162162   7.2463275e-17    4.844787e-21               0   -0.0016581375  -2.0269788e-07               0    0.0027776883       818.45505    0.0054230139   8.1695767e-07
     0.32372372   7.2463275e-17    4.844787e-21               0   -0.0016566117  -1.9833414e-07               0    0.0027739524       818.13252     0.005418742   8.1656916e-07
     0.32582583   7.2463275e-17    4.844787e-21               0   -0.0016550859  -1.9397039e-07               0    0.0027702165       817.80998    0.0054144702   8.1618065e-07
     0.32792793   7.2463275e-17    4.844787e-21               0   -0.0016535601  -1.8960664e-07               0    0.0027664806       817.48744    0.0054101984   8.1579214e-07
     0.33003003   7.2285292e-17   4.4632991e-21               0   -0.0016520413   -1.853524e-07               0    0.0027626759        817.1658    0.0054059389   8.1540537e-07
     0.33213213   7.2285292e-17   4.4632991e-21               0    -0.001650643  -1.8297586e-07               0    0.0027576927       816.85957    0.0054018905   8.1504848e-07
     0.33423423   7.2285292e-17   4.4632991e-21               0   -0.0016492447  -1.8059932e-07               0    0.0027527095       816.55333    0.0053978421    8.146916e-07
     0.33633634   7.2285292e-17   4.4632991e-21               0   -0.0016478464  -1.7822278e-07               0    0.0027477262        816.2471    0.0053937936   8.1433472e-07
     0.33843844   7.2285292e-17   4.4632991e-21               0   -0.0016464481  -1.7584624e-07               0     0.002742743       815.94086    0.0053897452   8.1397783e-07
     0.34054054   7.2115216e-17   4.3590909e-21               0   -0.0016450682  -1.7382077e-07               0    0.0027375617       815.63662    0.0053857246   8.1362549e-07
     0.34264264   7.2115216e-17   4.3590909e-21               0   -0.0016437598  -1.7315971e-07               0    0.0027316106       815.34013    0.0053818121   8.1329078e-07
     0.34474474   7.2115216e-17   4.3590909e-21               0   -0.0016424513  -1.7249864e-07               0    0.0027256595       815.04363    0.0053778996   8.1295607e-07
     0.34684685   7.2115216e-17   4.3590909e-21               0   -0.0016411429  -1.7183758e-07               0    0.0027197084       814.74714    0.0053739871   8.1262136e-07
     0.34894895   7.2115216e-17   4.3590909e-21               0   -0.0016398344  -1.7117651e-07               0    0.0027137573       814.45064    0.0053700746   8.1228666e-07
     0.35105105   7.1948997e-17   4.4429035e-21               0    -0.001638538  -1.7074773e-07               0     0.002707841       814.15509     0.005366176   8.1195489e-07
     0.35315315   7.1948997e-17   4.4429035e-21               0   -0.0016372883  -1.7121874e-07               0    0.0027020598       813.86319    0.0053623313   8.1163449e-07