#      distance             U_x             U_y             U_z wallShearStr... wallShearStr... wallShearStr...               p           omega               k             nut
    0.034013023      0.99913727   5.1481356e-06               0               0               0               0    0.0048487445       69.038197   1.1919947e-05   1.7265712e-07
    0.056204344      0.99877683   9.2236704e-06               0               0               0               0    0.0052111821       62.950622   1.0786179e-05   1.7134342e-07
    0.072112662      0.99829355    1.377773e-05               0               0               0               0    0.0056506654       59.102348    1.007326e-05   1.7043753e-07
    0.083516877      0.99779222    3.406653e-05               0               0               0               0    0.0062184711       56.573581   9.6065455e-06    1.698062e-07
     0.09169223      0.99665413   6.9434527e-05               0               0               0               0    0.0069945828       54.867279   9.2924661e-06   1.6936261e-07
    0.097552904       0.9956286   0.00080760257               0  -1.3873114e-06  -1.4715236e-09               0    0.0083556631       53.719978   9.0779161e-06   1.6945825e-07
     0.10156632      0.98098937   0.00075922846               0  -4.1315065e-06  -5.6499933e-09               0    0.0087582271        99.64936   9.1323265e-06   8.2080224e-08
     0.10474707      0.96807785      0.00140413               0  -5.4260693e-06  -1.0274327e-08               0    0.0077125624       99.668428   9.5182988e-06   4.4797654e-08
     0.10802554      0.95486709    0.0017624256               0  -5.2982392e-06  -1.3464364e-08               0     0.006588615       99.668428   1.0337578e-05     3.28918e-08
     0.11140473      0.94078518    0.0020806292               0  -5.1661964e-06  -1.6045938e-08               0    0.0060656716       99.820909   1.3442508e-05   3.0182087e-08
     0.11488774      0.92683703    0.0024836853               0  -5.0353081e-06  -1.8491114e-08               0    0.0057291971       467.18984    0.0017675554   3.1758997e-06
     0.11847776      0.91338376    0.0027330274               0  -4.9096562e-06  -2.0057624e-08               0    0.0054700905        658.5366    0.0035110161   5.3244763e-06
     0.12217807      0.90044863    0.0027617665               0  -4.7901019e-06  -2.0343231e-08               0    0.0052618489       782.34952    0.0049551805    6.325055e-06
     0.12599207      0.88801925    0.0026964733               0  -4.6762971e-06  -1.9809915e-08               0    0.0050725216       862.94597     0.006028661    6.976386e-06
     0.12992323      0.87600291    0.0025874338               0  -4.5674179e-06  -1.8890067e-08               0    0.0049101303       913.95515    0.0067624182   7.3886019e-06
     0.13397518      0.86430479    0.0024364536               0   -4.462266e-06  -1.7725126e-08               0    0.0047755413       944.60218    0.0072235328   7.6362555e-06
     0.13815161      0.85272431    0.0022611425               0  -4.3594754e-06  -1.6446877e-08               0    0.0046592901       961.54256    0.0074849454   7.4785378e-06
     0.14245635      0.84117322    0.0020966862               0  -4.2581149e-06   -1.520559e-08               0    0.0045409914       969.15837    0.0076039817    7.208858e-06
     0.14689334      0.82961917    0.0019434825               0  -4.1578548e-06  -1.4054701e-08               0    0.0044171976       970.40478    0.0076235527   6.8880845e-06
     0.15146665      0.81806691    0.0017995883               0  -4.0586961e-06  -1.2981886e-08               0    0.0042916727       967.30574    0.0075749379   6.5481286e-06
     0.15618046      0.80653984    0.0016636382               0  -3.9608369e-06  -1.1972206e-08               0    0.0041666787       961.27485    0.0074807766   6.2094049e-06
     0.16103908      0.79508007     0.001533366               0  -3.8646477e-06  -1.1000877e-08               0    0.0040433433       953.30427     0.007357234   5.8848105e-06
     0.16604698      0.78376056    0.0014018315               0    -3.77081e-06  -1.0044102e-08               0    0.0039237816       944.10327     0.007215899   5.5827302e-06
     0.17120873      0.77273137    0.0012713618               0  -3.6798105e-06  -9.1211391e-09               0      0.00381596       934.24081    0.0070659255   5.3126448e-06
     0.17652907      0.76187334     0.001154701               0  -3.5917643e-06   -8.263056e-09               0    0.0037162617       924.34802     0.006917073   5.0692836e-06
     0.18201286      0.75136059    0.0010442338               0  -3.5071928e-06  -7.4589233e-09               0    0.0036113447       914.48994    0.0067703189   4.8578739e-06
     0.18766512      0.74125797   0.00093820741               0   -3.426733e-06  -6.6915906e-09               0    0.0035045826       904.79754    0.0066275655   4.6739823e-06
     0.19349103      0.73162044   0.00083681444               0  -3.3507427e-06  -5.9610956e-09               0    0.0034066667        895.3103    0.0064893072   4.5149483e-06
     0.19949593      0.72250398   0.00074060339               0   -3.279535e-06  -5.2706097e-09               0    0.0033203836        886.1818    0.0063576527   4.3800976e-06
     0.20568532      0.71395675   0.00065044896               0  -3.2133739e-06  -4.6223706e-09               0    0.0032450765       877.55777    0.0062345135   4.2689193e-06
     0.21206485      0.70602142   0.00056563717               0  -3.1524752e-06  -4.0157473e-09               0     0.003182885       869.54404     0.006121168   4.1805883e-06
     0.21864039      0.69873776   0.00048632242               0   -3.096978e-06  -3.4531008e-09               0    0.0031290629       862.21303    0.0060183894   4.1144793e-06
     0.22541793      0.69211761   0.00041416058               0  -3.0468625e-06  -2.9401604e-09               0    0.0030758525       855.60245    0.0059264572   4.0695093e-06
     0.23240371      0.68614664   0.00034897484               0  -3.0019425e-06  -2.4791174e-09               0    0.0030277945       849.71406    0.0058451644   4.0441916e-06
      0.2396041      0.68079824   0.00029069153               0  -2.9619313e-06  -2.0705825e-09               0    0.0029883317       844.52111     0.005773938   4.0368226e-06
      0.2470257      0.67603628   0.00024025624               0  -2.9264782e-06  -1.7163674e-09               0    0.0029557732       839.97616    0.0057119579   4.0455253e-06
     0.25467531      0.67181403   0.00019753136               0  -2.8951839e-06  -1.4147877e-09               0    0.0029285815       836.01711    0.0056582401   4.0682558e-06
     0.26255994      0.66808145   0.00016134267               0  -2.8676506e-06  -1.1593936e-09               0     0.002907652       832.57643    0.0056117616   4.1029163e-06
      0.2706868      0.66479925   0.00013059542               0  -2.8435192e-06  -9.4408902e-10               0    0.0028916557       829.59491    0.0055716405   4.1474564e-06
     0.27906334      0.66192439      0.00010521               0  -2.8224216e-06  -7.6521252e-10               0    0.0028727699       827.02291    0.0055371457   4.2020741e-06
     0.28769723       0.6594002   8.4348168e-05               0  -2.8039319e-06  -6.1979001e-10               0    0.0028499621       824.79876    0.0055074021   4.2654217e-06
     0.29659637      0.65716448    6.802416e-05               0  -2.7875871e-06  -5.0640736e-10               0    0.0028277078       822.84897    0.0054813933   4.3354621e-06
     0.30576892      0.65515511    5.654524e-05               0  -2.7729309e-06  -4.2373948e-10               0    0.0028071027       821.09514    0.0054580508   4.4098622e-06
     0.31522326      0.65331505   4.9049302e-05               0  -2.7595685e-06  -3.6578905e-10               0    0.0027882717        819.4714    0.0054364842   4.4863122e-06
     0.32496807      0.65160819   4.3565556e-05               0  -2.7472107e-06  -3.2479706e-10               0    0.0027727906       817.92965    0.0054160459   4.5634234e-06
     0.33501226      0.65000772    4.013512e-05               0  -2.7356271e-06  -2.9819738e-10               0    0.0027531051       816.43573    0.0053962784   4.6401855e-06
     0.34536503      0.64847835   3.9198053e-05               0  -2.7245733e-06  -2.8589225e-10               0    0.0027244495       814.95888    0.0053767724   4.7154853e-06
     0.35603587      0.64698367   3.9951718e-05               0  -2.7138036e-06  -2.8516397e-10               0    0.0026936049       813.47107    0.0053571572   4.7882134e-06
     0.36703454      0.64549611   4.1908629e-05               0  -2.7031182e-06  -2.9226667e-10               0    0.0026648689       811.95053    0.0053371479   4.8574959e-06
     0.37837111      0.64399623   4.4545525e-05               0  -2.6923809e-06  -3.0378638e-10               0    0.0026381344       810.38093    0.0053165323   4.9226205e-06
     0.39005597      0.64247457   4.7288644e-05               0  -2.6815119e-06  -3.1729259e-10               0    0.0026117712         808.754    0.0052952061   4.9830236e-06
     0.40209982      0.64092435   5.0276113e-05               0  -2.6704528e-06  -3.3304132e-10               0    0.0025806557       807.06644    0.0052731305   5.0383811e-06
     0.41451368       0.6393354   5.4028867e-05               0   -2.659118e-06  -3.5255732e-10               0    0.0025441498       805.31489    0.0052502665   5.0881795e-06
     0.42730893      0.63768594   5.8407209e-05               0  -2.6473854e-06  -3.7509882e-10               0    0.0025072219        803.4885    0.0052264789   5.1340074e-06
     0.44049728      0.63595981   6.2676327e-05               0  -2.6351602e-06  -3.9741907e-10               0    0.0024722912        801.5767    0.0052016367   5.1754874e-06
      0.4540908      0.63415631   6.6307525e-05               0   -2.622427e-06  -4.1691654e-10               0     0.002438737       799.58012     0.005175756   5.2118852e-06
     0.46810195      0.63228239   6.9411366e-05               0  -2.6092184e-06  -4.3324302e-10               0    0.0024007576       797.50808    0.0051489659   5.2427633e-06
     0.48254356      0.63034156   7.2097095e-05               0  -2.5955676e-06  -4.4656843e-10               0    0.0023574281       795.36961    0.0051213896    5.268029e-06
     0.49742885      0.62833674   7.4143573e-05               0  -2.5815156e-06  -4.5582939e-10               0    0.0023144608       793.17206    0.0050931292   5.2880022e-06
     0.51277145      0.62628017   7.5150949e-05               0  -2.5671494e-06  -4.5953519e-10               0    0.0022761887       790.92786    0.0050643495   5.3034374e-06
     0.52858541      0.62419253   7.5118444e-05               0  -2.5525921e-06  -4.5782908e-10               0    0.0022392037       788.65635    0.0050353027   5.3151532e-06
     0.54488522       0.6220893   7.4519442e-05               0  -2.5379436e-06  -4.5251921e-10               0    0.0021979031       786.37346    0.0050061947   5.3239828e-06
     0.56168579      0.61997519   7.3595139e-05               0  -2.5232501e-06  -4.4512618e-10               0    0.0021544797       784.08452    0.0049770944   5.3308655e-06
     0.57900252      0.61785135   7.2389158e-05               0  -2.5085362e-06  -4.3604489e-10               0    0.0021133781       781.79037    0.0049480132   5.3363161e-06
     0.59685126      0.61572458   7.0839442e-05               0  -2.4938413e-06  -4.2544342e-10               0    0.0020748131       779.49564      0.00491901   5.3406144e-06
     0.61524836       0.6136028   6.9154551e-05               0  -2.4792059e-06  -4.1413827e-10               0    0.0020340651       777.20769    0.0048901775   5.3438423e-06
     0.63421066      0.61148662   6.7547681e-05               0   -2.464647e-06  -4.0270006e-10               0    0.0019900023       774.92991    0.0048615574   5.3459339e-06
     0.65375553      0.60937698   6.5774571e-05               0  -2.4501823e-06  -3.9059367e-10               0    0.0019478747       772.66439    0.0048331748   5.3469632e-06
     0.67390086      0.60728188   6.3730944e-05               0  -2.4358534e-06   -3.774474e-10               0    0.0019080084       770.41704    0.0048051022    5.347186e-06
     0.69466511      0.60520898   6.1605833e-05               0  -2.4216988e-06  -3.6392909e-10               0    0.0018664995       768.19399    0.0047774136   5.3467983e-06
     0.71606728      0.60315787   5.9588099e-05               0  -2.4077297e-06  -3.5055838e-10               0    0.0018228717       765.99579    0.0047501133   5.3458491e-06
     0.73812698      0.60112897   5.7467322e-05               0  -2.3939535e-06  -3.3710276e-10               0    0.0017816732       763.82213    0.0047231947   5.3444481e-06
     0.76086441       0.5991269   5.5301415e-05               0  -2.3803817e-06  -3.2384673e-10               0    0.0017411411       761.67352    0.0046966615   5.3428992e-06
     0.78430038      0.59714938   5.3385526e-05               0  -2.3670018e-06  -3.1158106e-10               0    0.0016973813       759.54693    0.0046704739   5.3412244e-06
     0.80845637      0.59518964   5.1639679e-05               0  -2.3537847e-06  -3.0023186e-10               0    0.0016534105         757.437    0.0046445639   5.3392741e-06
     0.83335448      0.59324701   4.9883792e-05               0  -2.3407214e-06   -2.892363e-10               0    0.0016111703       755.34315    0.0046189227   5.3369979e-06
     0.85901753      0.59132476   4.8166428e-05               0   -2.327817e-06  -2.7863396e-10               0    0.0015676406       753.26881    0.0045935902   5.3343624e-06
       0.885469      0.58942056   4.6609903e-05               0  -2.3150682e-06  -2.6847408e-10               0    0.0015216173       751.21371    0.0045685614   5.3312655e-06
     0.91273313      0.58753443   4.4961347e-05               0  -2.3024812e-06  -2.5828255e-10               0    0.0014780085       749.17814    0.0045438377   5.3277885e-06
     0.94083488      0.58567282   4.3259252e-05               0  -2.2900733e-06  -2.4817906e-10               0    0.0014343903       747.16705    0.0045194771   5.3240534e-06
     0.96979998      0.58383383   4.1765723e-05               0  -2.2778402e-06  -2.3868451e-10               0    0.0013870355       745.17861     0.004495455   5.3200409e-06
     0.99965496      0.58201275   4.0296328e-05               0  -2.2657656e-06  -2.2962442e-10               0    0.0013414006       743.20749    0.0044717052   5.3158026e-06
      1.0304272      0.58021172   3.8827569e-05               0  -2.2538439e-06  -2.2093637e-10               0    0.0012964311       741.25412    0.0044482311   5.3114171e-06
      1.0621447       0.5784283   3.7552309e-05               0  -2.2420641e-06  -2.1283952e-10               0    0.0012476978       739.31741     0.004425018   5.3067571e-06
      1.0948368      0.57665915   3.6279608e-05               0  -2.2304178e-06  -2.0499441e-10               0    0.0011999836       737.39559    0.0044020432   5.3017727e-06
      1.1285332      0.57490864   3.4951348e-05               0   -2.218914e-06  -1.9722034e-10               0     0.001153091       735.49238    0.0043793495   5.2965662e-06
      1.1632648      0.57317728   3.3745505e-05               0  -2.2075573e-06  -1.8974789e-10               0    0.0011029826       733.60919    0.0043569519   5.2911029e-06
      1.1990635      0.57146308   3.2537692e-05               0  -2.1963453e-06  -1.8249575e-10               0    0.0010539571       731.74391    0.0043348239   5.2854213e-06
       1.235962      0.56976839   3.1333912e-05               0  -2.1852768e-06  -1.7551087e-10               0    0.0010052014        729.8969    0.0043129679   5.2796283e-06
      1.2739941      0.56809034    3.028178e-05               0  -2.1743404e-06  -1.6899967e-10               0   0.00095309418       728.06568     0.004291353   5.2736489e-06
      1.3131947      0.56642577   2.9238642e-05               0  -2.1635243e-06  -1.6276765e-10               0   0.00090190788       726.24801    0.0042699516   5.2674498e-06
      1.3535996      0.56477698   2.8199974e-05               0  -2.1528306e-06  -1.5667326e-10               0   0.00085062527       724.44598     0.004248787   5.2610798e-06
      1.3952458      0.56314425   2.7217248e-05               0  -2.1422638e-06  -1.5077108e-10               0   0.00079746758       722.66068    0.0042278707    5.254526e-06
      1.4381715      0.56152788   2.6234826e-05               0  -2.1318233e-06  -1.4508242e-10               0   0.00074468062       720.89221    0.0042072025   5.2478228e-06
       1.482416      0.55992697    2.532601e-05               0   -2.121503e-06  -1.3966453e-10               0   0.00069058561       719.13896    0.0041867621   5.2409827e-06
      1.5280198      0.55833969    2.444437e-05               0  -2.1112959e-06  -1.3448732e-10               0   0.00063662998       717.39899    0.0041665259   5.2340082e-06
      1.5750246      0.55676664   2.3588877e-05               0  -2.1011984e-06  -1.2952333e-10               0   0.00058218672       715.67289    0.0041464995    5.226905e-06
      1.6234735      0.55520645   2.2790337e-05               0  -2.0912074e-06  -1.2477258e-10               0   0.00052631107       713.96019    0.0041266762   5.2196445e-06
      1.6734109      0.55365982   2.1989998e-05               0  -2.0813195e-06  -1.2020379e-10               0   0.00047173691       712.26165    0.0041070641    5.212249e-06
      1.7248825      0.55212482   2.1251933e-05               0  -2.0715332e-06  -1.1589627e-10               0   0.00041639546       710.57502    0.0040876356   5.2047463e-06
      1.7779355      0.55060394   2.0562359e-05               0  -2.0618194e-06   -1.119002e-10               0   0.00036379292       708.90206    0.0040684104   5.1970548e-06
      1.8326183      0.54907614    1.994454e-05               0  -2.0522245e-06  -1.0759446e-10               0   0.00030877091        707.2241    0.0040491726   5.1893291e-06
      1.8889812      0.54761059   1.8835554e-05               0  -2.0426245e-06  -1.4193882e-10               0   0.00027562908       705.60144    0.0040306157   5.1814898e-06
      1.9470756      0.54601149   4.9727157e-05               0  -2.0330436e-06  -2.7146274e-10               0   0.00016417918       703.86246     0.004010771    5.172916e-06
      2.0069548      0.54461732   9.3703323e-05               0  -2.0227943e-06  -4.1408052e-10               0   0.00036039536       702.32798    0.0039932981   5.1610548e-06
