/*--------------------------------*- C++ -*----------------------------------*\
  =========                 |
  \\      /  F ield         | OpenFOAM: The Open Source CFD Toolbox
   \\    /   O peration     | Website:  https://openfoam.org
    \\  /    A nd           | Version:  12
     \\/     M anipulation  |
\*---------------------------------------------------------------------------*/
FoamFile
{
    format      ascii;
    class       volTensorField;
    location    "3000";
    object      grad(U);
}
// * * * * * * * * * * * * * * * * * * * * * * * * * * * * * * * * * * * * * //

dimensions      [0 0 -1 0 0 0 0];

internalField   nonuniform List<tensor> 
66675
(
(-0.062802441 0.00019572095 0 0 0.062798365 0 0 0 0)
(-0.17552165 0.00020713075 0 -0.002384757 0.17552758 0 0 0 0)
(-0.29000683 0.00023853139 0 -0.011923785 0.29001585 0 0 0 0)
(-0.40418035 0.00029821213 0 -0.031001842 0.40419891 0 0 0 0)
(-0.53830329 0.00040710968 0 -0.054849413 0.53831375 0 0 0 0)
(-0.69993335 0.00057546014 0 -0.078696983 0.69996136 0 0 0 0)
(-0.90288273 0.00082338095 0 -0.10969883 0.90291706 0 0 0 0)
(-1.1556494 0.0011847719 0 -0.14070067 1.1556726 0 0 0 0)
(-1.4752488 0.0016933488 0 -0.17170251 1.4752786 0 0 0 0)
(-1.8705503 0.0024173075 0 -0.20508911 1.8706128 0 0 0 0)
(-2.3661267 0.0034000621 0 -0.23847571 2.3661712 0 0 0 0)
(-2.9661857 0.0048516588 0 -0.26709279 2.9662314 0 0 0 0)
(-3.7365372 0.0073885675 0 -0.30047939 3.7345557 0 0 0 0)
(-4.7812741 0.011134364 0 -0.33386599 4.7794361 0 0 0 0)
(-6.1199206 0.0161741 0 -0.35294405 6.1183831 0 0 0 0)
(-7.806227 0.023343 0 -0.36248307 7.8051402 0 0 0 0)
(-9.9327244 0.033727003 0 -0.36486783 9.9320921 0 0 0 0)
(-12.617635 0.048913783 0 -0.3553288 12.617459 0 0 0 0)
(-16.026133 0.071284293 0 -0.33386599 16.026382 0 0 0 0)
(-20.371757 0.10455988 0 -0.29094036 20.372769 0 0 0 0)
(-25.955909 0.1543744 0 -0.22655192 25.957778 0 0 0 0)
(-33.171138 0.23015454 0 -0.12400737 33.174646 0 0 0 0)
(-42.611398 0.34603787 0 0.038156113 42.615923 0 0 0 0)
(-55.02712 0.52870868 0 0.29332512 55.038328 0 0 0 0)
(-71.744986 0.81521988 0 0.69634906 71.752361 0 0 0 0)
(-94.213918 1.2978542 0 1.3616963 94.25701 0 0 0 0)
(-126.14716 2.0668333 0 2.4396065 126.10891 0 0 0 0)
(-169.65788 3.5852725 0 4.3951073 169.92056 0 0 0 0)
(-240.4694 5.7826763 0 7.6455312 239.595 0 0 0 0)
(-328.82811 12.980385 0 15.582003 331.60852 0 0 0 0)
(-556.67543 17.830971 0 23.692562 542.22506 0 0 0 0)
(-684.06845 79.728294 0 113.23304 725.54217 0 0 0 0)
(-2089.1588 46.625004 0 29.349205 1833.2385 0 0 0 0)
(-1008.3634 1497.8259 0 1526.2827 1960.7036 0 0 0 0)
(-16357.151 2375.9864 0 -971.43079 14201.135 0 0 0 0)
(-0.062810796 0.00059928355 0 0 0.062803607 0 0 0 0)
(-0.17556827 0.00063429986 0 -0.0046311851 0.17557268 0 0 0 0)
(-0.29013272 0.00073051758 0 -0.025402354 0.29012525 0 0 0 0)
(-0.40439341 0.00091328032 0 -0.066944691 0.40438606 0 0 0 0)
(-0.53857234 0.00124671 0 -0.1177494 0.53857284 0 0 0 0)
(-0.70029076 0.0017621836 0 -0.17529339 0.70029232 0 0 0 0)
(-0.90334131 0.0025212928 0 -0.24223808 0.90332161 0 0 0 0)
(-1.1561745 0.0036277967 0 -0.3114292 1.1561589 0 0 0 0)
(-1.4758748 0.0051849753 0 -0.38062032 1.4758437 0 0 0 0)
(-1.8712917 0.0074013775 0 -0.45219619 1.8712721 0 0 0 0)
(-2.3669109 0.010410514 0 -0.5260185 2.366874 0 0 0 0)
(-2.9670931 0.014936936 0 -0.588332 2.9670745 0 0 0 0)
(-3.7376504 0.022694762 0 -0.66664716 3.7399487 0 0 0 0)
(-4.7822571 0.034062587 0 -0.73597661 4.7842781 0 0 0 0)
(-6.1205319 0.04947655 0 -0.77527252 6.1222447 0 0 0 0)
(-7.8065134 0.071411047 0 -0.79155083 7.80783 0 0 0 0)
(-9.9324963 0.10318655 0 -0.78944273 9.9333133 0 0 0 0)
(-12.616591 0.14965786 0 -0.75743942 12.616851 0 0 0 0)
(-16.023659 0.21810309 0 -0.69329448 16.023188 0 0 0 0)
(-20.367077 0.31988925 0 -0.57848315 20.365722 0 0 0 0)
(-25.947558 0.47222794 0 -0.40177331 25.944282 0 0 0 0)
(-33.155978 0.70383849 0 -0.11951451 33.150533 0 0 0 0)
(-42.584036 1.0578883 0 0.31895962 42.571667 0 0 0 0)
(-54.9777 1.6151476 0 1.0099357 54.960475 0 0 0 0)
(-71.653005 2.4891109 0 2.0958737 71.600791 0 0 0 0)
(-94.042165 3.9545993 0 3.8821885 93.99213 0 0 0 0)
(-125.80375 6.2972159 0 6.7954304 125.51933 0 0 0 0)
(-168.98484 10.845348 0 12.019484 168.96405 0 0 0 0)
(-238.79462 17.620589 0 20.814092 236.66985 0 0 0 0)
(-326.15107 38.006406 0 41.692236 328.66423 0 0 0 0)
(-536.98454 55.913587 0 64.950459 515.44131 0 0 0 0)
(-685.39522 211.1999 0 266.41022 733.1195 0 0 0 0)
(-1708.7593 243.0416 0 145.59512 1466.2166 0 0 0 0)
(-1372.5688 2188.978 0 3135.9382 2307.1628 0 0 0 0)
(-3486.4639 4095.9105 0 -653.29839 3619.7107 0 0 0 0)
(-0.06281915 0.0010278082 0 0.0021161228 0.062811849 0 0 0 0)
(-0.17562445 0.0010880325 0 -0.0043625509 0.17563446 0 0 0 0)
(-0.29029009 0.0012532021 0 -0.030407551 0.29027995 0 0 0 0)
(-0.40465346 0.0015667054 0 -0.076149183 0.40465207 0 0 0 0)
(-0.53893828 0.0021385403 0 -0.13696428 0.53894248 0 0 0 0)
(-0.70076931 0.0030225899 0 -0.20875092 0.70076376 0 0 0 0)
(-0.90392455 0.0043245052 0 -0.2849001 0.90389827 0 0 0 0)
(-1.1568612 0.0062221402 0 -0.36541183 1.1568507 0 0 0 0)
(-1.4766611 0.008892702 0 -0.45015581 1.4766489 0 0 0 0)
(-1.8722203 0.012693295 0 -0.53278367 1.8722088 0 0 0 0)
(-2.3679053 0.017854198 0 -0.61977408 2.3678737 0 0 0 0)
(-2.96832 0.025632003 0 -0.69367683 2.9682802 0 0 0 0)
(-3.7390708 0.038929484 0 -0.78727622 3.7392804 0 0 0 0)
(-4.7833736 0.058398788 0 -0.86554152 4.7834742 0 0 0 0)
(-6.1211363 0.084823713 0 -0.9069206 6.1212082 0 0 0 0)
(-7.8065529 0.12242707 0 -0.92000826 7.8064882 0 0 0 0)
(-9.9316393 0.17689782 0 -0.90070254 9.9313545 0 0 0 0)
(-12.614274 0.25655126 0 -0.84438029 12.61375 0 0 0 0)
(-16.01901 0.3738502 0 -0.73398223 16.01793 0 0 0 0)
(-20.358539 0.54824248 0 -0.55840651 20.35662 0 0 0 0)
(-25.932047 0.80917272 0 -0.27891141 25.928139 0 0 0 0)
(-33.128279 1.2056566 0 0.15896982 33.121998 0 0 0 0)
(-42.534467 1.8114532 0 0.83522769 42.519755 0 0 0 0)
(-54.888552 2.7636004 0 1.895291 54.86752 0 0 0 0)
(-71.488167 4.2561839 0 3.5664345 71.423468 0 0 0 0)
(-93.732861 6.7484218 0 6.2998877 93.670444 0 0 0 0)
(-125.1907 10.738667 0 10.771908 124.84056 0 0 0 0)
(-167.77459 18.361945 0 18.742486 167.74411 0 0 0 0)
(-235.86031 29.989275 0 32.186157 233.33362 0 0 0 0)
(-321.15378 61.907048 0 63.618511 324.13447 0 0 0 0)
(-509.91019 97.866628 0 100.92833 486.44405 0 0 0 0)
(-670.33132 300.32592 0 341.74701 723.05617 0 0 0 0)
(-1294.3043 454.66456 0 334.09864 1113.1811 0 0 0 0)
(-1368.4405 2120.1037 0 2871.0489 2036.6136 0 0 0 0)
(-335.03967 4232.8292 0 1375.0617 174.12049 0 0 0 0)
(-0.062820209 0.001482874 0 0.0021161229 0.062822775 0 0 0 0)
(-0.17570813 0.0015700606 0 -0.006102875 0.17570914 0 0 0 0)
(-0.29047755 0.0018086404 0 -0.034869367 0.29047066 0 0 0 0)
(-0.40497464 0.0022610447 0 -0.086053984 0.40498101 0 0 0 0)
(-0.53939748 0.0030860301 0 -0.15778609 0.53940125 0 0 0 0)
(-0.70134029 0.0043614722 0 -0.2377372 0.70134913 0 0 0 0)
(-0.90461362 0.0062398038 0 -0.32578456 0.90461552 0 0 0 0)
(-1.1577121 0.0089774783 0 -0.41594805 1.1577091 0 0 0 0)
(-1.4776539 0.012830267 0 -0.51233715 1.4776476 0 0 0 0)
(-1.8733607 0.01831245 0 -0.60860351 1.8733661 0 0 0 0)
(-2.3691423 0.025758594 0 -0.70499261 2.3691088 0 0 0 0)
(-2.9697876 0.036967897 0 -0.78905322 2.9697746 0 0 0 0)
(-3.7407721 0.056143199 0 -0.89353858 3.740195 0 0 0 0)
(-4.7847084 0.084229606 0 -0.98170868 4.7840949 0 0 0 0)
(-6.1217892 0.12234042 0 -1.024797 6.1212383 0 0 0 0)
(-7.8062738 0.17657058 0 -1.0331388 7.805775 0 0 0 0)
(-9.9300258 0.25511706 0 -0.99440542 9.9294612 0 0 0 0)
(-12.610434 0.36995989 0 -0.91071305 12.609924 0 0 0 0)
(-16.011649 0.5390482 0 -0.75528857 16.01079 0 0 0 0)
(-20.345198 0.79036891 0 -0.50807548 20.343796 0 0 0 0)
(-25.908091 1.1662776 0 -0.11963703 25.905307 0 0 0 0)
(-33.085833 1.737152 0 0.48139064 33.08162 0 0 0 0)
(-42.45881 2.6088943 0 1.4095825 42.447343 0 0 0 0)
(-54.752101 3.9772617 0 2.8630832 54.737736 0 0 0 0)
(-71.235928 6.1203523 0 5.1569739 71.181931 0 0 0 0)
(-93.260931 9.68606 0 8.9023719 93.224491 0 0 0 0)
(-124.25491 15.392122 0 15.017502 123.94382 0 0 0 0)
(-165.93802 26.147628 0 25.92092 166.03741 0 0 0 0)
(-231.41305 42.797174 0 44.050413 229.12166 0 0 0 0)
(-313.46991 84.993574 0 86.367918 317.089 0 0 0 0)
(-475.86215 140.22466 0 138.03802 457.00521 0 0 0 0)
(-633.02772 362.64384 0 399.63646 681.23925 0 0 0 0)
(-972.37805 610.66146 0 521.15287 872.29666 0 0 0 0)
(-1124.7122 1829.1077 0 2201.0449 1504.3908 0 0 0 0)
(383.9467 3506.0531 0 2357.5534 -625.73335 0 0 0 0)
(-0.062836918 0.0019661514 0 0 0.062835195 0 0 0 0)
(-0.1757918 0.002082217 0 -0.0077422507 0.1757961 0 0 0 0)
(-0.29069787 0.0023989944 0 -0.036717878 0.29069432 0 0 0 0)
(-0.4053663 0.0029989964 0 -0.096546881 0.40536812 0 0 0 0)
(-0.53993739 0.0040928041 0 -0.17385376 0.53994288 0 0 0 0)
(-0.70203657 0.0057838827 0 -0.26453614 0.70204065 0 0 0 0)
(-0.90546023 0.008274349 0 -0.3630764 0.90546194 0 0 0 0)
(-1.1587031 0.011904014 0 -0.46537215 1.1587208 0 0 0 0)
(-1.4788349 0.017012158 0 -0.57153903 1.4788208 0 0 0 0)
(-1.8747094 0.024279226 0 -0.67782154 1.8747205 0 0 0 0)
(-2.3705613 0.034152543 0 -0.78398842 2.3705441 0 0 0 0)
(-2.9715376 0.049014094 0 -0.87478643 2.9715122 0 0 0 0)
(-3.7427862 0.074421821 0 -0.99068893 3.7427876 0 0 0 0)
(-4.7862192 0.11163454 0 -1.0872358 4.7861424 0 0 0 0)
(-6.1223794 0.16213963 0 -1.1298182 6.1222429 0 0 0 0)
(-7.8055648 0.23400443 0 -1.1261783 7.8054604 0 0 0 0)
(-9.9274371 0.33807726 0 -1.0703361 9.927171 0 0 0 0)
(-12.604934 0.49021343 0 -0.95478044 12.604556 0 0 0 0)
(-16.001086 0.71415516 0 -0.75440694 16.000323 0 0 0 0)
(-20.326151 1.046888 0 -0.42874218 20.324745 0 0 0 0)
(-25.874359 1.5443424 0 0.074184957 25.871319 0 0 0 0)
(-33.0262 2.299262 0 0.84705023 33.021554 0 0 0 0)
(-42.352339 3.4510804 0 2.0418959 42.339863 0 0 0 0)
(-54.560349 5.2562166 0 3.9151689 54.545136 0 0 0 0)
(-70.881877 8.079081 0 6.8601054 70.824523 0 0 0 0)
(-92.599392 12.756604 0 11.666933 92.563966 0 0 0 0)
(-122.94459 20.226697 0 19.490486 122.62461 0 0 0 0)
(-163.39725 34.096724 0 33.416939 163.53565 0 0 0 0)
(-225.32124 55.8023 0 56.122712 223.13573 0 0 0 0)
(-302.75659 106.63347 0 108.33923 306.48717 0 0 0 0)
(-437.2271 179.71773 0 174.75809 422.65757 0 0 0 0)
(-574.92713 404.49368 0 433.36962 614.9784 0 0 0 0)
(-743.21568 700.44832 0 658.06519 685.85076 0 0 0 0)
(-789.1742 1560.4029 0 1689.7335 1005.3803 0 0 0 0)
(374.32246 2709.9246 0 2474.4465 -550.54736 0 0 0 0)
(-0.062853627 0.0024794213 0 0 0.062849303 0 0 0 0)
(-0.17588504 0.0026264649 0 -0.0072931576 0.1758963 0 0 0 0)
(-0.29096061 0.0030265934 0 -0.040003447 0.29095374 0 0 0 0)
(-0.40581592 0.0037834652 0 -0.10376412 0.40581928 0 0 0 0)
(-0.5405742 0.0051627529 0 -0.18918642 0.5405756 0 0 0 0)
(-0.702854 0.0072952344 0 -0.28753513 0.70284905 0 0 0 0)
(-0.90645033 0.010435802 0 -0.39306807 0.90645086 0 0 0 0)
(-1.159896 0.015012645 0 -0.507663 1.159901 0 0 0 0)
(-1.4801977 0.02145382 0 -0.62413568 1.4801864 0 0 0 0)
(-1.8762735 0.030615314 0 -0.73696179 1.8762913 0 0 0 0)
(-2.3722186 0.043066803 0 -0.8552033 2.3722007 0 0 0 0)
(-2.973533 0.061811128 0 -0.95167426 2.9735194 0 0 0 0)
(-3.7451183 0.093825314 0 -1.0772089 3.7452188 0 0 0 0)
(-4.7878997 0.14070518 0 -1.180973 4.7878927 0 0 0 0)
(-6.1227471 0.20435286 0 -1.2193166 6.1227249 0 0 0 0)
(-7.8043146 0.29491512 0 -1.2048392 7.8043015 0 0 0 0)
(-9.9238002 0.42603952 0 -1.1304655 9.9234966 0 0 0 0)
(-12.597367 0.61767241 0 -0.9798405 12.596868 0 0 0 0)
(-15.986794 0.89966027 0 -0.72743801 15.985906 0 0 0 0)
(-20.300441 1.3184429 0 -0.32419264 20.298909 0 0 0 0)
(-25.829206 1.9441673 0 0.30062268 25.825536 0 0 0 0)
(-32.946492 2.8928604 0 1.2595073 32.940875 0 0 0 0)
(-42.209918 4.3386726 0 2.738001 42.195766 0 0 0 0)
(-54.304524 6.5999657 0 5.0485115 54.287125 0 0 0 0)
(-70.410447 10.128565 0 8.6777199 70.346987 0 0 0 0)
(-91.721042 15.945753 0 14.583286 91.683161 0 0 0 0)
(-121.21023 25.206246 0 24.144676 120.8766 0 0 0 0)
(-160.08348 42.092089 0 41.099489 160.24816 0 0 0 0)
(-217.56646 68.724307 0 68.184018 215.53841 0 0 0 0)
(-288.80958 126.37233 0 128.37903 292.44964 0 0 0 0)
(-396.29618 213.82612 0 208.82792 385.72744 0 0 0 0)
(-503.08339 430.84561 0 449.22789 535.1712 0 0 0 0)
(-569.81291 734.56527 0 725.60369 536.3804 0 0 0 0)
(-490.37826 1349.5105 0 1387.7539 618.5045 0 0 0 0)
(334.46842 2098.9281 0 2102.4367 -426.13743 0 0 0 0)
(-0.062870336 0.0030245804 0 0 0.06286512 0 0 0 0)
(-0.17599741 0.0032049055 0 -0.0068701143 0.17601005 0 0 0 0)
(-0.29125345 0.0036939392 0 -0.044553141 0.29125027 0 0 0 0)
(-0.4063392 0.004617572 0 -0.11138285 0.40633742 0 0 0 0)
(-0.54130245 0.0063000471 0 -0.20402679 0.54130395 0 0 0 0)
(-0.70376594 0.0089013196 0 -0.30853953 0.7037801 0 0 0 0)
(-0.90760037 0.012732339 0 -0.42335744 0.90758928 0 0 0 0)
(-1.1612694 0.018314991 0 -0.54514807 1.1612573 0 0 0 0)
(-1.4817455 0.026171712 0 -0.66860492 1.481753 0 0 0 0)
(-1.8780777 0.037343785 0 -0.79195917 1.8780873 0 0 0 0)
(-2.3741145 0.052534121 0 -0.91551863 2.3740878 0 0 0 0)
(-2.9758108 0.075401848 0 -1.0200314 2.975806 0 0 0 0)
(-3.747763 0.11441689 0 -1.1537934 3.7477651 0 0 0 0)
(-4.789659 0.17153789 0 -1.2601776 4.7895927 0 0 0 0)
(-6.1229548 0.24911797 0 -1.2961944 6.1228682 0 0 0 0)
(-7.8025071 0.35949776 0 -1.2706879 7.8024005 0 0 0 0)
(-9.9187688 0.51927506 0 -1.1749167 9.9184261 0 0 0 0)
(-12.587265 0.75270833 0 -0.98670681 12.586683 0 0 0 0)
(-15.968236 1.096061 0 -0.67701406 15.967117 0 0 0 0)
(-20.267233 1.6056733 0 -0.19098018 20.265469 0 0 0 0)
(-25.770453 2.3665162 0 0.56206474 25.766511 0 0 0 0)
(-32.843068 3.5187046 0 1.7174464 32.83707 0 0 0 0)
(-42.02625 5.2720311 0 3.4924187 42.010793 0 0 0 0)
(-53.974934 8.0073185 0 6.2601717 53.956453 0 0 0 0)
(-69.80467 12.26342 0 10.599486 69.737542 0 0 0 0)
(-90.599021 19.23589 0 17.633469 90.563218 0 0 0 0)
(-119.007 30.287462 0 28.928146 118.67515 0 0 0 0)
(-155.93481 50.015514 0 48.818422 156.13835 0 0 0 0)
(-208.22806 81.242091 0 80.01948 206.47894 0 0 0 0)
(-271.69786 143.91675 0 145.78919 275.16432 0 0 0 0)
(-354.39374 241.05912 0 237.66942 347.42365 0 0 0 0)
(-426.352 444.31131 0 454.4283 451.40307 0 0 0 0)
(-428.41419 728.31197 0 733.14318 409.77855 0 0 0 0)
(-274.24524 1172.0715 0 1188.9366 344.79832 0 0 0 0)
(337.37644 1635.7201 0 1651.7871 -389.05095 0 0 0 0)
(-0.062887045 0.0036036477 0 0 0.06288263 0 0 0 0)
(-0.17612891 0.0038197842 0 -0.0080411871 0.17613735 0 0 0 0)
(-0.29159827 0.004403716 0 -0.045301269 0.29158458 0 0 0 0)
(-0.40692042 0.0055046655 0 -0.1179619 0.40692442 0 0 0 0)
(-0.54212759 0.0075091516 0 -0.21484275 0.54213084 0 0 0 0)
(-0.70483191 0.010608326 0 -0.32790262 0.70483794 0 0 0 0)
(-0.90888912 0.01517269 0 -0.45066991 0.90888163 0 0 0 0)
(-1.1627854 0.021823434 0 -0.57824258 1.1627949 0 0 0 0)
(-1.4835278 0.031183348 0 -0.70905105 1.4835246 0 0 0 0)
(-1.8800866 0.044489162 0 -0.84152575 1.880112 0 0 0 0)
(-2.3762287 0.062589322 0 -0.970668 2.3762084 0 0 0 0)
(-2.9783988 0.089836957 0 -1.0805887 2.9783728 0 0 0 0)
(-3.7506409 0.1362678 0 -1.2211046 3.7506634 0 0 0 0)
(-4.7915518 0.20423198 0 -1.3293591 4.7914356 0 0 0 0)
(-6.1229329 0.29657634 0 -1.3602442 6.1227951 0 0 0 0)
(-7.7999116 0.42795137 0 -1.3216079 7.7997738 0 0 0 0)
(-9.9122061 0.61805863 0 -1.2007968 9.9118257 0 0 0 0)
(-12.57422 0.89569238 0 -0.97506361 12.573647 0 0 0 0)
(-15.944504 1.3038428 0 -0.60577207 15.943247 0 0 0 0)
(-20.225076 1.909178 0 -0.026926422 20.223149 0 0 0 0)
(-25.696345 2.8120446 0 0.86011707 25.692016 0 0 0 0)
(-32.712895 4.1772912 0 2.2196113 32.706311 0 0 0 0)
(-41.795067 6.2509237 0 4.303369 41.778419 0 0 0 0)
(-53.561253 9.4757669 0 7.5484405 53.542096 0 0 0 0)
(-69.04712 14.475513 0 12.61319 68.977666 0 0 0 0)
(-89.206316 22.603576 0 20.789934 89.175065 0 0 0 0)
(-116.29759 35.415108 0 33.78389 115.97973 0 0 0 0)
(-150.90257 57.740471 0 56.401454 151.14582 0 0 0 0)
(-197.44897 93.013003 0 91.354664 196.05146 0 0 0 0)
(-251.82838 158.9776 0 160.28295 255.05409 0 0 0 0)
(-312.25035 260.88297 0 259.31 308.13796 0 0 0 0)
(-351.50216 446.44251 0 451.97492 370.33584 0 0 0 0)
(-311.13197 696.19911 0 703.16179 301.11803 0 0 0 0)
(-126.70702 1014.2438 0 1026.2377 161.41769 0 0 0 0)
(344.35139 1289.1635 0 1295.0341 -378.52078 0 0 0 0)
(-0.062912108 0.0042187719 0 0.0014785332 0.062901708 0 0 0 0)
(-0.17625921 0.0044735018 0 -0.0091443313 0.17627816 0 0 0 0)
(-0.29196639 0.0051588041 0 -0.045630612 0.29195714 0 0 0 0)
(-0.40758468 0.0064483397 0 -0.12174233 0.40758195 0 0 0 0)
(-0.54306035 0.0087948516 0 -0.22371746 0.54305944 0 0 0 0)
(-0.70602111 0.012422868 0 -0.34241168 0.70602654 0 0 0 0)
(-0.91033781 0.017766164 0 -0.47172876 0.91033267 0 0 0 0)
(-1.1645035 0.025551159 0 -0.60714207 1.1645185 0 0 0 0)
(-1.4855166 0.036507354 0 -0.74560348 1.4855057 0 0 0 0)
(-1.8823639 0.052077495 0 -0.88258636 1.8823678 0 0 0 0)
(-2.3785774 0.073269413 0 -1.0180907 2.3785638 0 0 0 0)
(-2.9812368 0.10517 0 -1.1321672 2.9812176 0 0 0 0)
(-3.7538314 0.15945269 0 -1.2782945 3.7538502 0 0 0 0)
(-4.793426 0.23889093 0 -1.3879354 4.7933321 0 0 0 0)
(-6.1225427 0.34687436 0 -1.4093632 6.1223767 0 0 0 0)
(-7.7963926 0.50048068 0 -1.3563399 7.7962266 0 0 0 0)
(-9.9037751 0.7226696 0 -1.2090073 9.9033857 0 0 0 0)
(-12.557918 1.0469948 0 -0.94316257 12.557255 0 0 0 0)
(-15.914761 1.5234747 0 -0.51021802 15.91346 0 0 0 0)
(-20.172644 2.2295014 0 0.162981 20.170546 0 0 0 0)
(-25.604471 3.2812677 0 1.1916254 25.599689 0 0 0 0)
(-32.551777 4.8687898 0 2.7673818 32.544621 0 0 0 0)
(-41.509816 7.2744036 0 5.1743839 41.491955 0 0 0 0)
(-53.05278 11.001259 0 8.9097684 53.033025 0 0 0 0)
(-68.120426 16.753618 0 14.710836 68.0497 0 0 0 0)
(-87.517579 26.019445 0 24.020591 87.492864 0 0 0 0)
(-113.05614 40.52199 0 38.645221 112.76406 0 0 0 0)
(-144.96218 65.135099 0 63.666579 145.2416 0 0 0 0)
(-185.40533 103.71235 0 101.85315 184.38469 0 0 0 0)
(-229.86591 171.27739 0 171.83167 232.80692 0 0 0 0)
(-270.5562 273.45108 0 273.04977 268.50393 0 0 0 0)
(-282.25003 438.89785 0 442.29938 295.79298 0 0 0 0)
(-215.42191 649.03513 0 654.45265 209.96333 0 0 0 0)
(-27.221817 874.08541 0 882.17574 41.750845 0 0 0 0)
(339.2833 1029.7148 0 1030.5023 -362.17967 0 0 0 0)
(-0.062929875 0.0048722394 0 0.0014785332 0.062922272 0 0 0 0)
(-0.17641699 0.0051686245 0 -0.0086139098 0.1764324 0 0 0 0)
(-0.29237556 0.0059622952 0 -0.048726392 0.29236834 0 0 0 0)
(-0.40830848 0.0074524572 0 -0.12616582 0.40831151 0 0 0 0)
(-0.54408818 0.010162273 0 -0.23223251 0.54409255 0 0 0 0)
(-0.70734998 0.014352017 0 -0.35691979 0.70734937 0 0 0 0)
(-0.91196287 0.020522699 0 -0.49030675 0.91194647 0 0 0 0)
(-1.1664235 0.029512212 0 -0.63222185 1.1664324 0 0 0 0)
(-1.4877119 0.042163542 0 -0.77700826 1.4876998 0 0 0 0)
(-1.8848247 0.060136444 0 -0.91753059 1.8848567 0 0 0 0)
(-2.3811726 0.084613702 0 -1.0579672 2.3811548 0 0 0 0)
(-2.984385 0.12145689 0 -1.1769976 2.9843354 0 0 0 0)
(-3.7572551 0.18404904 0 -1.3261338 3.7572712 0 0 0 0)
(-4.795288 0.27562228 0 -1.4323721 4.7952003 0 0 0 0)
(-6.1216656 0.40016355 0 -1.4482071 6.1214899 0 0 0 0)
(-7.7917831 0.5772956 0 -1.3753748 7.7915608 0 0 0 0)
(-9.893257 0.83339012 0 -1.2008257 9.8927801 0 0 0 0)
(-12.537641 1.2069809 0 -0.89027553 12.536967 0 0 0 0)
(-15.878315 1.7554006 0 -0.39204098 15.876853 0 0 0 0)
(-20.10854 2.5671157 0 0.37950253 20.106144 0 0 0 0)
(-25.49212 3.7745271 0 1.5591347 25.486983 0 0 0 0)
(-32.355334 5.5929773 0 3.3573389 32.347771 0 0 0 0)
(-41.163351 8.3406833 0 6.0991075 41.144454 0 0 0 0)
(-52.438272 12.578011 0 10.335837 52.418249 0 0 0 0)
(-67.007701 19.083187 0 16.876998 66.937104 0 0 0 0)
(-85.510548 29.448588 0 27.290107 85.494421 0 0 0 0)
(-109.27087 45.530441 0 43.437973 109.01665 0 0 0 0)
(-138.12358 72.064996 0 70.448099 138.43612 0 0 0 0)
(-172.28667 113.06342 0 111.15694 171.63272 0 0 0 0)
(-206.58182 180.60665 0 180.47132 209.20867 0 0 0 0)
(-230.13044 279.32603 0 279.33792 229.43524 0 0 0 0)
(-220.28599 423.57294 0 425.80603 229.56613 0 0 0 0)
(-139.03606 594.30566 0 597.73165 135.76127 0 0 0 0)
(38.503185 751.05084 0 755.22821 -34.423225 0 0 0 0)
(324.13155 832.49662 0 830.5677 -339.39308 0 0 0 0)
(-0.062954939 0.0055664844 0 0 0.062944214 0 0 0 0)
(-0.17658554 0.0059078959 0 -0.0081142556 0.17659989 0 0 0 0)
(-0.29282576 0.0068175078 0 -0.049997515 0.29281842 0 0 0 0)
(-0.40910435 0.0085211651 0 -0.12966651 0.40911465 0 0 0 0)
(-0.545238 0.011616909 0 -0.24039976 0.54523266 0 0 0 0)
(-0.7088 0.016403332 0 -0.36875429 0.70881046 0 0 0 0)
(-0.91373143 0.023452898 0 -0.50776626 0.91372733 0 0 0 0)
(-1.1685454 0.033721553 0 -0.65366128 1.1685409 0 0 0 0)
(-1.4901139 0.048172974 0 -0.80226105 1.4901097 0 0 0 0)
(-1.8875539 0.068695389 0 -0.94807529 1.8875793 0 0 0 0)
(-2.3840346 0.096663911 0 -1.0926583 2.3839815 0 0 0 0)
(-2.9877785 0.13875672 0 -1.2142106 2.9877186 0 0 0 0)
(-3.7608271 0.21013792 0 -1.3642031 3.7609047 0 0 0 0)
(-4.7971014 0.31453761 0 -1.4682149 4.7969836 0 0 0 0)
(-6.1202392 0.4565996 0 -1.4738668 6.1200268 0 0 0 0)
(-7.7857807 0.65860952 0 -1.3822284 7.7855785 0 0 0 0)
(-9.8801686 0.95050212 0 -1.1760015 9.8796666 0 0 0 0)
(-12.513012 1.3760045 0 -0.81994376 12.512189 0 0 0 0)
(-15.834125 2.000026 0 -0.25093767 15.832417 0 0 0 0)
(-20.030822 2.9223948 0 0.62707581 20.028252 0 0 0 0)
(-25.356675 4.2919399 0 1.9623733 25.35109 0 0 0 0)
(-32.119208 6.3491468 0 3.9910147 32.111162 0 0 0 0)
(-40.748173 9.4469969 0 7.0759408 40.72855 0 0 0 0)
(-51.705992 14.198294 0 11.819099 51.686547 0 0 0 0)
(-65.692491 21.446044 0 19.091117 65.624269 0 0 0 0)
(-83.166599 32.850915 0 30.554143 83.161041 0 0 0 0)
(-104.94423 50.354863 0 48.083658 104.7384 0 0 0 0)
(-130.43917 78.395527 0 76.605583 130.78087 0 0 0 0)
(-158.30466 120.85235 0 118.95411 157.97642 0 0 0 0)
(-182.72464 186.8669 0 186.20035 185.01599 0 0 0 0)
(-191.80924 279.29874 0 279.21056 191.90074 0 0 0 0)
(-166.26479 402.40754 0 403.67076 172.27043 0 0 0 0)
(-79.377713 537.0657 0 538.68038 77.055943 0 0 0 0)
(80.253654 644.03943 0 644.98722 -81.091348 0 0 0 0)
(303.01688 680.51489 0 676.61612 -313.28325 0 0 0 0)
(-0.062980002 0.0063040958 0 0.0012358796 0.062967331 0 0 0 0)
(-0.17676367 0.0066942493 0 -0.0076435841 0.17678024 0 0 0 0)
(-0.29331839 0.0077280075 0 -0.049645246 0.29330732 0 0 0 0)
(-0.40998325 0.0096589209 0 -0.13233659 0.40999252 0 0 0 0)
(-0.54648107 0.013164654 0 -0.24560226 0.54648242 0 0 0 0)
(-0.71040822 0.018584902 0 -0.37786275 0.7104133 0 0 0 0)
(-0.91569042 0.026568076 0 -0.52170276 0.91567902 0 0 0 0)
(-1.170829 0.038195105 0 -0.67179828 1.170847 0 0 0 0)
(-1.4927502 0.054558034 0 -0.82444165 1.4927375 0 0 0 0)
(-1.8905161 0.077785518 0 -0.97337739 1.8905345 0 0 0 0)
(-2.3871109 0.10946429 0 -1.1196892 2.3870409 0 0 0 0)
(-2.9914127 0.15713197 0 -1.2419104 2.9913544 0 0 0 0)
(-3.7646375 0.23780391 0 -1.392082 3.7647131 0 0 0 0)
(-4.7987505 0.35575177 0 -1.4927606 4.7986096 0 0 0 0)
(-6.118076 0.51634173 0 -1.4852692 6.1178556 0 0 0 0)
(-7.7782499 0.7446378 0 -1.3748558 7.7780502 0 0 0 0)
(-9.8642459 1.0742831 0 -1.1360418 9.8636446 0 0 0 0)
(-12.483123 1.5543998 0 -0.73083746 12.482245 0 0 0 0)
(-15.780782 2.2577028 0 -0.086590797 15.779022 0 0 0 0)
(-19.93782 3.2955861 0 0.9019398 19.934996 0 0 0 0)
(-25.195035 4.8333455 0 2.398825 25.188947 0 0 0 0)
(-31.838233 7.1360116 0 4.6671217 31.829885 0 0 0 0)
(-40.256681 10.589426 0 8.0997514 40.236638 0 0 0 0)
(-50.845098 15.852218 0 13.347597 50.826783 0 0 0 0)
(-64.161063 23.820213 0 21.32783 64.097451 0 0 0 0)
(-80.472229 36.181661 0 33.759439 80.479283 0 0 0 0)
(-100.09267 54.905457 0 52.491257 99.942696 0 0 0 0)
(-122.00211 83.99682 0 82.01781 122.36806 0 0 0 0)
(-143.70036 126.9331 0 125.01958 143.63678 0 0 0 0)
(-158.96355 190.08763 0 189.02372 160.90423 0 0 0 0)
(-156.29836 274.28341 0 273.83336 156.74925 0 0 0 0)
(-120.24487 377.21928 0 377.5226 123.84517 0 0 0 0)
(-33.814498 480.63679 0 480.65944 31.885601 0 0 0 0)
(105.1523 551.70554 0 550.22074 -107.87384 0 0 0 0)
(278.99199 562.01816 0 556.66671 -285.87438 0 0 0 0)
(-0.06299777 0.0070878283 0 0.0012358796 0.062991517 0 0 0 0)
(-0.17695971 0.0075308198 0 -0.0083644059 0.17697306 0 0 0 0)
(-0.29385345 0.0086976221 0 -0.049165619 0.29383491 0 0 0 0)
(-0.41093265 0.010870519 0 -0.13309643 0.41094605 0 0 0 0)
(-0.54784794 0.014811828 0 -0.24932067 0.54784411 0 0 0 0)
(-0.71215195 0.020905369 0 -0.38598137 0.71216058 0 0 0 0)
(-0.91781172 0.029880295 0 -0.53217066 0.91780444 0 0 0 0)
(-1.1733549 0.042949819 0 -0.68563185 1.1733529 0 0 0 0)
(-1.4955899 0.061342496 0 -0.84149311 1.4955837 0 0 0 0)
(-1.8936936 0.087439916 0 -0.99248255 1.8937194 0 0 0 0)
(-2.3903933 0.12306171 0 -1.1399794 2.3903279 0 0 0 0)
(-2.9952599 0.17664822 0 -1.2622397 2.9952237 0 0 0 0)
(-3.7685539 0.2671349 0 -1.4133008 3.7686462 0 0 0 0)
(-4.8001628 0.39938299 0 -1.5057394 4.7999914 0 0 0 0)
(-6.1151062 0.5795516 0 -1.4855897 6.1148257 0 0 0 0)
(-7.7689601 0.83559508 0 -1.3516875 7.7687115 0 0 0 0)
(-9.8449144 1.2050023 0 -1.0800321 9.8442643 0 0 0 0)
(-12.44738 1.7424731 0 -0.62043711 12.446383 0 0 0 0)
(-15.717342 2.5287118 0 0.10012049 15.715417 0 0 0 0)
(-19.827359 3.6867756 0 1.2026651 19.824328 0 0 0 0)
(-25.003752 5.3982457 0 2.8678644 24.997243 0 0 0 0)
(-31.507404 7.9516059 0 5.3819892 31.498757 0 0 0 0)
(-39.681235 11.762757 0 9.1654278 39.660957 0 0 0 0)
(-49.844794 17.527606 0 14.91189 49.828391 0 0 0 0)
(-62.402001 26.179893 0 23.563527 62.345646 0 0 0 0)
(-77.421555 39.392099 0 36.855323 77.443076 0 0 0 0)
(-94.746788 59.092612 0 56.56435 94.656162 0 0 0 0)
(-112.94128 88.751194 0 86.585248 113.32393 0 0 0 0)
(-128.74464 131.22758 0 129.24013 128.87552 0 0 0 0)
(-135.86639 190.42049 0 189.02538 137.4538 0 0 0 0)
(-124.0965 265.2417 0 264.31669 124.62048 0 0 0 0)
(-81.88507 349.61292 0 348.98002 83.799604 0 0 0 0)
(0.12059136 427.07644 0 425.7346 -1.8586752 0 0 0 0)
(118.39043 472.58251 0 469.34688 -121.44711 0 0 0 0)
(254.10507 468.47542 0 462.14071 -258.64319 0 0 0 0)
(-0.063031188 0.0079206123 0 0 0.063016554 0 0 0 0)
(-0.17715576 0.0084209589 0 -0.0079467539 0.17717782 0 0 0 0)
(-0.29441041 0.009730465 0 -0.048574597 0.29440074 0 0 0 0)
(-0.41196667 0.012161114 0 -0.13325533 0.41197571 0 0 0 0)
(-0.54933498 0.016565209 0 -0.25184887 0.54931916 0 0 0 0)
(-0.71405179 0.02337398 0 -0.38962591 0.71405471 0 0 0 0)
(-0.92010703 0.03340243 0 -0.53980388 0.92010629 0 0 0 0)
(-1.1760423 0.048003729 0 -0.69560022 1.1760608 0 0 0 0)
(-1.4986641 0.068551601 0 -0.85365741 1.4986474 0 0 0 0)
(-1.8971042 0.097693667 0 -1.0061638 1.8971291 0 0 0 0)
(-2.39389 0.13750572 0 -1.1540809 2.3938343 0 0 0 0)
(-2.9993849 0.19737437 0 -1.2771961 2.9993049 0 0 0 0)
(-3.772576 0.298222 0 -1.4252483 3.7726451 0 0 0 0)
(-4.8011924 0.44555197 0 -1.5089674 4.8010248 0 0 0 0)
(-6.1110172 0.64639206 0 -1.4741605 6.1107685 0 0 0 0)
(-7.757553 0.93169318 0 -1.3163735 7.7572667 0 0 0 0)
(-9.8217641 1.3429143 0 -1.0075144 9.8210274 0 0 0 0)
(-12.404812 1.9404912 0 -0.4933227 12.403769 0 0 0 0)
(-15.642383 2.8132416 0 0.30958298 15.640224 0 0 0 0)
(-19.697346 4.0958503 0 1.5308979 19.69402 0 0 0 0)
(-24.77927 5.985735 0 3.3703362 24.77247 0 0 0 0)
(-31.120998 8.7931702 0 6.1336697 31.11241 0 0 0 0)
(-39.01364 12.960332 0 10.265611 38.993841 0 0 0 0)
(-48.695581 19.209915 0 16.495201 48.681724 0 0 0 0)
(-60.408253 28.49571 0 25.771188 60.361369 0 0 0 0)
(-74.018593 42.430558 0 39.786613 74.055629 0 0 0 0)
(-88.952055 62.83119 0 60.208132 88.919595 0 0 0 0)
(-103.40959 92.561407 0 90.223908 103.79915 0 0 0 0)
(-113.72607 133.72406 0 131.60538 113.98103 0 0 0 0)
(-113.90224 188.11973 0 186.40612 115.14697 0 0 0 0)
(-95.490022 253.121 0 251.67467 95.921682 0 0 0 0)
(-50.576043 320.93425 0 319.42375 51.373895 0 0 0 0)
(24.654597 377.53626 0 375.06224 -26.235703 0 0 0 0)
(123.69117 405.14023 0 400.69241 -126.40123 0 0 0 0)
(229.69738 393.71388 0 386.78195 -232.62429 0 0 0 0)
(-0.063056251 0.0088055632 0 0.0010330498 0.063042162 0 0 0 0)
(-0.17736258 0.0093682478 0 -0.007422186 0.17739376 0 0 0 0)
(-0.29501937 0.010830951 0 -0.048919765 0.29500356 0 0 0 0)
(-0.41307117 0.013536247 0 -0.13404463 0.41308145 0 0 0 0)
(-0.55091709 0.018432068 0 -0.25318128 0.55090891 0 0 0 0)
(-0.71609131 0.026000624 0 -0.39251839 0.71609786 0 0 0 0)
(-0.92259754 0.03714821 0 -0.54463377 0.92258624 0 0 0 0)
(-1.1789721 0.053376004 0 -0.70313829 1.178971 0 0 0 0)
(-1.5019416 0.076212111 0 -0.86273947 1.5019264 0 0 0 0)
(-1.9007301 0.10858394 0 -1.0148549 1.9007559 0 0 0 0)
(-2.3976252 0.15284874 0 -1.1627744 2.3975498 0 0 0 0)
(-3.0036441 0.21938233 0 -1.2851374 3.0035673 0 0 0 0)
(-3.7765503 0.33115891 0 -1.4267315 3.7766389 0 0 0 0)
(-4.801797 0.49438166 0 -1.500302 4.8015947 0 0 0 0)
(-6.1058089 0.71702573 0 -1.45054 6.10549 0 0 0 0)
(-7.7437102 1.0331371 0 -1.2669242 7.7433858 0 0 0 0)
(-9.7941846 1.4882534 0 -0.91854202 9.7933742 0 0 0 0)
(-12.354625 2.1486687 0 -0.3460159 12.353472 0 0 0 0)
(-15.554255 3.1113646 0 0.54107148 15.551936 0 0 0 0)
(-19.545099 4.5224565 0 1.8871589 19.541668 0 0 0 0)
(-24.517798 6.5944323 0 3.9038027 24.510888 0 0 0 0)
(-30.674029 9.657052 0 6.9162765 30.665389 0 0 0 0)
(-38.247055 14.173932 0 11.39229 38.228013 0 0 0 0)
(-47.388639 20.882253 0 18.078736 47.378634 0 0 0 0)
(-58.176404 30.735239 0 27.915278 58.141359 0 0 0 0)
(-70.277968 45.243809 0 42.498421 70.330749 0 0 0 0)
(-82.76845 66.044479 0 63.335398 82.789201 0 0 0 0)
(-93.575715 95.357768 0 92.866342 93.9595 0 0 0 0)
(-98.932385 134.47339 0 132.18294 99.247026 0 0 0 0)
(-93.436671 183.51574 0 181.47595 94.363946 0 0 0 0)
(-70.574823 238.80609 0 236.83054 70.841729 0 0 0 0)
(-25.557146 292.25592 0 289.95346 25.666441 0 0 0 0)
(41.734488 332.5461 0 329.15868 -43.134908 0 0 0 0)
(123.70121 347.8648 0 342.60528 -125.84716 0 0 0 0)
(206.58927 333.29116 0 326.04817 -208.42686 0 0 0 0)
(-0.063082373 0.0097459934 0 0.0010330498 0.063068125 0 0 0 0)
(-0.17759568 0.010376509 0 -0.0070515809 0.17762002 0 0 0 0)
(-0.29565981 0.012003825 0 -0.048148249 0.29564242 0 0 0 0)
(-0.41424776 0.015001888 0 -0.13332089 0.41426287 0 0 0 0)
(-0.55262118 0.020420214 0 -0.25357167 0.552614 0 0 0 0)
(-0.71828487 0.028795873 0 -0.39485734 0.71829139 0 0 0 0)