/*--------------------------------*- C++ -*----------------------------------*\
  =========                 |
  \\      /  F ield         | OpenFOAM: The Open Source CFD Toolbox
   \\    /   O peration     | Website:  https://openfoam.org
    \\  /    A nd           | Version:  12
     \\/     M anipulation  |
\*---------------------------------------------------------------------------*/
FoamFile
{
    format      ascii;
    class       volScalarField;
    location    "3000";
    object      k;
}
// * * * * * * * * * * * * * * * * * * * * * * * * * * * * * * * * * * * * * //

dimensions      [0 2 -2 0 0 0 0];

internalField   nonuniform List<scalar> 
66675
(
0.047626283
0.048277927
0.050818031
0.055752431
0.060160429
0.063531781
0.066067614
0.06799538
0.069489332
0.070670724
0.071624207
0.072408661
0.073068122
0.073474464
0.073746166
0.073938584
0.074084567
0.074204898
0.074311773
0.074416074
0.074518198
0.074635029
0.074745595
0.074843871
0.074932445
0.075011105
0.075085032
0.075148029
0.075213587
0.075262109
0.075325473
0.075360555
0.075477474
0.076224429
0.065719509
0.047626237
0.048277405
0.050815947
0.055748373
0.060155779
0.063526958
0.066062806
0.067990654
0.069484706
0.070666197
0.071619769
0.072404304
0.073063819
0.073470171
0.073741876
0.073934296
0.074080276
0.074200599
0.074307462
0.074411743
0.074513849
0.074630637
0.07474119
0.074839454
0.074928005
0.075006678
0.075080534
0.075143675
0.075208906
0.075258084
0.075320549
0.075356116
0.075460678
0.076699543
0.07039156
0.047626078
0.0482755
0.050808439
0.055734465
0.060140207
0.063511024
0.066047061
0.067975272
0.069469714
0.070651569
0.071605463
0.072390281
0.073049961
0.073456388
0.073728147
0.073920606
0.074066607
0.074186934
0.074293783
0.07439803
0.0745001
0.074616796
0.074727319
0.074825558
0.074914056
0.074992754
0.075066463
0.075129894
0.075194482
0.07524496
0.075305524
0.075342908
0.075424995
0.07640112
0.07416008
0.047625803
0.048272174
0.050795337
0.055710294
0.060113203
0.063483429
0.066019815
0.06794867
0.069443797
0.07062629
0.071580745
0.072366058
0.073026012
0.073432583
0.073704446
0.07389698
0.074043025
0.074163363
0.074270195
0.074374387
0.074476402
0.074592949
0.074703422
0.074801619
0.074890032
0.074968764
0.07504225
0.075106094
0.075169795
0.075222052
0.075279657
0.075322324
0.075381648
0.075897472
0.075895667
0.047625407
0.04826739
0.050776483
0.055675449
0.060074243
0.063443599
0.065980481
0.067910259
0.069406371
0.070589782
0.071545045
0.072331073
0.072991393
0.073398179
0.0736702
0.073862851
0.074008963
0.074129318
0.074236126
0.074340241
0.074442176
0.074558508
0.074668909
0.074767044
0.074855339
0.074934112
0.07500731
0.075071643
0.075134371
0.075188506
0.075242923
0.075292822
0.075335571
0.075519793
0.07648738
0.047624885
0.048261119
0.050751737
0.055629522
0.060022796
0.063390948
0.065928449
0.067859425
0.069356825
0.07054144
0.071497767
0.072284734
0.072945492
0.073352572
0.073624812
0.073817621
0.073963824
0.074084204
0.074190979
0.074294989
0.074396816
0.074512858
0.074623161
0.074721213
0.074809355
0.074888167
0.074961036
0.075025861
0.075087737
0.075143316
0.075195918
0.075249261
0.075288202
0.075371836
0.07583121
0.047624234
0.048253336
0.050720979
0.055572117
0.059958323
0.063324869
0.065863086
0.067795527
0.06929452
0.070480631
0.071438281
0.072226423
0.072887675
0.07329513
0.073567654
0.073760667
0.073906985
0.074027393
0.074134124
0.074237996
0.074339683
0.074455351
0.074565528
0.074663472
0.074751426
0.074830265
0.074902793
0.074968034
0.075029339
0.075085648
0.075138312
0.075190366
0.07523712
0.075285122
0.075434931
0.04762345
0.048244026
0.05068411
0.055502846
0.059880277
0.06324474
0.065783739
0.067717902
0.06921879
0.070406692
0.07136593
0.072155488
0.072817274
0.073225193
0.07349807
0.073691334
0.073837791
0.073958229
0.074064901
0.074168598
0.074270109
0.074385306
0.074495325
0.074593132
0.074680868
0.074759706
0.074831911
0.074897437
0.074958484
0.07501498
0.07506852
0.075118832
0.075170563
0.075212303
0.075274327
0.047622529
0.048233178
0.050641059
0.055421339
0.059788112
0.063149926
0.065689731
0.067625857
0.069128941
0.07031893
0.071280027
0.072071248
0.072733592
0.073142067
0.073415374
0.073608938
0.073755557
0.073876025
0.073982619
0.074086097
0.074187392
0.07430201
0.074411838
0.074509475
0.074596963
0.07467576
0.074747685
0.074813343
0.074874369
0.074930863
0.074985044
0.075035381
0.075086267
0.075134902
0.075175584
0.04762147
0.048220793
0.050591782
0.055327248
0.059681282
0.063039778
0.065580367
0.067518677
0.069024249
0.070216623
0.071179852
0.071972989
0.072635901
0.073045031
0.073318847
0.073512762
0.073659566
0.073780061
0.073886554
0.073989763
0.074090796
0.074204718
0.074314318
0.074411747
0.074498962
0.074577664
0.074649363
0.07471502
0.074776138
0.074832665
0.074887118
0.074938054
0.074988352
0.075037286
0.075083672
0.047620268
0.048206878
0.050536266
0.055220254
0.059559245
0.062913641
0.065454933
0.06739562
0.068903964
0.070099018
0.071064654
0.071859967
0.072523445
0.072933333
0.073207744
0.073402061
0.07354907
0.073669586
0.073775951
0.073878836
0.073979556
0.07409265
0.074201984
0.074299163
0.074386084
0.074464627
0.074536151
0.074601715
0.07466293
0.074719578
0.07477411
0.074825524
0.074875753
0.074924155
0.074971494
0.047618924
0.048191452
0.050474536
0.05510007
0.059421471
0.062770851
0.065312697
0.067255924
0.068767309
0.069965333
0.070933649
0.071731401
0.072395436
0.072806191
0.073081285
0.073276056
0.07342329
0.073543817
0.073650022
0.073752521
0.073852871
0.073964996
0.074074022
0.074170905
0.074257513
0.074335831
0.074407209
0.074472639
0.074533894
0.074590709
0.074645237
0.074696945
0.074747055
0.074795236
0.074841759
0.047617434
0.048174544
0.050406653
0.054966456
0.059267444
0.062610742
0.065152915
0.067098803
0.068613478
0.069814755
0.070786024
0.071586479
0.072251059
0.072662793
0.072938663
0.07313394
0.073281415
0.073401937
0.073507946
0.073609989
0.073709908
0.073820912
0.073929588
0.074026123
0.0741124
0.074190432
0.074261663
0.074326953
0.074388168
0.074445139
0.074499608
0.07455145
0.074601299
0.07464921
0.074694805
0.047615799
0.048156193
0.050332721
0.054819219
0.059096672
0.062432653
0.064974831
0.066923454
0.068441644
0.069646443
0.070620933
0.071424357
0.072089469
0.072502298
0.072779039
0.072974872
0.073122601
0.0732431
0.07334887
0.073450384
0.073549801
0.073659522
0.073767804
0.073863937
0.073949861
0.074027556
0.074098611
0.074163764
0.074224866
0.074281931
0.074336287
0.074388093
0.074437593
0.074485005
0.074529775
0.047614019
0.048136451
0.050252888
0.054658232
0.058908692
0.062235929
0.064777685
0.066729055
0.068250952
0.069459528
0.070437498
0.071244157
0.071909792
0.072323836
0.072601545
0.072797984
0.072945975
0.073066427
0.073171911
0.073272814
0.073371656
0.073479922
0.073587765
0.073683438
0.073768982
0.073846299
0.073917126
0.073982137
0.074043066
0.074100128
0.074154309
0.074205903
0.07425497
0.074301698
0.074345633
0.047612095
0.048115382
0.05016735
0.054483435
0.058703084
0.062019932
0.064560712
0.066514774
0.068040533
0.069253117
0.070234814
0.07104497
0.071711128
0.07212651
0.072405285
0.072602375
0.072750633
0.072871009
0.072976155
0.073076362
0.073174547
0.073281182
0.073388536
0.073483688
0.073568815
0.073645725
0.073716261
0.073781103
0.073841805
0.073898752
0.073952674
0.074003901
0.074052421
0.074098354
0.074141369
0.047610029
0.048093063
0.050076353
0.054294856
0.058479472
0.061784049
0.064323157
0.066279769
0.067809495
0.069026294
0.070011948
0.070825854
0.07149255
0.071909394
0.072189333
0.072387118
0.072535645
0.07265591
0.07276066
0.07286008
0.072957518
0.073062345
0.073169154
0.073263726
0.073348386
0.073424863
0.073495043
0.073559664
0.073620083
0.073676798
0.07373036
0.073781084
0.073828933
0.073873991
0.073915997
0.047607825
0.048069582
0.049980198
0.054092615
0.058237547
0.061527698
0.064064273
0.066023199
0.06755694
0.068778122
0.069767944
0.070585843
0.071253108
0.071671539
0.07195274
0.07215126
0.07230005
0.072420168
0.072524458
0.072622999
0.072719591
0.072822437
0.072928635
0.073022561
0.073106696
0.07318271
0.073252473
0.073316803
0.073376874
0.073433239
0.073486329
0.073536427
0.073583487
0.073627597
0.073668524
0.047605487
0.048045042
0.049879237
0.053876943
0.057977071
0.061250345
0.063783338
0.065744225
0.067281958
0.06850765
0.069501823
0.070323943
0.07099183
0.071411972
0.07169453
0.071893822
0.072042868
0.072162795
0.072266561
0.072364127
0.072459766
0.072560467
0.072665966
0.072759179
0.072842721
0.072918235
0.072987525
0.073051482
0.073111126
0.073167025
0.073219528
0.073268885
0.073315054
0.073358145
0.073397936
0.047603022
0.048019555
0.049773881
0.053648193
0.057697899
0.060951511
0.063479661
0.065442023
0.066983643
0.06821392
0.069212593
0.070039139
0.070707725
0.071129703
0.07141371
0.071613806
0.071763095
0.071882786
0.071985958
0.072082456
0.072177023
0.072275438
0.072380112
0.072472539
0.072555418
0.072630385
0.072699145
0.072762642
0.072821773
0.072877092
0.072928894
0.072977406
0.073022594
0.073064599
0.073103202
0.047600436
0.04799325
0.049664594
0.053406856
0.05739999
0.060630792
0.063152597
0.065115795
0.066661097
0.067895969
0.068899248
0.0697304
0.070399789
0.070823724
0.071109268
0.071310196
0.071459713
0.07157912
0.071681628
0.071776964
0.071870332
0.07196635
0.072070008
0.072161572
0.072243725
0.07231809
0.072386262
0.072449211
0.072507737
0.072562366
0.07261336
0.07266093
0.072705058
0.072745915
0.072783282
0.04759774
0.047966263
0.049551895
0.053153573
0.057083428
0.060287875
0.062801562
0.064764778
0.066313442
0.067552843
0.068560784
0.069396684
0.070067008
0.070493017
0.070780181
0.070981965
0.071131694
0.071250768
0.071352541
0.071446628
0.071538655
0.071632214
0.071734548
0.071825183
0.071906561
0.071980269
0.072047794
0.072110107
0.072167935
0.07222177
0.072271857
0.072318397
0.072361397
0.07240105
0.072437134
0.047594944
0.047938741
0.049436358
0.052889149
0.056748443
0.059922557
0.062426049
0.064388262
0.065939834
0.067183607
0.068196203
0.069036948
0.069708365
0.070136559
0.070425419
0.070628081
0.070778003
0.070896698
0.070997666
0.071090423
0.07118096
0.07127205
0.071372557
0.071462257
0.071542838
0.07161584
0.07168266
0.071744251
0.071801289
0.071854233
0.071903323
0.071948757
0.071990567
0.072028962
0.072063718
0.04759206
0.047910843
0.049318604
0.052614568
0.05639543
0.059534769
0.062025651
0.063985608
0.065539474
0.066787355
0.067804523
0.068650156
0.069322851
0.069753333
0.070043955
0.070247515
0.070397612
0.070515885
0.070615981
0.070707337
0.070796228
0.070884897
0.070982741
0.071071687
0.071151483
0.071223736
0.071289789
0.071350576
0.071406736
0.071458701
0.071506714
0.071550974
0.071591539
0.071628625
0.071662008
0.047589105
0.04788273
0.049199301
0.052330999
0.056024971
0.059124597
0.06160008
0.063556265
0.065111632
0.066363229
0.0673848
0.068235295
0.068909471
0.069342333
0.069634774
0.069839248
0.069989506
0.070107319
0.070206485
0.070296378
0.070383469
0.070469787
0.070564115
0.070652451
0.07073146
0.070802915
0.070868138
0.070928042
0.07098324
0.071034146
0.071081011
0.071124036
0.071163307
0.071199034
0.071231
0.047586095
0.047854574
0.049079155
0.05203981
0.055637862
0.058692317
0.0611492
0.063099799
0.064655664
0.065910438
0.066936136
0.067791384
0.068467261
0.068902577
0.069196884
0.069402286
0.069552696
0.069670019
0.069768206
0.069856586
0.069941738
0.070025755
0.070116032
0.070203638
0.070281788
0.070352376
0.070416697
0.070475641
0.070529799
0.070579575
0.070625229
0.070666967
0.070704897
0.070739215
0.070769718
0.047583048
0.047826546
0.048958903
0.051742568
0.055235131
0.058238417
0.060673052
0.062615918
0.064171038
0.065428281
0.066457707
0.0673175
0.0679953
0.068433124
0.068729328
0.068935671
0.069086231
0.069203048
0.069300218
0.069387051
0.069470146
0.069551864
0.069637868
0.069724361
0.069801514
0.069871151
0.069934499
0.069992409
0.070045456
0.070094039
0.070138428
0.070178831
0.070215375
0.070248235
0.070277231
0.047579988
0.047798818
0.048839305
0.051441039
0.054818063
0.057763635
0.060171889
0.062104506
0.063657367
0.06491617
0.065948781
0.066812795
0.067492731
0.067933091
0.068231204
0.068438503
0.06858922
0.068705526
0.068801659
0.068886925
0.06896788
0.069047241
0.069129038
0.069213629
0.069289677
0.069358303
0.069420616
0.06947743
0.069529307
0.069576644
0.069619719
0.069658745
0.069693861
0.06972521
0.069752656
0.047576939
0.04777156
0.048721128
0.051137185
0.054388219
0.05726899
0.059646215
0.061565656
0.063114439
0.064373668
0.065408754
0.066276522
0.066958788
0.067401671
0.067701685
0.067909951
0.068060844
0.068176654
0.068271747
0.068355443
0.068434215
0.068511119
0.068589001
0.068670119
0.068745325
0.068812949
0.068874188
0.068929855
0.068980512
0.069026558
0.069068279
0.069105888
0.069139531
0.069169318
0.069195181
0.047573926
0.047744935
0.048605142
0.050833151
0.053947453
0.05675582
0.059096824
0.060999716
0.062542259
0.063800519
0.064837177
0.065708071
0.06639282
0.066838164
0.067140042
0.067349284
0.067500385
0.067615734
0.067709808
0.06779195
0.067868533
0.067942874
0.068017168
0.068093673
0.068167786
0.068234334
0.068294448
0.06834892
0.068398312
0.068443027
0.068483355
0.068519509
0.068551631
0.068579801
0.068604156
0.047570982
0.047719096
0.0484921
0.050531239
0.053497918
0.056225813
0.058524844
0.06040733
0.061941089
0.063196695
0.064233804
0.065107004
0.065794328
0.066242003
0.066545674
0.0667559
0.066907253
0.067022197
0.067115295
0.067195922
0.06727035
0.067342056
0.067412975
0.067484719
0.067556331
0.067621767
0.067680712
0.067733942
0.067782026
0.06782537
0.067864268
0.067898925
0.067929471
0.067956019
0.067979787
0.04756814
0.047694181
0.048382723
0.050233885
0.053042072
0.055681043
0.057931782
0.05978949
0.061311505
0.062562443
0.063598628
0.064473095
0.065163013
0.065612796
0.065918145
0.066129353
0.066281016
0.066395631
0.066487827
0.066567002
0.066639339
0.066708399
0.066776045
0.066843408
0.066910505
0.066974653
0.067032383
0.067084312
0.067131046
0.067172981
0.067210405
0.067243517
0.067272433
0.067297817
0.067321448
0.047565437
0.047670312
0.048277693
0.049943617
0.052582667
0.055123997
0.057319571
0.059147588
0.060654443
0.061898336
0.062931941
0.063806387
0.064498823
0.064950366
0.065257219
0.065469397
0.065621438
0.065735825
0.065827216
0.06590503
0.065975374
0.066041837
0.066106287
0.066169619
0.066231994
0.066292338
0.066348933
0.066399465
0.066444822
0.066485307
0.0665212
0.066552698
0.066580088
0.066605257
0.066628749
0.047562917
0.047647581
0.04817763
0.049663008
0.052122722
0.054557598
0.056690612
0.05848347
0.059971266
0.061205335
0.062234392
0.063107244
0.063802025
0.064254809
0.064562919
0.064776033
0.064928525
0.065042803
0.065133515
0.065210086
0.065278564
0.065342538
0.065403898
0.065463469
0.065521413
0.06557722
0.06563006
0.065678796
0.065722883
0.06576182
0.06579606
0.065825905
0.065852686
0.065877646
0.065901
0.047560627
0.047626053
0.048083084
0.049394617
0.051665485
0.05398522
0.056047811
0.057799492
0.05926382
0.060484857
0.061507048
0.062376415
0.063073272
0.063526549
0.063835575
0.064049563
0.064202577
0.064316878
0.064407061
0.064482537
0.064549304
0.064610942
0.064669369
0.064725422
0.06477929
0.064830701
0.064879183
0.064924133
0.064965122
0.065001812
0.065034131
0.065062712
0.065089206
0.065113992
0.065137208
0.047558623
0.047605754
0.047994523
0.04914093
0.051214367
0.053410683
0.055394615
0.05709857
0.058534501
0.059738838
0.060751468
0.061615112
0.062313676
0.062766412
0.063075897
0.063290653
0.063444247
0.063558709
0.06364853
0.063723084
0.063788323
0.063847819
0.06390352
0.063956313
0.064006453
0.064053815
0.064098116
0.064139007
0.064176193
0.064209445
0.064238803
0.064265884
0.064291231
0.064315157
0.064337693
0.04755697
0.047586659
0.04791233
0.048903552
0.050773674
0.052838243
0.054735024
0.056384226
0.057786316
0.058969809
0.05996978
0.060825087
0.061524956
0.06197571
0.062285053
0.062500408
0.062654612
0.062769366
0.062859001
0.062932825
0.062996745
0.063054324
0.063107547
0.063157368
0.063204131
0.063247833
0.063288322
0.063325394
0.063358852
0.063388612
0.063415658
0.063441001
0.06346496
0.063487792
0.063509429
0.047555746
0.04756868
0.047836802
0.048683628
0.050347973
0.052272536
0.054073591
0.05566062
0.057022937
0.05818096
0.059164751
0.060008715
0.060709616
0.061156335
0.06146476
0.061680457
0.061835253
0.061950409
0.06204003
0.062113327
0.062176153
0.062232066
0.062283089
0.062330253
0.062373998
0.062414434
0.062451518
0.062485141
0.062515195
0.062542134
0.062567341
0.062591131
0.062613826
0.062635638
0.062656414
0.047555047
0.047551645
0.047768164
0.048481998
0.049941733
0.051718504
0.053415393
0.054932563
0.056248742
0.057376208
0.058339868
0.059169089
0.059870083
0.060310768
0.060617375
0.060833046
0.060988344
0.061103968
0.061193729
0.0612667
0.061328664
0.061383175
0.061432296
0.061477135
0.061518229
0.061555791
0.061589869
0.061620437
0.0616476
0.061672745
0.061696401
0.061718899
0.061740553
0.061761526
0.06178158
0.047554955
0.047535374
0.047706535
0.048299164
0.049559157
0.051181269
0.052765969
0.054205504
0.055468843
0.056560242
0.057499399
0.05831012
0.05900814
0.059442026
0.059745945
0.05996112
0.060116741
0.060232839
0.060322857
0.06039568
0.060457011
0.060510387
0.060557907
0.060600758
0.060639565
0.060674636
0.060706095
0.060734037
0.060759362
0.060783077
0.06080551
0.06082701
0.060847876
0.060868218
0.06088772
0.047555424
0.047520051
0.047651674
0.048135252
0.049204008
0.050665977
0.052131222
0.053485478
0.054689076
0.055738552
0.056648444
0.057436606
0.058127012
0.05855377
0.058854237
0.059068387
0.059224064
0.059340565
0.0594309
0.059503722
0.059564624
0.059617115
0.05966333
0.059704519
0.059741392
0.059774333
0.059803551
0.059829524
0.059853654
0.059876302
0.059897837
0.059918624
0.059938946
0.059958855
0.059977967
0.047556385
0.04750586
0.047603248
0.047990024
0.048879448
0.050177607
0.051517273
0.05277902
0.053915958
0.054917426
0.055792962
0.05655424
0.057232075
0.057650598
0.057946824
0.058159372
0.058314757
0.05843151
0.058522154
0.058595066
0.058655703
0.058707533
0.05875271
0.058792541
0.058827805
0.058858952
0.058886366
0.05891131
0.058934516
0.058956373
0.058977273
0.058997583
0.059017561
0.059037201
0.059056053
0.047557757
0.047492991
0.047560831
0.0478629
0.048587887
0.049720738
0.050930273
0.052093013
0.053156592
0.054103897
0.054939756
0.055669633
0.056329671
0.056738227
0.057029225
0.057239497
0.05739415
0.057510913
0.057601778
0.057674803
0.057735283
0.057786627
0.057830992
0.057869728
0.05790367
0.057933345
0.057959708
0.057983958
0.058006534
0.058027863
0.058048362
0.058068398
0.058088196
0.058107693
0.058126385
0.047559439
0.047481642
0.047523901
0.047753005
0.048330881
0.049299306
0.050376179
0.051434494
0.052418515
0.053305643
0.054096411
0.054790278
0.05542709
0.055823579
0.056108055
0.056315186
0.056468536
0.056584954
0.056675851
0.056748927
0.056809285
0.056860253
0.056903975
0.056941825
0.056974687
0.057003278
0.057029184
0.057052982
0.057075156
0.057096166
0.057116449
0.057136366
0.057156103
0.057175541
0.057194137
0.047561321
0.047472021
0.047491807
0.047659237
0.048109083
0.048916348
0.049860496
0.050810396
0.051709476
0.052530808
0.053271169
0.053924461
0.054532506
0.054914754
0.055191091
0.05539396
0.055545247
0.055660816
0.05575143
0.055824387
0.055884564
0.055935183
0.055978356
0.056015464
0.056047466
0.056075685
0.056101267
0.056124767
0.056146694
0.056167533
0.056187728
0.056207627
0.056227372
0.056246792
0.056265314
0.047563286
0.047464363
0.047463723
0.047580389
0.047921486
0.048574617
0.049388017
0.05022725
0.051037154
0.05178776
0.052472718
0.053081096
0.053654835
0.054020935
0.054287246
0.054484462
0.054632706
0.054746741
0.054836604
0.054909138
0.054968961
0.055019158
0.055061784
0.055098222
0.055129678
0.055157756
0.055183161
0.055206491
0.055228286
0.055249055
0.055269243
0.055289175
0.05530895
0.055328351
0.055346785
0.04756522
0.04745893
0.047438574
0.047515317
0.047765335
0.048276565
0.048962547
0.049690844
0.050408813
0.051084763
0.051709913
0.05226947
0.052803517
0.053152272
0.053406454
0.053596398
0.053740405
0.053852019
0.053940485
0.054012138
0.054071294
0.054120874
0.054162852
0.054198649
0.054229934
0.054257844
0.054283088
0.054306281
0.054327985
0.054348716
0.054368915
0.054388874
0.054408649
0.054427982
0.054446276
0.047567026
0.047455452
0.047416693
0.047461948
0.047637371
0.048022916
0.048586592
0.049205883
0.049830919
0.050429587
0.050991402
0.051498893
0.051988216
0.052319987
0.052559557
0.052740349
0.052878696
0.052986788
0.053073019
0.053143161
0.053201187
0.05324982
0.053290938
0.053326205
0.053357239
0.053384912
0.053409942
0.05343296
0.053454541
0.053475201
0.053495365
0.053515288
0.053534978
0.053554148
0.053572209
0.047568629
0.047453603
0.047398385
0.047418277
0.047534096
0.047812744
0.048261108
0.048775674
0.049308746
0.04982908
0.050325193
0.050778253
0.051218459
0.05153617
0.051757647
0.051927073
0.05205814
0.05216144
0.052244439
0.052312293
0.05236859
0.052415823
0.05245582
0.052490515
0.052521062
0.052548313
0.052572984
0.052595707
0.052617058
0.052637546
0.052657564
0.052677324
0.052696794
0.052715663
0.052733361
0.047569979
0.047453016
0.047383961
0.047382224
0.047452085
0.047643712
0.04798533
0.048401891
0.048846021
0.049288723
0.049718179
0.050115513
0.05050332
0.050809439
0.051009828
0.051165992
0.051288331
0.05138562
0.05146438
0.051529124
0.051583029
0.051628363
0.051667094
0.051700828
0.051730571
0.051757138
0.05178123
0.051803471
0.051824425
0.051844576
0.051864281
0.051883704
0.051902773
0.051921166
0.051938341
0.047571054
0.047453318
0.047373691
0.047351592
0.047388294
0.04751186
0.047757289
0.048084457
0.048444636
0.048812241
0.049175678
0.049517171
0.049851134
0.050138785
0.050321658
0.050464185
0.050576995
0.050667394
0.050741076
0.050801977
0.050852876
0.0508959
0.050933
0.050965376
0.050993969
0.051019558
0.051042816
0.051064348
0.051084696
0.051104308
0.051123494
0.051142371
0.051160833
0.051178552
0.051195027
0.047571856
0.047454174
0.047366884
0.047326749
0.047338521
0.047410739
0.047575121
0.047821555
0.048104483
0.048401299
0.04870102
0.048987797
0.04926879
0.049526134
0.049698611
0.049827381
0.049930168
0.050013094
0.05008105
0.050137501
0.050184899
0.050225339
0.050260324
0.050290929
0.05031802
0.050342325
0.050364481
0.050385065
0.050404581
0.050423434
0.050441879
0.050459986
0.050477623
0.050494469
0.050510067
0.047572405
0.047455307
0.047362783
0.047308027
0.047298855
0.047334594
0.047434951
0.047609566
0.047823441
0.04805535
0.048295267
0.048529714
0.048760388
0.048980347
0.049146116
0.049260401
0.049352347
0.049427284
0.049488996
0.049540495
0.049584069
0.049621482
0.049653944
0.049682416
0.049707685
0.049730424
0.04975123
0.049770635
0.049789099
0.049806972
0.049824455
0.049841574
0.049858178
0.049873962
0.049888519
0.047572739
0.047456501
0.047360657
0.047295085
0.047267144
0.047277794
0.047331493
0.047443159
0.047597534
0.04777167
0.047957097
0.048142814
0.048327068
0.048507133
0.048659813
0.048765192
0.048845881
0.048912316
0.048967466
0.049013722
0.049053154
0.049087141
0.049116728
0.049142758
0.049165936
0.049186872
0.049206109
0.049224131
0.049241342
0.049258032
0.049274348
0.04929028
0.049305665
0.049320221
0.049333595
0.047572903
0.047457606
0.047359872
0.047286669
0.047243685
0.047234213
0.04725659
0.047318371
0.047421342
0.047545579
0.047682902
0.047824557
0.04796708
0.048108759
0.048238081
0.048338096
0.048410622
0.048468365
0.048516731
0.048557668
0.048592733
0.04862306
0.048649535
0.048672893
0.04869376
0.048712687
0.048730163
0.048746616
0.048762387
0.048777709
0.048792676
0.048807248
0.048821259
0.048834456
0.048846539
0.047572946
0.047458531
0.047359911
0.047281587
0.047227732
0.047200785
0.047202595
0.047229212
0.047288021
0.047370826
0.047467096
0.047570172
0.047676124
0.047783163
0.047885478
0.047973662
0.048041627
0.048093632
0.048135258
0.048170642
0.048201247
0.048227813
0.048251042
0.048271576
0.04828999
0.048306778
0.04832237
0.048337129
0.048351336
0.048365161
0.048378655
0.048391753
0.048404294
0.048416056
0.048426789
0.047572912
0.04745924
0.047360379
0.047278827
0.047217431
0.047177654
0.047161651
0.047166997
0.04719238
0.047240191
0.047302612
0.04737305
0.047447832
0.047524977
0.047601212
0.047671402
0.047731332
0.047779427
0.047817751
0.047849127
0.047875546
0.047898255
0.047918067
0.047935619
0.047951506
0.047966135
0.047979835
0.04799289
0.048005508
0.048017802
0.048029784
0.048041374
0.048052421
0.048062737
0.048072121
0.047572841
0.047459734
0.047361
0.047277577
0.047211179
0.047162507
0.047132918
0.047121759
0.047126923
0.04714646
0.047181499
0.047225299
0.047274315
0.047326584
0.047379898
0.047431315
0.047478115
0.047518714
0.047553242
0.047581814
0.047605689
0.047626093
0.047643832
0.047659461
0.047673454
0.047686263
0.047698249
0.047709676
0.04772072
0.047731464
0.047741904
0.047751959
0.047761499
0.047770369
0.047778412
0.04757276
0.047460044
0.0473616
0.047277218
0.047207676
0.047153082
0.04711412
0.047090257
0.047080598
0.047083233
0.047095662
0.047118382
0.047146803
0.047179082
0.047213443
0.047248017
0.047281032
0.047311223
0.04733818
0.04736175
0.047382228
0.047400069
0.047415711
0.047429535
0.047441853
0.047453041
0.047463429
0.047473264
0.047482705
0.047491828
0.047500636
0.047509071
0.047517036
0.047524417
0.047531097
0.047572688
0.047460213
0.047362089
0.047277314
0.047205921
0.047147561
0.047102383
0.047069808
0.047049212
0.047038776
0.047038757
0.047044156
0.047056291
0.047073137
0.047092545
0.04711325
0.04713401
0.047153892
0.047172405
0.047189253
0.047204384
0.047217898
0.047229963
0.047240781
0.047250567
0.047259539
0.047267896
0.0472758
0.047283362
0.047290636
0.047297627
0.047304296
0.047310574
0.04731638
0.047321632
0.047572634
0.047460287
0.047362437
0.047277583
0.047205187
0.047144554
0.047095425
0.04705711
0.047029077
0.047009783
0.046999127
0.046994527
0.046995564
0.046999767
0.0470078
0.047017748
0.047028558
0.047039619
0.047050462
0.047060751
0.047070316
0.047079101
0.047087126
0.04709446
0.047101203
0.047107467
0.047113362
0.04711898
0.047124383
0.0471296
0.047134627
0.04713943
0.047143958
0.047148151
0.047151949
0.047572601
0.047460305
0.047362656
0.047277864
0.047204981
0.047143056
0.047091525
0.047049581
0.047016665
0.046991502
0.046973674
0.046961597
0.046954563
0.046950976
0.046951052
0.046952485
0.046955575
0.046959787
0.046964442
0.046969203
0.046973896
0.046978413
0.046982699
0.046986743
0.046990566
0.046994207
0.046997712
0.047001119
0.047004452
0.047007717
0.047010899
0.047013969
0.047016884
0.047019598
0.047022067
0.047572584
0.0474603
0.047362776
0.047278085
0.047204999
0.047142385
0.047089456
0.047045309
0.047009299
0.046980351
0.046957847
0.046940688
0.046928121
0.046919059
0.046913099
0.046909227
0.046907007
0.046906067
0.046906098
0.046906485
0.046907293
0.046908385
0.046909615
0.04691093
0.046912303
0.046913727
0.046915202
0.04691673
0.046918308
0.046919925
0.046921558
0.046923178
0.04692475
0.046926236
0.046927601
0.047572581
0.047460291
0.04736283
0.047278227
0.047205073
0.047142114
0.047088398
0.047042959
0.047005047
0.046973712
0.046948235
0.046927739
0.046911495
0.04689869
0.046888766
0.04688109
0.046875188
0.046870685
0.04686729
0.046864706
0.046862758
0.046861307
0.046860243
0.04685949
0.046858994
0.046858722
0.046858655
0.046858729
0.046858936
0.04685928
0.046859722
0.04686023
0.046860773
0.046861319
0.04686184
0.047572585
0.047460288
0.04736285
0.047278302
0.047205129
0.047141997
0.047087844
0.047041654
0.047002594
0.046969774
0.046942432
0.046919791
0.046901159
0.046885861
0.046873342
0.046863096
0.046854697
0.046847798
0.046842123
0.046837439
0.046833559
0.04683034
0.046827666
0.046825446
0.046823612
0.04682211
0.046820895
0.04681993
0.046819182
0.04681862
0.046818214
0.046817932
0.046817745
0.046817626
0.046817548
0.047572593
0.047460293
0.047362857
0.047278331
0.047205143
0.047141915
0.047087506
0.047040868
0.047001106
0.046967354
0.046938836
0.04691482
0.046894647
0.046877714
0.046863502
0.046851559
0.046841503
0.046833013
0.046825831
0.046819739
0.046814559
0.046810146
0.046806382
0.046803168
0.046800426
0.046798092
0.04679611
0.046794436
0.046793028
0.046791851
0.04679087
0.046790054
0.046789376
0.046788807
0.046788327
0.047572602
0.047460306
0.047362861
0.047278335
0.047205122
0.04714182
0.047087239
0.047040308
0.047000094
0.046965733
0.046936448
0.046911531
0.046890349
0.046872339
0.046857013
0.046843953
0.046832802
0.046823263
0.046815087
0.046808066
0.046802027
0.046796825
0.046792339
0.046788467
0.046785126
0.046782242
0.046779757
0.046777617
0.046775778
0.0467742
0.046772847
0.046771687
0.046770692
0.046769836
0.046769096
0.047572612
0.047460323
0.047362868
0.047278328
0.047205078
0.047141703
0.047086984
0.047039834
0.046999296
0.046964507
0.046934691
0.046909155
0.046887286
0.046868545
0.046852467
0.046838656
0.046826773
0.046816533
0.046807696
0.046800059
0.046793451
0.046787727
0.046782765
0.04677846
0.046774724
0.046771482
0.046768669
0.046766229
0.046764113
0.046762279
0.046760691
0.046759314
0.046758121
0.046757085
0.046756185
0.047572621
0.047460344
0.04736288
0.047278317
0.047205022
0.047141571
0.047086725
0.047039389
0.046998593
0.046963474
0.04693326
0.046907269
0.046884903
0.04686564
0.046849033
0.046834697
0.046822307
0.046811584
0.046802295
0.046794238
0.046787244
0.046781168
0.046775887
0.046771293
0.046767295
0.046763816
0.046760788
0.046758152
0.046755858
0.046753861
0.046752123
0.04675061
0.046749294
0.046748147
0.046747147
0.047572629
0.047460365
0.047362894
0.047278307
0.047204962
0.04714143
0.047086462
0.047038957
0.046997938
0.046962544
0.046932009
0.04690566
0.046882912
0.046863255
0.046846254
0.046831533
0.046818774
0.046807704
0.046798091
0.046789737
0.046782471
0.046776149
0.046770644
0.04676585
0.046761672
0.046758031
0.046754857
0.04675209
0.046749677
0.046747573
0.046745739
0.046744139
0.046742744
0.046741526
0.046740464
0.047572638
0.047460386
0.047362908
0.047278297
0.047204902
0.047141289
0.047086203
0.047038538
0.046997319
0.046961685
0.046930878
0.046904234
0.046881177
0.046861208
0.046843898
0.04682888
0.046815839
0.046804506