/*--------------------------------*- C++ -*----------------------------------*\
  =========                 |
  \\      /  F ield         | OpenFOAM: The Open Source CFD Toolbox
   \\    /   O peration     | Website:  https://openfoam.org
    \\  /    A nd           | Version:  12
     \\/     M anipulation  |
\*---------------------------------------------------------------------------*/
FoamFile
{
    format      ascii;
    class       volScalarField;
    location    "3000";
    object      p;
}
// * * * * * * * * * * * * * * * * * * * * * * * * * * * * * * * * * * * * * //

dimensions      [0 2 -2 0 0 0 0];

internalField   nonuniform List<scalar> 
66675
(
85001.536
85001.538
85001.546
85001.555
85001.567
85001.581
85001.597
85001.614
85001.634
85001.656
85001.679
85001.705
85001.734
85001.768
85001.804
85001.844
85001.887
85001.933
85001.984
85002.039
85002.1
85002.167
85002.241
85002.323
85002.416
85002.519
85002.639
85002.775
85002.941
85003.13
85003.39
85003.674
85004.217
85004.682
85006.706
85001.536
85001.538
85001.546
85001.555
85001.567
85001.581
85001.597
85001.614
85001.634
85001.656
85001.679
85001.705
85001.734
85001.768
85001.804
85001.844
85001.887
85001.933
85001.984
85002.039
85002.1
85002.167
85002.241
85002.323
85002.415
85002.519
85002.639
85002.774
85002.939
85003.128
85003.384
85003.664
85004.176
85004.609
85006.069
85001.536
85001.538
85001.546
85001.555
85001.567
85001.581
85001.597
85001.614
85001.634
85001.656
85001.679
85001.705
85001.734
85001.768
85001.804
85001.844
85001.887
85001.933
85001.984
85002.039
85002.1
85002.167
85002.241
85002.323
85002.415
85002.518
85002.638
85002.773
85002.936
85003.123
85003.374
85003.645
85004.113
85004.488
85005.423
85001.536
85001.538
85001.546
85001.555
85001.567
85001.581
85001.597
85001.614
85001.634
85001.656
85001.679
85001.705
85001.734
85001.768
85001.804
85001.844
85001.887
85001.933
85001.984
85002.039
85002.1
85002.167
85002.241
85002.322
85002.414
85002.517
85002.636
85002.77
85002.932
85003.115
85003.358
85003.617
85004.028
85004.343
85004.916
85001.536
85001.538
85001.546
85001.555
85001.567
85001.581
85001.597
85001.614
85001.634
85001.656
85001.679
85001.705
85001.733
85001.768
85001.804
85001.844
85001.887
85001.933
85001.984
85002.039
85002.1
85002.166
85002.24
85002.322
85002.413
85002.516
85002.634
85002.766
85002.925
85003.104
85003.335
85003.578
85003.929
85004.185
85004.523
85001.536
85001.538
85001.546
85001.555
85001.567
85001.581
85001.597
85001.614
85001.634
85001.656
85001.679
85001.705
85001.733
85001.767
85001.804
85001.844
85001.887
85001.933
85001.984
85002.039
85002.099
85002.166
85002.24
85002.321
85002.412
85002.514
85002.63
85002.761
85002.916
85003.089
85003.306
85003.53
85003.822
85004.02
85004.201
85001.536
85001.538
85001.546
85001.555
85001.567
85001.581
85001.597
85001.614
85001.634
85001.655
85001.679
85001.705
85001.733
85001.767
85001.804
85001.844
85001.887
85001.933
85001.984
85002.039
85002.099
85002.166
85002.239
85002.32
85002.41
85002.511
85002.626
85002.755
85002.905
85003.071
85003.272
85003.473
85003.709
85003.855
85003.932
85001.536
85001.538
85001.546
85001.555
85001.567
85001.581
85001.597
85001.614
85001.634
85001.655
85001.679
85001.705
85001.733
85001.767
85001.804
85001.844
85001.886
85001.933
85001.983
85002.038
85002.099
85002.165
85002.238
85002.318
85002.408
85002.508
85002.621
85002.747
85002.891
85003.049
85003.232
85003.409
85003.595
85003.696
85003.706
85001.536
85001.538
85001.546
85001.555
85001.567
85001.581
85001.597
85001.614
85001.634
85001.655
85001.679
85001.705
85001.733
85001.767
85001.804
85001.844
85001.886
85001.933
85001.983
85002.038
85002.098
85002.164
85002.237
85002.317
85002.406
85002.504
85002.615
85002.737
85002.875
85003.022
85003.187
85003.34
85003.482
85003.545
85003.515
85001.536
85001.538
85001.546
85001.555
85001.567
85001.581
85001.597
85001.614
85001.634
85001.655
85001.679
85001.705
85001.733
85001.767
85001.804
85001.843
85001.886
85001.932
85001.983
85002.038
85002.098
85002.163
85002.235
85002.315
85002.402
85002.499
85002.607
85002.725
85002.856
85002.992
85003.137
85003.266
85003.371
85003.403
85003.351
85001.536
85001.538
85001.546
85001.555
85001.567
85001.581
85001.597
85001.614
85001.634
85001.655
85001.679
85001.704
85001.733
85001.767
85001.804
85001.843
85001.886
85001.932
85001.982
85002.037
85002.097
85002.162
85002.234
85002.312
85002.399
85002.493
85002.598
85002.711
85002.834
85002.959
85003.085
85003.19
85003.264
85003.273
85003.209
85001.536
85001.538
85001.546
85001.555
85001.567
85001.581
85001.596
85001.614
85001.634
85001.655
85001.679
85001.704
85001.733
85001.767
85001.804
85001.843
85001.886
85001.932
85001.982
85002.036
85002.096
85002.161
85002.232
85002.309
85002.394
85002.486
85002.587
85002.695
85002.809
85002.921
85003.029
85003.113
85003.161
85003.153
85003.085
85001.536
85001.538
85001.546
85001.555
85001.567
85001.581
85001.596
85001.614
85001.634
85001.655
85001.679
85001.704
85001.733
85001.767
85001.804
85001.843
85001.886
85001.932
85001.981
85002.036
85002.095
85002.159
85002.229
85002.305
85002.389
85002.478
85002.575
85002.676
85002.781
85002.881
85002.971
85003.035
85003.064
85003.044
85002.976
85001.536
85001.538
85001.546
85001.555
85001.567
85001.581
85001.596
85001.614
85001.634
85001.655
85001.679
85001.704
85001.733
85001.767
85001.804
85001.843
85001.885
85001.931
85001.981
85002.035
85002.093
85002.157
85002.226
85002.301
85002.382
85002.469
85002.561
85002.656
85002.751
85002.838
85002.912
85002.959
85002.972
85002.944
85002.878
85001.536
85001.538
85001.546
85001.555
85001.567
85001.581
85001.596
85001.614
85001.634
85001.655
85001.679
85001.704
85001.733
85001.767
85001.803
85001.843
85001.885
85001.931
85001.98
85002.034
85002.092
85002.155
85002.223
85002.296
85002.375
85002.458
85002.545
85002.633
85002.718
85002.793
85002.852
85002.885
85002.886
85002.853
85002.791
85001.536
85001.538
85001.546
85001.555
85001.567
85001.581
85001.596
85001.614
85001.634
85001.655
85001.679
85001.704
85001.733
85001.767
85001.803
85001.842
85001.885
85001.93
85001.979
85002.033
85002.09
85002.152
85002.219
85002.291
85002.367
85002.446
85002.528
85002.608
85002.684
85002.747
85002.792
85002.813
85002.805
85002.769
85002.712
85001.536
85001.538
85001.546
85001.555
85001.567
85001.581
85001.596
85001.614
85001.634
85001.655
85001.679
85001.704
85001.732
85001.766
85001.803
85001.842
85001.884
85001.929
85001.978
85002.031
85002.088
85002.149
85002.215
85002.284
85002.358
85002.433
85002.509
85002.582
85002.647
85002.699
85002.733
85002.743
85002.729
85002.693
85002.641
85001.536
85001.538
85001.546
85001.555
85001.567
85001.581
85001.596
85001.614
85001.634
85001.655
85001.679
85001.704
85001.732
85001.766
85001.803
85001.842
85001.883
85001.929
85001.977
85002.029
85002.086
85002.146
85002.21
85002.277
85002.347
85002.418
85002.488
85002.553
85002.609
85002.651
85002.675
85002.677
85002.659
85002.623
85002.576
85001.536
85001.538
85001.546
85001.555
85001.567
85001.581
85001.596
85001.614
85001.634
85001.655
85001.679
85001.704
85001.732
85001.766
85001.802
85001.841
85001.883
85001.928
85001.976
85002.027
85002.083
85002.142
85002.204
85002.269
85002.335
85002.402
85002.465
85002.523
85002.57
85002.603
85002.618
85002.614
85002.593
85002.559
85002.516
85001.536
85001.538
85001.546
85001.555
85001.567
85001.581
85001.596
85001.614
85001.634
85001.655
85001.679
85001.704
85001.732
85001.766
85001.802
85001.841
85001.882
85001.927
85001.974
85002.025
85002.08
85002.137
85002.197
85002.26
85002.322
85002.384
85002.441
85002.491
85002.53
85002.554
85002.563
85002.554
85002.532
85002.499
85002.46
85001.536
85001.538
85001.546
85001.555
85001.567
85001.58
85001.596
85001.614
85001.633
85001.655
85001.678
85001.703
85001.732
85001.765
85001.802
85001.84
85001.881
85001.925
85001.972
85002.023
85002.076
85002.132
85002.19
85002.249
85002.308
85002.365
85002.416
85002.458
85002.49
85002.507
85002.509
85002.498
85002.475
85002.444
85002.409
85001.536
85001.538
85001.546
85001.555
85001.567
85001.58
85001.596
85001.614
85001.633
85001.655
85001.678
85001.703
85001.731
85001.765
85001.801
85001.839
85001.88
85001.924
85001.97
85002.02
85002.072
85002.126
85002.182
85002.238
85002.293
85002.344
85002.389
85002.425
85002.449
85002.46
85002.458
85002.445
85002.422
85002.393
85002.361
85001.536
85001.538
85001.546
85001.555
85001.567
85001.58
85001.596
85001.614
85001.633
85001.655
85001.678
85001.703
85001.731
85001.765
85001.801
85001.838
85001.879
85001.922
85001.968
85002.016
85002.067
85002.12
85002.173
85002.226
85002.276
85002.322
85002.361
85002.39
85002.409
85002.415
85002.409
85002.394
85002.372
85002.345
85002.317
85001.536
85001.538
85001.546
85001.555
85001.567
85001.58
85001.596
85001.614
85001.633
85001.654
85001.678
85001.703
85001.731
85001.764
85001.8
85001.838
85001.878
85001.92
85001.965
85002.013
85002.062
85002.112
85002.163
85002.212
85002.258
85002.299
85002.332
85002.356
85002.369
85002.371
85002.363
85002.347
85002.325
85002.301
85002.275
85001.536
85001.538
85001.546
85001.555
85001.567
85001.58
85001.596
85001.614
85001.633
85001.654
85001.678
85001.702
85001.73
85001.764
85001.799
85001.836
85001.876
85001.918
85001.962
85002.009
85002.056
85002.104
85002.152
85002.198
85002.239
85002.275
85002.303
85002.321
85002.329
85002.328
85002.318
85002.302
85002.281
85002.259
85002.235
85001.536
85001.538
85001.546
85001.555
85001.567
85001.58
85001.596
85001.613
85001.633
85001.654
85001.677
85001.702
85001.73
85001.763
85001.798
85001.835
85001.875
85001.916
85001.959
85002.004
85002.05
85002.095
85002.14
85002.182
85002.219
85002.25
85002.273
85002.286
85002.291
85002.287
85002.276
85002.259
85002.24
85002.219
85002.198
85001.536
85001.538
85001.546
85001.555
85001.567
85001.58
85001.596
85001.613
85001.633
85001.654
85001.677
85001.702
85001.73
85001.762
85001.797
85001.834
85001.873
85001.913
85001.955
85001.999
85002.043
85002.086
85002.127
85002.165
85002.198
85002.224
85002.242
85002.252
85002.253
85002.247
85002.235
85002.219
85002.201
85002.182
85002.163
85001.536
85001.538
85001.546
85001.555
85001.567
85001.58
85001.596
85001.613
85001.633
85001.654
85001.677
85001.701
85001.729
85001.762
85001.796
85001.832
85001.87
85001.91
85001.951
85001.993
85002.035
85002.075
85002.114
85002.148
85002.176
85002.198
85002.212
85002.218
85002.217
85002.209
85002.197
85002.182
85002.165
85002.147
85002.13
85001.536
85001.538
85001.546
85001.555
85001.567
85001.58
85001.596
85001.613
85001.632
85001.653
85001.676
85001.701
85001.728
85001.761
85001.795
85001.831
85001.868
85001.907
85001.946
85001.986
85002.026
85002.064
85002.099
85002.129
85002.154
85002.171
85002.182
85002.185
85002.181
85002.173
85002.16
85002.146
85002.13
85002.114
85002.099
85001.536
85001.538
85001.546
85001.555
85001.567
85001.58
85001.596
85001.613
85001.632
85001.653
85001.676
85001.7
85001.728
85001.76
85001.793
85001.828
85001.865
85001.903
85001.941
85001.979
85002.017
85002.052
85002.083
85002.11
85002.131
85002.145
85002.152
85002.152
85002.147
85002.138
85002.126
85002.112
85002.097
85002.083
85002.069
85001.536
85001.538
85001.546
85001.555
85001.567
85001.58
85001.595
85001.613
85001.632
85001.653
85001.676
85001.7
85001.727
85001.758
85001.792
85001.826
85001.862
85001.899
85001.935
85001.972
85002.007
85002.039
85002.067
85002.09
85002.107
85002.118
85002.122
85002.12
85002.114
85002.105
85002.093
85002.08
85002.066
85002.053
85002.041
85001.536
85001.538
85001.546
85001.555
85001.566
85001.58
85001.595
85001.613
85001.632
85001.652
85001.675
85001.699
85001.726
85001.757
85001.79
85001.824
85001.858
85001.894
85001.929
85001.963
85001.996
85002.025
85002.05
85002.069
85002.083
85002.091
85002.093
85002.09
85002.083
85002.073
85002.061
85002.049
85002.037
85002.025
85002.013
85001.536
85001.538
85001.546
85001.555
85001.566
85001.58
85001.595
85001.612
85001.631
85001.652
85001.675
85001.698
85001.725
85001.756
85001.788
85001.821
85001.855
85001.889
85001.922
85001.954
85001.984
85002.01
85002.032
85002.048
85002.059
85002.064
85002.064
85002.06
85002.052
85002.043
85002.032
85002.02
85002.009
85001.998
85001.988
85001.536
85001.538
85001.546
85001.555
85001.566
85001.58
85001.595
85001.612
85001.631
85001.652
85001.674
85001.697
85001.724
85001.754
85001.785
85001.818
85001.85
85001.883
85001.915
85001.944
85001.972
85001.995
85002.014
85002.027
85002.035
85002.038
85002.036
85002.031
85002.023
85002.014
85002.003
85001.993
85001.982
85001.972
85001.963
85001.536
85001.538
85001.546
85001.555
85001.566
85001.579
85001.595
85001.612
85001.631
85001.651
85001.673
85001.696
85001.722
85001.752
85001.783
85001.814
85001.846
85001.877
85001.906
85001.934
85001.959
85001.979
85001.995
85002.006
85002.011
85002.012
85002.009
85002.003
85001.995
85001.986
85001.976
85001.966
85001.957
85001.948
85001.939
85001.536
85001.538
85001.546
85001.555
85001.566
85001.579
85001.595
85001.612
85001.63
85001.65
85001.672
85001.695
85001.721
85001.75
85001.78
85001.81
85001.84
85001.87
85001.898
85001.923
85001.945
85001.963
85001.976
85001.984
85001.987
85001.987
85001.983
85001.977
85001.969
85001.96
85001.95
85001.941
85001.932
85001.924
85001.916
85001.536
85001.538
85001.546
85001.554
85001.566
85001.579
85001.594
85001.611
85001.63
85001.65
85001.672
85001.694
85001.719
85001.747
85001.777
85001.806
85001.835
85001.862
85001.888
85001.911
85001.931
85001.946
85001.956
85001.962
85001.964
85001.962
85001.958
85001.951
85001.943
85001.935
85001.926
85001.917
85001.909
85001.902
85001.895
85001.536
85001.538
85001.546
85001.554
85001.566
85001.579
85001.594
85001.611
85001.629
85001.649
85001.671
85001.693
85001.717
85001.745
85001.773
85001.801
85001.829
85001.855
85001.878
85001.899
85001.916
85001.928
85001.937
85001.941
85001.941
85001.938
85001.933
85001.926
85001.919
85001.91
85001.902
85001.895
85001.887
85001.88
85001.874
85001.536
85001.538
85001.546
85001.554
85001.566
85001.579
85001.594
85001.61
85001.629
85001.648
85001.669
85001.691
85001.715
85001.742
85001.769
85001.796
85001.822
85001.846
85001.868
85001.886
85001.9
85001.911
85001.917
85001.919
85001.918
85001.915
85001.909
85001.903
85001.895
85001.888
85001.88
85001.873
85001.866
85001.86
85001.854
85001.536
85001.538
85001.545
85001.554
85001.566
85001.579
85001.593
85001.61
85001.628
85001.647
85001.668
85001.69
85001.713
85001.739
85001.765
85001.791
85001.815
85001.837
85001.856
85001.872
85001.885
85001.893
85001.897
85001.898
85001.896
85001.892
85001.886
85001.88
85001.873
85001.866
85001.859
85001.852
85001.846
85001.84
85001.835
85001.536
85001.538
85001.545
85001.554
85001.565
85001.578
85001.593
85001.609
85001.627
85001.646
85001.667
85001.688
85001.71
85001.735
85001.76
85001.785
85001.807
85001.827
85001.845
85001.859
85001.869
85001.875
85001.878
85001.878
85001.875
85001.87
85001.865
85001.858
85001.851
85001.845
85001.838
85001.832
85001.826
85001.821
85001.816
85001.536
85001.538
85001.545
85001.554
85001.565
85001.578
85001.593
85001.609
85001.627
85001.645
85001.665
85001.686
85001.707
85001.731
85001.755
85001.778
85001.799
85001.817
85001.833
85001.844
85001.853
85001.857
85001.859
85001.857
85001.854
85001.849
85001.843
85001.837
85001.831
85001.824
85001.818
85001.813
85001.808
85001.803
85001.798
85001.535
85001.538
85001.545
85001.554
85001.565
85001.578
85001.592
85001.608
85001.626
85001.644
85001.664
85001.684
85001.704
85001.727
85001.75
85001.771
85001.79
85001.807
85001.82
85001.83
85001.836
85001.839
85001.84
85001.838
85001.834
85001.829
85001.823
85001.817
85001.811
85001.805
85001.8
85001.794
85001.79
85001.785
85001.781
85001.535
85001.538
85001.545
85001.554
85001.565
85001.577
85001.592
85001.608
85001.625
85001.643
85001.662
85001.681
85001.701
85001.722
85001.744
85001.764
85001.781
85001.796
85001.807
85001.815
85001.82
85001.822
85001.821
85001.818
85001.814
85001.809
85001.804
85001.798
85001.792
85001.787
85001.782
85001.777
85001.773
85001.769
85001.765
85001.535
85001.537
85001.545
85001.553
85001.564
85001.577
85001.591
85001.607
85001.624
85001.641
85001.66
85001.679
85001.697
85001.718
85001.738
85001.756
85001.771
85001.784
85001.794
85001.8
85001.804
85001.804
85001.803
85001.8
85001.795
85001.79
85001.785
85001.78
85001.774
85001.769
85001.764
85001.76
85001.756
85001.752
85001.749
85001.535
85001.537
85001.545
85001.553
85001.564
85001.577
85001.591
85001.606
85001.623
85001.64
85001.658
85001.676
85001.694
85001.712
85001.731
85001.747
85001.761
85001.772
85001.78
85001.785
85001.787
85001.787
85001.785
85001.782
85001.777
85001.772
85001.767
85001.762
85001.757
85001.752
85001.748
85001.744
85001.74
85001.737
85001.734
85001.535
85001.537
85001.544
85001.553
85001.564
85001.576
85001.59
85001.605
85001.621
85001.638
85001.655
85001.673
85001.689
85001.707
85001.724
85001.739
85001.751
85001.76
85001.767
85001.77
85001.771
85001.77
85001.768
85001.764
85001.76
85001.755
85001.75
85001.745
85001.74
85001.736
85001.732
85001.728
85001.725
85001.722
85001.719
85001.535
85001.537
85001.544
85001.553
85001.563
85001.575
85001.589
85001.604
85001.62
85001.636
85001.653
85001.669
85001.685
85001.701
85001.716
85001.73
85001.74
85001.748
85001.753
85001.755
85001.756
85001.754
85001.751
85001.747
85001.743
85001.738
85001.733
85001.729
85001.725
85001.721
85001.717
85001.714
85001.71
85001.708
85001.705
85001.535
85001.537
85001.544
85001.552
85001.563
85001.575
85001.588
85001.603
85001.618
85001.634
85001.65
85001.666
85001.68
85001.695
85001.708
85001.72
85001.729
85001.735
85001.739
85001.741
85001.74
85001.738
85001.735
85001.731
85001.727
85001.722
85001.718
85001.713
85001.709
85001.706
85001.702
85001.699
85001.696
85001.694
85001.692
85001.534
85001.536
85001.544
85001.552
85001.562
85001.574
85001.587
85001.602
85001.616
85001.632
85001.647
85001.662
85001.675
85001.688
85001.7
85001.71
85001.718
85001.723
85001.726
85001.726
85001.725
85001.722
85001.719
85001.715
85001.711
85001.707
85001.702
85001.699
85001.695
85001.691
85001.688
85001.685
85001.683
85001.681
85001.679
85001.534
85001.536
85001.543
85001.551
85001.562
85001.573
85001.586
85001.6
85001.614
85001.629
85001.643
85001.657
85001.67
85001.681
85001.691
85001.7
85001.706
85001.71
85001.712
85001.712
85001.71
85001.707
85001.704
85001.7
85001.696
85001.692
85001.688
85001.684
85001.681
85001.678
85001.675
85001.672
85001.67
85001.668
85001.666
85001.534
85001.536
85001.543
85001.551
85001.561
85001.573
85001.585
85001.599
85001.612
85001.626
85001.64
85001.653
85001.664
85001.674
85001.683
85001.69
85001.695
85001.698
85001.698
85001.698
85001.695
85001.692
85001.689
85001.685
85001.681
85001.677
85001.674
85001.67
85001.667
85001.664
85001.662
85001.659
85001.657
85001.655
85001.654
85001.533
85001.536
85001.542
85001.55
85001.56
85001.572
85001.584
85001.597
85001.61
85001.623
85001.636
85001.648
85001.658
85001.667
85001.674
85001.679
85001.683
85001.685
85001.685
85001.684
85001.681
85001.678
85001.675
85001.671
85001.667
85001.664
85001.66
85001.657
85001.654
85001.652
85001.649
85001.647
85001.645
85001.643
85001.642
85001.533
85001.535
85001.542
85001.55
85001.56
85001.57
85001.582
85001.595
85001.608
85001.62
85001.632
85001.642
85001.652
85001.659
85001.665
85001.669
85001.672
85001.673
85001.672
85001.67
85001.668
85001.664
85001.661
85001.657
85001.654
85001.651
85001.647
85001.644
85001.642
85001.639
85001.637
85001.635
85001.633
85001.632
85001.63
85001.533
85001.535
85001.541
85001.549
85001.559
85001.569
85001.581
85001.593
85001.605
85001.616
85001.627
85001.637
85001.645
85001.651
85001.656
85001.659
85001.66
85001.66
85001.659
85001.657
85001.654
85001.651
85001.648
85001.644
85001.641
85001.638
85001.635
85001.632
85001.63
85001.627
85001.625
85001.623
85001.622
85001.62
85001.619
85001.532
85001.534
85001.541
85001.548
85001.558
85001.568
85001.579
85001.59
85001.602
85001.613
85001.622
85001.631
85001.638
85001.643
85001.647
85001.649
85001.649
85001.648
85001.646
85001.644
85001.641
85001.638
85001.635
85001.632
85001.628
85001.626
85001.623
85001.62
85001.618
85001.616
85001.614
85001.612
85001.611
85001.609
85001.608
85001.532
85001.534
85001.54
85001.547
85001.557
85001.566
85001.577
85001.588
85001.598
85001.608
85001.617
85001.625
85001.631
85001.635
85001.638
85001.639
85001.638
85001.637
85001.634
85001.632
85001.629
85001.625
85001.622
85001.619
85001.616
85001.614
85001.611
85001.609
85001.607
85001.605
85001.603
85001.601
85001.6
85001.599
85001.598
85001.531
85001.533
85001.539
85001.547
85001.555
85001.565
85001.575
85001.585
85001.595
85001.604
85001.612
85001.619
85001.624
85001.627
85001.629
85001.629
85001.628
85001.626
85001.623
85001.62
85001.617
85001.614
85001.611
85001.608
85001.605
85001.602
85001.6
85001.598
85001.596
85001.594
85001.592
85001.591
85001.59
85001.588
85001.587
85001.53
85001.532
85001.538
85001.545
85001.554
85001.563
85001.573
85001.582
85001.591
85001.599
85001.606
85001.612
85001.616
85001.618
85001.619
85001.619
85001.618
85001.615
85001.613
85001.61
85001.607
85001.603
85001.6
85001.597
85001.595
85001.592
85001.59
85001.588
85001.586
85001.584
85001.583
85001.581
85001.58
85001.579
85001.578
85001.53
85001.532
85001.537
85001.544
85001.552
85001.561
85001.57
85001.579
85001.587
85001.595
85001.601
85001.605
85001.608
85001.61
85001.61
85001.609
85001.608
85001.605
85001.602
85001.599
85001.596
85001.593
85001.59
85001.588
85001.585
85001.583
85001.581
85001.579
85001.577
85001.575
85001.574
85001.573
85001.572
85001.571
85001.57
85001.529
85001.531
85001.536
85001.543
85001.551
85001.559
85001.567
85001.575
85001.583
85001.589
85001.595
85001.598
85001.601
85001.601
85001.601
85001.6
85001.598
85001.595
85001.592
85001.589
85001.586
85001.583
85001.581
85001.578
85001.576
85001.574
85001.572
85001.57
85001.568
85001.567
85001.566
85001.564
85001.563
85001.563
85001.562
85001.528
85001.53
85001.535
85001.541
85001.549
85001.557
85001.564
85001.572
85001.578
85001.584
85001.588
85001.591
85001.593
85001.593
85001.592
85001.59
85001.588
85001.585
85001.583
85001.58
85001.577
85001.574
85001.571
85001.569
85001.567
85001.565
85001.563
85001.561
85001.56
85001.558
85001.557
85001.556
85001.555
85001.555
85001.554
85001.527
85001.529
85001.534
85001.54
85001.547
85001.554
85001.561
85001.568
85001.574
85001.578
85001.582
85001.584
85001.585
85001.584
85001.583
85001.581
85001.579
85001.576
85001.573
85001.57
85001.568
85001.565
85001.562
85001.56
85001.558
85001.556
85001.555
85001.553
85001.552
85001.55
85001.549
85001.548
85001.548
85001.547
85001.546
85001.526
85001.527
85001.532
85001.538
85001.545
85001.551
85001.558
85001.564
85001.569
85001.572
85001.575
85001.576
85001.577
85001.576
85001.574
85001.572
85001.57
85001.567
85001.564
85001.561
85001.559
85001.556
85001.554
85001.552
85001.55
85001.548
85001.546
85001.545
85001.544
85001.543
85001.542
85001.541
85001.54
85001.539
85001.539
85001.525
85001.526
85001.531
85001.536
85001.542
85001.548
85001.554
85001.559
85001.563
85001.566
85001.568
85001.569
85001.569
85001.567
85001.566
85001.563
85001.561
85001.558
85001.555
85001.553
85001.55
85001.548
85001.546
85001.544
85001.542
85001.54
85001.539
85001.537
85001.536
85001.535
85001.534
85001.533
85001.533
85001.532
85001.531
85001.523
85001.525
85001.529
85001.534
85001.539
85001.545
85001.55
85001.554
85001.558
85001.56
85001.561
85001.562
85001.561
85001.559
85001.557
85001.555
85001.552
85001.549
85001.547
85001.544
85001.542
85001.54
85001.538
85001.536
85001.534
85001.532
85001.531
85001.53
85001.529
85001.528
85001.527
85001.526
85001.526
85001.525
85001.525
85001.522
85001.523
85001.527
85001.532
85001.537
85001.541
85001.546
85001.55
85001.552
85001.554
85001.554
85001.554
85001.553
85001.551
85001.549
85001.546
85001.544
85001.541
85001.539
85001.536
85001.534
85001.532
85001.53
85001.528
85001.526
85001.525
85001.524
85001.523
85001.522
85001.521
85001.52
85001.519
85001.519
85001.518
85001.518
85001.52
85001.521
85001.525
85001.529
85001.533
85001.538
85001.541
85001.544
85001.546
85001.547
85001.547
85001.547
85001.545
85001.543
85001.541
85001.538
85001.536
85001.533
85001.531
85001.528
85001.526
85001.524
85001.522
85001.521
85001.519
85001.518
85001.517
85001.516
85001.515
85001.514
85001.513
85001.513
85001.512
85001.512
85001.511
85001.518
85001.519
85001.522
85001.526
85001.53
85001.534
85001.537
85001.539
85001.54
85001.541
85001.54
85001.539
85001.537
85001.535
85001.533
85001.53
85001.528
85001.525
85001.523
85001.521
85001.519
85001.517
85001.515
85001.514
85001.512
85001.511
85001.51
85001.509
85001.508
85001.507
85001.507
85001.506
85001.506
85001.505
85001.505
85001.516
85001.517
85001.52
85001.523
85001.527
85001.53
85001.532
85001.534
85001.534
85001.534
85001.533
85001.532
85001.53
85001.528
85001.525
85001.523
85001.52
85001.518
85001.516
85001.513
85001.511
85001.51
85001.508
85001.507
85001.505
85001.504
85001.503
85001.502
85001.502
85001.501
85001.5
85001.5
85001.499
85001.499
85001.499
85001.514
85001.515
85001.517
85001.52
85001.523
85001.525
85001.527
85001.528
85001.528
85001.528
85001.526
85001.525
85001.522
85001.52
85001.518
85001.515
85001.513
85001.51
85001.508
85001.506
85001.505
85001.503
85001.501
85001.5
85001.499
85001.498
85001.497
85001.496
85001.495
85001.495
85001.494
85001.494
85001.493
85001.493
85001.492
85001.511
85001.512
85001.514
85001.517
85001.519
85001.521
85001.522
85001.522
85001.522
85001.521
85001.519
85001.517
85001.515
85001.513
85001.51
85001.508
85001.506
85001.503
85001.501
85001.5
85001.498
85001.496
85001.495
85001.494
85001.493
85001.492
85001.491
85001.49
85001.489
85001.489
85001.488
85001.488
85001.487
85001.487
85001.487
85001.508
85001.509
85001.511
85001.513
85001.515
85001.516
85001.517
85001.517
85001.516
85001.514
85001.513
85001.51
85001.508
85001.506
85001.503
85001.501
85001.499
85001.497
85001.495
85001.493
85001.491
85001.49
85001.489
85001.487
85001.486
85001.485
85001.485
85001.484
85001.483
85001.483
85001.482
85001.482
85001.481
85001.481
85001.481
85001.505
85001.506
85001.507
85001.509
85001.51
85001.511
85001.511
85001.511
85001.509
85001.508
85001.506
85001.504
85001.501
85001.499
85001.496
85001.494
85001.492
85001.49
85001.488
85001.486
85001.485
85001.484
85001.482
85001.481
85001.48
85001.48
85001.479
85001.478
85001.478
85001.477
85001.477
85001.476
85001.476
85001.476
85001.475
85001.502
85001.503
85001.504
85001.505
85001.506
85001.506
85001.506
85001.505
85001.503
85001.501
85001.499
85001.497
85001.494
85001.492
85001.49
85001.487
85001.485
85001.484
85001.482
85001.48
85001.479
85001.478
85001.476
85001.475
85001.475
85001.474
85001.473
85001.472
85001.472
85001.471
85001.471
85001.471
85001.47
85001.47
85001.47
85001.499
85001.499
85001.5
85001.5
85001.501
85001.501
85001.5
85001.499
85001.497
85001.495
85001.493
85001.49
85001.488
85001.485
85001.483
85001.481
85001.479
85001.477
85001.476
85001.474
85001.473
85001.472
85001.471
85001.47
85001.469
85001.468
85001.468
85001.467
85001.466
85001.466
85001.466
85001.465
85001.465
85001.465
85001.465
85001.495
85001.495
85001.496
85001.496
85001.496
85001.495
85001.494
85001.492
85001.491
85001.488
85001.486
85001.484
85001.481
85001.479
85001.477
85001.475
85001.473
85001.471
85001.47
85001.468
85001.467
85001.466
85001.465
85001.464
85001.463
85001.463
85001.462
85001.462
85001.461
85001.461
85001.46
85001.46
85001.46
85001.46
85001.459
85001.491
85001.491
85001.491
85001.491
85001.491
85001.49
85001.488
85001.486
85001.484
85001.482
85001.48
85001.477
85001.475
85001.473
85001.471
85001.469
85001.467
85001.465
85001.464
85001.463
85001.461
85001.46
85001.46
85001.459
85001.458
85001.457
85001.457
85001.456
85001.456
85001.456
85001.455
85001.455
85001.455
85001.454
85001.454
85001.487
85001.487
85001.487
85001.486
85001.485
85001.484
85001.482
85001.48
85001.478
85001.476
85001.473
85001.471
85001.469
85001.467
85001.465
85001.463
85001.461
85001.46
85001.458
85001.457
85001.456
85001.455
85001.454
85001.453
85001.453
85001.452
85001.452
85001.451
85001.451
85001.45
85001.45
85001.45
85001.45
85001.449
85001.449
85001.482
85001.482
85001.482
85001.481
85001.48
85001.478
85001.476
85001.474
85001.472
85001.47
85001.467
85001.465
85001.463
85001.461
85001.459
85001.457
85001.455
85001.454
85001.453
85001.452
85001.451
85001.45
85001.449
85001.448
85001.448
85001.447
85001.447
85001.446
85001.446
85001.445
85001.445
85001.445
85001.445
85001.445
85001.444
85001.478
85001.477
85001.477
85001.476
85001.474
85001.472
85001.47
85001.468
85001.466
85001.463
85001.461
85001.459
85001.457
85001.455
85001.453
85001.451
85001.45
85001.449
85001.447
85001.446
85001.445
85001.445
85001.444
85001.443
85001.443
85001.442
85001.442
85001.441
85001.441
85001.441
85001.44
85001.44
85001.44
85001.44
85001.44
85001.473
85001.472
85001.471
85001.47
85001.469
85001.467
85001.464
85001.462
85001.46
85001.457
85001.455
85001.453
85001.451
85001.449
85001.447
85001.446
85001.444
85001.443
85001.442
85001.441
85001.44
85001.439
85001.439
85001.438
85001.438
85001.437
85001.437
85001.436
85001.436
85001.436
85001.436
85001.435
85001.435
85001.435
85001.435
85001.467
85001.467
85001.466
85001.465
85001.463
85001.461
85001.458
85001.456
85001.454
85001.452
85001.449
85001.447
85001.445
85001.444
85001.442
85001.44
85001.439
85001.438
85001.437
85001.436
85001.435
85001.434
85001.434
85001.433
85001.433
85001.432
85001.432
85001.432
85001.431
85001.431
85001.431
85001.431
85001.43
85001.43
85001.43
85001.462
85001.462
85001.46
85001.459
85001.457
85001.455
85001.453
85001.45
85001.448
85001.446
85001.444
85001.442
85001.44
85001.438
85001.437
85001.435
85001.434
85001.433
85001.432
85001.431
85001.43
85001.43
85001.429
85001.428
85001.428
85001.428
85001.427
85001.427
85001.427
85001.426
85001.426
85001.426
85001.426
85001.426
85001.426
85001.457
85001.456
85001.455
85001.453
85001.451
85001.449
85001.447
85001.444
85001.442
85001.44
85001.438
85001.436
85001.434
85001.433
85001.431
85001.43
85001.429
85001.428
85001.427
85001.426
85001.425
85001.425
85001.424