/*--------------------------------*- C++ -*----------------------------------*\
  =========                 |
  \\      /  F ield         | OpenFOAM: The Open Source CFD Toolbox
   \\    /   O peration     | Website:  https://openfoam.org
    \\  /    A nd           | Version:  12
     \\/     M anipulation  |
\*---------------------------------------------------------------------------*/
FoamFile
{
    format      ascii;
    class       volVectorField;
    location    "3000";
    object      wallShearStress;
}
// * * * * * * * * * * * * * * * * * * * * * * * * * * * * * * * * * * * * * //

dimensions      [0 2 -2 0 0 0 0];

internalField   uniform (0 0 0);

boundaryField
{
    lowerWall
    {
        type            calculated;
        value           nonuniform List<vector> 
600
(
(-3.8932302 -0.90304485 0)
(-2.4238897 -0.36395176 0)
(-1.675826 -0.1233064 0)
(-1.2827677 -0.046968343 0)
(-1.0904546 -0.023716812 0)
(-0.96767413 -0.01639089 0)
(-0.8771404 -0.012350432 0)
(-0.80738958 -0.0096126418 0)
(-0.75155922 -0.0077519468 0)
(-0.70547511 -0.0064253749 0)
(-0.66658408 -0.0054184539 0)
(-0.63321959 -0.0046412675 0)
(-0.60416533 -0.0040304594 0)
(-0.57855201 -0.0035367601 0)
(-0.5557526 -0.0031314286 0)
(-0.53528242 -0.0027954581 0)
(-0.51676145 -0.0025131338 0)
(-0.49989413 -0.0022728891 0)
(-0.48444503 -0.002066474 0)
(-0.47022477 -0.0018875908 0)
(-0.45707561 -0.0017319177 0)
(-0.44486561 -0.0015952215 0)
(-0.43348621 -0.001474368 0)
(-0.42284571 -0.0013669243 0)
(-0.41286632 -0.0012709245 0)
(-0.40348113 -0.0011848203 0)
(-0.39463186 -0.0011073057 0)
(-0.38626804 -0.0010371708 0)
(-0.378346 -0.00097348155 0)
(-0.37082743 -0.000915439 0)
(-0.36367857 -0.00086237571 0)
(-0.35686968 -0.00081372594 0)
(-0.35037399 -0.00076906176 0)
(-0.34416744 -0.00072791423 0)
(-0.33822875 -0.0006899102 0)
(-0.33253881 -0.00065472355 0)
(-0.32708039 -0.00062208028 0)
(-0.32183793 -0.00059172755 0)
(-0.31679734 -0.00056346093 0)
(-0.31194574 -0.00053710374 0)
(-0.30727124 -0.00051248274 0)
(-0.30276312 -0.00048943987 0)
(-0.29841148 -0.00046783781 0)
(-0.29420736 -0.00044756311 0)
(-0.29014245 -0.00042850833 0)
(-0.28620908 -0.00041057 0)
(-0.28240017 -0.00039366722 0)
(-0.2787092 -0.00037771443 0)
(-0.27513009 -0.00036263655 0)
(-0.27165745 -0.00034835244 0)
(-0.26828612 -0.00033482135 0)
(-0.26501146 -0.00032196989 0)
(-0.26182904 -0.00030978626 0)
(-0.25873453 -0.00029821722 0)
(-0.25572397 -0.0002872085 0)
(-0.25279387 -0.00027672688 0)
(-0.24994072 -0.00026676575 0)
(-0.24716097 -0.00025730337 0)
(-0.24445142 -0.00024829424 0)
(-0.24180894 -0.00023971098 0)
(-0.23923088 -0.00023150501 0)
(-0.2367147 -0.00022368432 0)
(-0.23425776 -0.00021622353 0)
(-0.23185764 -0.000209103 0)
(-0.22951205 -0.00020229414 0)
(-0.22721889 -0.00019577327 0)
(-0.22497632 -0.0001895156 0)
(-0.22278255 -0.00018352209 0)
(-0.22063575 -0.00017778292 0)
(-0.21853421 -0.00017227226 0)
(-0.21647641 -0.00016698546 0)
(-0.21446074 -0.00016190721 0)
(-0.21248582 -0.0001570223 0)
(-0.21055037 -0.00015232113 0)
(-0.20865313 -0.00014780229 0)
(-0.2067928 -0.00014345879 0)
(-0.20496813 -0.00013928367 0)
(-0.20317795 -0.00013526796 0)
(-0.20142109 -0.00013140379 0)
(-0.19969657 -0.00012767287 0)
(-0.19800346 -0.00012406938 0)
(-0.19634091 -0.00012058907 0)
(-0.19470807 -0.00011723101 0)
(-0.19310401 -0.00011399495 0)
(-0.1915279 -0.00011086986 0)
(-0.18997889 -0.00010785755 0)
(-0.18845622 -0.00010494306 0)
(-0.18695918 -0.00010212696 0)
(-0.18548709 -9.9397435e-05 0)
(-0.18403935 -9.6753801e-05 0)
(-0.18261541 -9.4194932e-05 0)
(-0.18121458 -9.1721526e-05 0)
(-0.17983627 -8.9328617e-05 0)
(-0.17847984 -8.7014764e-05 0)
(-0.17714473 -8.4774115e-05 0)
(-0.17583044 -8.2602445e-05 0)
(-0.1745364 -8.0497592e-05 0)
(-0.17326224 -7.8447082e-05 0)
(-0.17200758 -7.6457714e-05 0)
(-0.17077193 -7.4528567e-05 0)
(-0.16955486 -7.2658352e-05 0)
(-0.16835591 -7.0845988e-05 0)
(-0.16717466 -6.9087751e-05 0)
(-0.16601067 -6.7382949e-05 0)
(-0.16486357 -6.5726595e-05 0)
(-0.16373298 -6.4117131e-05 0)
(-0.1626186 -6.2549223e-05 0)
(-0.16152014 -6.1021673e-05 0)
(-0.16043736 -5.9532646e-05 0)
(-0.15936995 -5.8086839e-05 0)
(-0.15831758 -5.6681284e-05 0)
(-0.15727995 -5.5315517e-05 0)
(-0.15625674 -5.3988769e-05 0)
(-0.15524762 -5.2699188e-05 0)
(-0.15425236 -5.1443022e-05 0)
(-0.15327067 -5.0219843e-05 0)
(-0.15230237 -4.9025281e-05 0)
(-0.15134726 -4.7858793e-05 0)
(-0.15040522 -4.6719256e-05 0)
(-0.14947593 -4.5612404e-05 0)
(-0.14855923 -4.4524551e-05 0)
(-0.14765518 -4.3453818e-05 0)
(-0.14676357 -4.2420332e-05 0)
(-0.14588393 -4.1422575e-05 0)
(-0.14501592 -4.0458125e-05 0)
(-0.14415923 -3.9519745e-05 0)
(-0.14331367 -3.8605253e-05 0)
(-0.14247911 -3.7709288e-05 0)
(-0.14165544 -3.6832851e-05 0)
(-0.14084256 -3.597592e-05 0)
(-0.14004028 -3.5140606e-05 0)
(-0.13924849 -3.4324738e-05 0)
(-0.13846701 -3.3528876e-05 0)
(-0.13769571 -3.2751255e-05 0)
(-0.13693445 -3.1992341e-05 0)
(-0.13618309 -3.1250225e-05 0)
(-0.13544152 -3.0524711e-05 0)
(-0.13470964 -2.9813622e-05 0)
(-0.1339874 -2.9115848e-05 0)
(-0.13327476 -2.8432114e-05 0)
(-0.13257158 -2.7764592e-05 0)
(-0.13187775 -2.7113053e-05 0)
(-0.13119314 -2.6477022e-05 0)
(-0.13051763 -2.5855708e-05 0)
(-0.1298511 -2.524897e-05 0)
(-0.12919343 -2.4656229e-05 0)
(-0.12854453 -2.4076603e-05 0)
(-0.1279043 -2.3509624e-05 0)
(-0.12727267 -2.2951837e-05 0)
(-0.12664963 -2.2405296e-05 0)
(-0.12603513 -2.1869084e-05 0)
(-0.12542906 -2.1346562e-05 0)
(-0.12483135 -2.0834714e-05 0)
(-0.12424186 -2.0335967e-05 0)
(-0.12366053 -1.9847098e-05 0)
(-0.12308726 -1.9370397e-05 0)
(-0.12252196 -1.8902889e-05 0)
(-0.12196457 -1.8446497e-05 0)
(-0.121415 -1.7998177e-05 0)
(-0.12087322 -1.7559053e-05 0)
(-0.1203392 -1.7127098e-05 0)
(-0.11981292 -1.6703471e-05 0)
(-0.11929433 -1.6288706e-05 0)
(-0.11878338 -1.5883135e-05 0)
(-0.11827995 -1.5486651e-05 0)
(-0.11778404 -1.5098832e-05 0)
(-0.11729547 -1.4719826e-05 0)
(-0.11681431 -1.4349445e-05 0)
(-0.11634026 -1.3989105e-05 0)
(-0.11587348 -1.3624327e-05 0)
(-0.11541433 -1.3263629e-05 0)
(-0.11496246 -1.2924229e-05 0)
(-0.11451737 -1.2598728e-05 0)
(-0.11407897 -1.2281445e-05 0)
(-0.1136472 -1.1969647e-05 0)
(-0.11322206 -1.1663546e-05 0)
(-0.11280355 -1.1362198e-05 0)
(-0.11239165 -1.1066565e-05 0)
(-0.11198635 -1.0775406e-05 0)
(-0.11158766 -1.0490425e-05 0)
(-0.11119555 -1.0209509e-05 0)
(-0.11081001 -9.9339244e-06 0)
(-0.11043103 -9.6633089e-06 0)
(-0.11005858 -9.3976486e-06 0)
(-0.10969265 -9.1361102e-06 0)
(-0.10933326 -8.8783395e-06 0)
(-0.10898047 -8.6239624e-06 0)
(-0.10863426 -8.3743952e-06 0)
(-0.10829461 -8.1302888e-06 0)
(-0.10796146 -7.8917434e-06 0)
(-0.10763477 -7.6582922e-06 0)
(-0.10731446 -7.4299763e-06 0)
(-0.10700053 -7.2075232e-06 0)
(-0.10669287 -6.9880282e-06 0)
(-0.10639148 -6.7758354e-06 0)
(-0.10609626 -6.5662881e-06 0)
(-0.10580722 -6.3624245e-06 0)
(-0.10552433 -6.1596012e-06 0)
(-0.10524766 -5.9621563e-06 0)
(-0.10497711 -5.7680783e-06 0)
(-0.10471265 -5.5807159e-06 0)
(-0.10445414 -5.3961586e-06 0)
(-0.10420162 -5.2169778e-06 0)
(-0.10395506 -5.039986e-06 0)
(-0.10371427 -4.8710141e-06 0)
(-0.10347923 -4.706127e-06 0)
(-0.10324976 -4.5463672e-06 0)
(-0.10302582 -4.3893462e-06 0)
(-0.1028074 -4.2333105e-06 0)
(-0.10259468 -4.0802149e-06 0)
(-0.10238748 -3.9312641e-06 0)
(-0.10218586 -3.7860823e-06 0)
(-0.10198957 -3.6470784e-06 0)
(-0.10179862 -3.5115121e-06 0)
(-0.10161273 -3.3810067e-06 0)
(-0.10143199 -3.2570413e-06 0)
(-0.10125595 -3.1326329e-06 0)
(-0.10108485 -3.0194557e-06 0)
(-0.1009183 -2.9004074e-06 0)
(-0.10075655 -2.7979938e-06 0)
(-0.10059867 -2.6935761e-06 0)
(-0.1004451 -2.5942461e-06 0)
(-0.10029592 -2.4921039e-06 0)
(-0.10015026 -2.4209589e-06 0)
(-0.10000715 -2.3491501e-06 0)
(-0.099866367 -2.2946803e-06 0)
(-0.099727605 -2.2334725e-06 0)
(-0.099590621 -2.1873649e-06 0)
(-0.099455179 -2.1418425e-06 0)
(-0.099320897 -2.1026238e-06 0)
(-0.099187549 -2.0682338e-06 0)
(-0.099054795 -2.0422347e-06 0)
(-0.098922361 -2.0168352e-06 0)
(-0.098790008 -1.9950011e-06 0)
(-0.098657624 -1.975196e-06 0)
(-0.09852505 -1.9612386e-06 0)
(-0.098392059 -1.9479267e-06 0)
(-0.098258429 -1.9386317e-06 0)
(-0.098124032 -1.9315675e-06 0)
(-0.097988638 -1.9266044e-06 0)
(-0.097852126 -1.924368e-06 0)
(-0.097714288 -1.9252684e-06 0)
(-0.09757499 -1.9226531e-06 0)
(-0.097434128 -1.9283075e-06 0)
(-0.097291712 -1.9264277e-06 0)
(-0.097147719 -1.9310372e-06 0)
(-0.097002184 -1.9293119e-06 0)
(-0.096855038 -1.9330807e-06 0)
(-0.096706352 -1.9312612e-06 0)
(-0.096556095 -1.9339556e-06 0)
(-0.096404374 -1.9308472e-06 0)
(-0.096251189 -1.9299074e-06 0)
(-0.09609666 -1.9262596e-06 0)
(-0.095940844 -1.9223017e-06 0)
(-0.095783863 -1.9151311e-06 0)
(-0.095625946 -1.9066093e-06 0)
(-0.095467194 -1.896339e-06 0)
(-0.095307685 -1.8859358e-06 0)
(-0.095147469 -1.8741093e-06 0)
(-0.094986645 -1.8620224e-06 0)
(-0.094825238 -1.8487115e-06 0)
(-0.094663369 -1.8353905e-06 0)
(-0.094501064 -1.8201136e-06 0)
(-0.094338431 -1.8052711e-06 0)
(-0.09417557 -1.7874485e-06 0)
(-0.094012672 -1.7698137e-06 0)
(-0.09384976 -1.7506327e-06 0)
(-0.093687011 -1.7324656e-06 0)
(-0.093524197 -1.7127362e-06 0)
(-0.09336175 -1.6952579e-06 0)
(-0.093198946 -1.6763973e-06 0)
(-0.093036787 -1.6538279e-06 0)
(-0.092875014 -1.6353366e-06 0)
(-0.092712895 -1.6232e-06 0)
(-0.092550371 -1.6084532e-06 0)
(-0.092387796 -1.592361e-06 0)
(-0.092225243 -1.5744772e-06 0)
(-0.092062973 -1.5553743e-06 0)
(-0.091901044 -1.5354272e-06 0)
(-0.091739605 -1.5154203e-06 0)
(-0.091578572 -1.4956774e-06 0)
(-0.091418016 -1.4758606e-06 0)
(-0.091258008 -1.454883e-06 0)
(-0.091098658 -1.4333896e-06 0)
(-0.090940098 -1.41158e-06 0)
(-0.090782275 -1.3908288e-06 0)
(-0.09062512 -1.3711612e-06 0)
(-0.09046862 -1.3502145e-06 0)
(-0.090312869 -1.3312206e-06 0)
(-0.090157716 -1.3112363e-06 0)
(-0.090003276 -1.2932995e-06 0)
(-0.089849431 -1.2728249e-06 0)
(-0.089696371 -1.2545654e-06 0)
(-0.089544059 -1.2342602e-06 0)
(-0.089392573 -1.2160576e-06 0)
(-0.089241822 -1.1969277e-06 0)
(-0.089091747 -1.1797789e-06 0)
(-0.088942393 -1.1621582e-06 0)
(-0.088793671 -1.1454756e-06 0)
(-0.088645547 -1.1287373e-06 0)
(-0.088498089 -1.1115123e-06 0)
(-0.088351481 -1.0938811e-06 0)
(-0.088205597 -1.0774781e-06 0)
(-0.088060407 -1.0611435e-06 0)
(-0.087915907 -1.0458596e-06 0)
(-0.087771939 -1.03133e-06 0)
(-0.08762847 -1.0171506e-06 0)
(-0.087485519 -1.0035179e-06 0)
(-0.087343076 -9.8830692e-07 0)
(-0.087201209 -9.7519518e-07 0)
(-0.087060007 -9.6045279e-07 0)
(-0.086919166 -9.4883263e-07 0)
(-0.086778748 -9.3544159e-07 0)
(-0.0866387 -9.2453221e-07 0)
(-0.086498916 -9.1229701e-07 0)
(-0.086359432 -9.0214416e-07 0)
(-0.086220177 -8.8999534e-07 0)
(-0.086081227 -8.7999194e-07 0)
(-0.085942562 -8.6820418e-07 0)
(-0.085804143 -8.5876437e-07 0)
(-0.085665799 -8.4901163e-07 0)
(-0.085527674 -8.3990995e-07 0)
(-0.08538942 -8.3145185e-07 0)
(-0.08525125 -8.2278921e-07 0)
(-0.085113029 -8.1350064e-07 0)
(-0.084975117 -8.0476578e-07 0)
(-0.084836996 -7.9577939e-07 0)
(-0.084699367 -7.8686905e-07 0)
(-0.084561412 -7.8105425e-07 0)
(-0.084422953 -7.7639554e-07 0)
(-0.084283852 -7.7127017e-07 0)
(-0.08414443 -7.6414783e-07 0)
(-0.084004955 -7.566578e-07 0)
(-0.083865581 -7.4761398e-07 0)
(-0.08372619 -7.4074451e-07 0)
(-0.083586824 -7.3222521e-07 0)
(-0.083447521 -7.2527723e-07 0)
(-0.083308169 -7.171852e-07 0)
(-0.083168866 -7.1039083e-07 0)
(-0.08302959 -7.0156804e-07 0)
(-0.082890525 -6.942142e-07 0)
(-0.082751606 -6.8551567e-07 0)
(-0.082612863 -6.7814006e-07 0)
(-0.082474226 -6.7055133e-07 0)
(-0.082335714 -6.6322422e-07 0)
(-0.082197243 -6.559729e-07 0)
(-0.082058938 -6.4840395e-07 0)
(-0.081920792 -6.4050812e-07 0)
(-0.081783005 -6.3262269e-07 0)
(-0.081645395 -6.2503825e-07 0)
(-0.081508086 -6.1757417e-07 0)
(-0.081370921 -6.1037898e-07 0)
(-0.08123399 -6.0335689e-07 0)
(-0.08109717 -5.9636861e-07 0)
(-0.080960723 -5.8822301e-07 0)
(-0.080824521 -5.8117898e-07 0)
(-0.080688777 -5.734459e-07 0)
(-0.080553248 -5.6655108e-07 0)
(-0.080418102 -5.5923463e-07 0)
(-0.080283156 -5.5277542e-07 0)
(-0.080148517 -5.4557304e-07 0)
(-0.08001408 -5.3881296e-07 0)
(-0.079880188 -5.310347e-07 0)
(-0.079746629 -5.247041e-07 0)
(-0.0796135 -5.1734732e-07 0)
(-0.079480676 -5.1102654e-07 0)
(-0.079348199 -5.0448936e-07 0)
(-0.079216024 -4.9815701e-07 0)
(-0.079084119 -4.9166001e-07 0)
(-0.078952684 -4.846973e-07 0)
(-0.078821738 -4.7813605e-07 0)
(-0.078691194 -4.7176463e-07 0)
(-0.078561014 -4.6564933e-07 0)
(-0.078431211 -4.5954846e-07 0)
(-0.07830171 -4.5378814e-07 0)
(-0.078172546 -4.4776018e-07 0)
(-0.078043792 -4.4179588e-07 0)
(-0.07791555 -4.3516445e-07 0)
(-0.077787724 -4.2978512e-07 0)
(-0.077660328 -4.2361657e-07 0)
(-0.077533232 -4.1871868e-07 0)
(-0.077406529 -4.1268725e-07 0)
(-0.07728008 -4.0791123e-07 0)
(-0.077154108 -4.0158528e-07 0)
(-0.077028565 -3.9655944e-07 0)
(-0.07690351 -3.9058106e-07 0)
(-0.0767788 -3.8595539e-07 0)
(-0.076654526 -3.8027214e-07 0)
(-0.076530493 -3.7580441e-07 0)
(-0.076406834 -3.708742e-07 0)
(-0.0762835 -3.65658e-07 0)
(-0.076160689 -3.6062923e-07 0)
(-0.076038286 -3.5564519e-07 0)
(-0.075916285 -3.5099774e-07 0)
(-0.075794613 -3.4635348e-07 0)
(-0.07567331 -3.4195495e-07 0)
(-0.075552248 -3.3752541e-07 0)
(-0.075431559 -3.3292541e-07 0)
(-0.07531133 -3.2828121e-07 0)
(-0.075191504 -3.2466722e-07 0)
(-0.075071613 -3.2083463e-07 0)
(-0.0749518 -3.17696e-07 0)
(-0.074832214 -3.1310558e-07 0)
(-0.074712907 -3.0970715e-07 0)
(-0.074593918 -3.0483829e-07 0)
(-0.074475368 -3.0126562e-07 0)
(-0.074357247 -2.9657285e-07 0)
(-0.074239469 -2.9325971e-07 0)
(-0.074122065 -2.8879291e-07 0)
(-0.074004913 -2.8567008e-07 0)
(-0.073888101 -2.8139377e-07 0)
(-0.073771583 -2.7793473e-07 0)
(-0.073655506 -2.7407641e-07 0)
(-0.073539813 -2.7037415e-07 0)
(-0.073424488 -2.6681798e-07 0)
(-0.073309473 -2.6336793e-07 0)
(-0.073194775 -2.6000366e-07 0)
(-0.073080313 -2.566016e-07 0)
(-0.07296623 -2.5309923e-07 0)
(-0.072852513 -2.4970752e-07 0)
(-0.072739216 -2.4625018e-07 0)
(-0.072626226 -2.4300912e-07 0)
(-0.072513581 -2.3987904e-07 0)
(-0.072401199 -2.3686626e-07 0)
(-0.072289107 -2.3406108e-07 0)
(-0.072177318 -2.302673e-07 0)
(-0.072065969 -2.2769293e-07 0)
(-0.07195496 -2.240636e-07 0)
(-0.071844299 -2.216553e-07 0)
(-0.071733933 -2.1822284e-07 0)
(-0.071623855 -2.1596084e-07 0)
(-0.071514043 -2.1268631e-07 0)
(-0.071404562 -2.1027324e-07 0)
(-0.071295474 -2.0683829e-07 0)
(-0.071186775 -2.0431942e-07 0)
(-0.071078365 -2.0165856e-07 0)
(-0.070970276 -1.9902966e-07 0)
(-0.070862444 -1.9653102e-07 0)
(-0.07075488 -1.9402483e-07 0)
(-0.070647674 -1.9130076e-07 0)
(-0.070540838 -1.8864055e-07 0)
(-0.07043438 -1.8605973e-07 0)
(-0.070328229 -1.8368491e-07 0)
(-0.070222375 -1.8128843e-07 0)
(-0.070116788 -1.7896899e-07 0)
(-0.070011451 -1.7659728e-07 0)
(-0.069906486 -1.7412242e-07 0)
(-0.069801909 -1.7197528e-07 0)
(-0.069697653 -1.6918355e-07 0)
(-0.069593755 -1.6736419e-07 0)
(-0.069490096 -1.6478581e-07 0)
(-0.069386769 -1.6313474e-07 0)
(-0.069283597 -1.6050056e-07 0)
(-0.069180929 -1.5865061e-07 0)
(-0.069078493 -1.561434e-07 0)
(-0.068976544 -1.5427414e-07 0)
(-0.068874755 -1.5203876e-07 0)
(-0.068773328 -1.5019024e-07 0)
(-0.068672155 -1.4826983e-07 0)
(-0.068571289 -1.4625345e-07 0)
(-0.0684707 -1.4436198e-07 0)
(-0.068370319 -1.4261465e-07 0)
(-0.068270115 -1.41086e-07 0)
(-0.068169845 -1.3958943e-07 0)
(-0.068069685 -1.3800042e-07 0)
(-0.067969614 -1.3645593e-07 0)
(-0.067869666 -1.3497334e-07 0)
(-0.067769741 -1.3334326e-07 0)
(-0.067670145 -1.3171735e-07 0)
(-0.067570612 -1.3019443e-07 0)
(-0.067471272 -1.2875694e-07 0)
(-0.067372062 -1.2694492e-07 0)
(-0.067273165 -1.255092e-07 0)
(-0.067174439 -1.2371556e-07 0)
(-0.067075965 -1.2236045e-07 0)
(-0.066977699 -1.2062336e-07 0)
(-0.066879708 -1.191828e-07 0)
(-0.066781861 -1.1776536e-07 0)
(-0.066684152 -1.1639314e-07 0)
(-0.066586718 -1.1476265e-07 0)
(-0.066489573 -1.1322148e-07 0)
(-0.06639281 -1.1173722e-07 0)
(-0.066296164 -1.1032553e-07 0)
(-0.06619996 -1.0881051e-07 0)
(-0.06610393 -1.0733886e-07 0)
(-0.066008298 -1.0599006e-07 0)
(-0.065912696 -1.047059e-07 0)
(-0.065817532 -1.0322923e-07 0)
(-0.065722637 -1.017717e-07 0)
(-0.065628155 -1.0047311e-07 0)
(-0.065533753 -9.9234321e-08 0)
(-0.065439626 -9.8064832e-08 0)
(-0.065345572 -9.6737729e-08 0)
(-0.06525197 -9.5529121e-08 0)
(-0.065158536 -9.396761e-08 0)
(-0.065065684 -9.286414e-08 0)
(-0.064972841 -9.1598909e-08 0)
(-0.064880378 -9.0667137e-08 0)
(-0.064787767 -8.9429154e-08 0)
(-0.064695664 -8.8311449e-08 0)
(-0.064603552 -8.7079423e-08 0)
(-0.064512037 -8.5982523e-08 0)
(-0.064420521 -8.4630488e-08 0)
(-0.06432973 -8.3477317e-08 0)
(-0.064238899 -8.2389798e-08 0)
(-0.064148695 -8.1365442e-08 0)
(-0.064058373 -8.0256408e-08 0)
(-0.063968677 -7.9103147e-08 0)
(-0.063879049 -7.7914498e-08 0)
(-0.063790171 -7.6759746e-08 0)
(-0.063701207 -7.5717257e-08 0)
(-0.063612987 -7.4777018e-08 0)
(-0.063524481 -7.379349e-08 0)
(-0.063436828 -7.2737082e-08 0)
(-0.063349058 -7.1654115e-08 0)
(-0.063262227 -7.0641321e-08 0)
(-0.063175114 -6.9674932e-08 0)
(-0.063088915 -6.8724605e-08 0)
(-0.063002327 -6.7771961e-08 0)
(-0.062916834 -6.6790011e-08 0)
(-0.062830888 -6.5829327e-08 0)
(-0.062746125 -6.487115e-08 0)
(-0.062660885 -6.4029047e-08 0)
(-0.062576674 -6.3093687e-08 0)
(-0.062491998 -6.2223215e-08 0)
(-0.062408516 -6.1286521e-08 0)
(-0.062324498 -6.0476701e-08 0)
(-0.062241682 -5.9597552e-08 0)
(-0.062158301 -5.8756672e-08 0)
(-0.062076185 -5.7866574e-08 0)
(-0.061993521 -5.7018896e-08 0)
(-0.061912246 -5.616436e-08 0)
(-0.061830251 -5.5398534e-08 0)
(-0.061749587 -5.4600979e-08 0)
(-0.061668191 -5.3824522e-08 0)
(-0.061588259 -5.297688e-08 0)
(-0.061507653 -5.2162455e-08 0)
(-0.061428578 -5.1369378e-08 0)
(-0.061348651 -5.065891e-08 0)
(-0.061270251 -4.9956848e-08 0)
(-0.061190895 -4.9264334e-08 0)
(-0.061113201 -4.8435324e-08 0)
(-0.06103464 -4.7727869e-08 0)
(-0.060957805 -4.6873325e-08 0)
(-0.060879994 -4.6322534e-08 0)
(-0.060803831 -4.5623864e-08 0)
(-0.060726621 -4.4954039e-08 0)
(-0.06065116 -4.41692e-08 0)
(-0.060574754 -4.3617397e-08 0)
(-0.060500178 -4.2821048e-08 0)
(-0.060424511 -4.2306001e-08 0)
(-0.060350633 -4.1570166e-08 0)
(-0.060275602 -4.1064987e-08 0)
(-0.060202401 -4.030879e-08 0)
(-0.060128173 -3.9766188e-08 0)
(-0.060055864 -3.9023095e-08 0)
(-0.059982437 -3.8530055e-08 0)
(-0.059910872 -3.7828591e-08 0)
(-0.059838094 -3.7500177e-08 0)
(-0.05976722 -3.6671738e-08 0)
(-0.059695213 -3.6245952e-08 0)
(-0.059625185 -3.55045e-08 0)
(-0.059553988 -3.5150451e-08 0)
(-0.059484754 -3.4367063e-08 0)
(-0.059414283 -3.404289e-08 0)
(-0.059345807 -3.3288607e-08 0)
(-0.059276098 -3.30185e-08 0)
(-0.059208412 -3.2166654e-08 0)
(-0.059139479 -3.1943435e-08 0)
(-0.059072623 -3.1148901e-08 0)
(-0.059004445 -3.1009344e-08 0)
(-0.058938366 -3.0152739e-08 0)
(-0.058871007 -2.9993955e-08 0)
(-0.058805727 -2.9175241e-08 0)
(-0.058739194 -2.9099782e-08 0)
(-0.058674652 -2.8234121e-08 0)
(-0.058608955 -2.8127882e-08 0)
(-0.058545109 -2.7300632e-08 0)
(-0.05848034 -2.7266287e-08 0)
(-0.05841723 -2.6385884e-08 0)
(-0.058353383 -2.6319493e-08 0)
(-0.05829099 -2.5519459e-08 0)
(-0.058228015 -2.5462881e-08 0)
(-0.058166333 -2.4593229e-08 0)
(-0.058104164 -2.4546518e-08 0)
(-0.058043451 -2.3709815e-08 0)
(-0.057981873 -2.367735e-08 0)
(-0.057922188 -2.3234906e-08 0)
(-0.057860981 -2.2845716e-08 0)
(-0.057802293 -2.2422669e-08 0)
(-0.057741956 -2.2198381e-08 0)
(-0.057683186 -2.1698728e-08 0)
(-0.05762506 -2.1811136e-08 0)
(-0.057563471 -2.0622263e-08 0)
(-0.057511502 -2.1428339e-08 0)
(-0.057440375 -1.888522e-08 0)
(-0.057406958 -2.2017602e-08 0)
(-0.057308603 -1.5565007e-08 0)
(-0.057325537 -2.1747738e-08 0)
(-0.057169127 -3.0932573e-08 0)
)
;
    }
    lowerSymmetry
    {
        type            calculated;
        value           uniform (0 0 0);
    }
    upperSymmetry
    {
        type            calculated;
        value           uniform (0 0 0);
    }
    inlet
    {
        type            calculated;
        value           uniform (0 0 0);
    }
    outlet
    {
        type            calculated;
        value           uniform (0 0 0);
    }
    defaultFaces
    {
        type            empty;
    }
}


// ************************************************************************* //
