/*--------------------------------*- C++ -*----------------------------------*\
  =========                 |
  \\      /  F ield         | OpenFOAM: The Open Source CFD Toolbox
   \\    /   O peration     | Website:  https://openfoam.org
    \\  /    A nd           | Version:  12
     \\/     M anipulation  |
\*---------------------------------------------------------------------------*/
FoamFile
{
    format      ascii;
    class       volScalarField;
    location    "400";
    object      p;
}
// * * * * * * * * * * * * * * * * * * * * * * * * * * * * * * * * * * * * * //

dimensions      [0 2 -2 0 0 0 0];

internalField   nonuniform List<scalar> 
3000
(
13.3837156829
13.3863088686
13.3900269703
13.3954256602
13.4019944508
13.409384578
13.4173739444
13.4257966027
13.4345209579
13.4434418264
13.4524735167
13.4615437107
13.4705888485
13.4795511164
13.4883768812
13.4970162936
13.5054237036
13.5135585083
13.5213860889
13.5288785721
13.5360152528
13.5427826416
13.5491742553
13.5551901327
13.5608348483
13.5661126136
13.5710315935
13.5756585271
13.5801652226
13.5842953485
12.6883932163
12.6878841978
12.6837413012
12.6778951764
12.6709123463
12.6631422607
12.6548758577
12.646364123
12.6378256942
12.6294517565
12.6214066799
12.613826284
12.6068157097
12.6004481634
12.5947652046
12.5897787566
12.5854746401
12.5818171928
12.5787544443
12.5762233393
12.5741546006
12.5724769442
12.5711204858
12.5700193364
12.569113627
12.5683510418
12.5676855707
12.5670689085
12.5664529408
12.5659010662
12.7502169599
12.7499993976
12.750130563
12.7507598759
12.7515713024
12.7524289496
12.7532800567
12.7540976641
12.7548664279
12.7555779734
12.7562276047
12.756812242
12.757329508
12.7577775553
12.7581552707
12.7584626045
12.7587008559
12.7588728193
12.7589827532
12.7590361845
12.7590395906
12.7590000155
12.7589246778
12.7588206306
12.7586945518
12.758552586
12.7583994995
12.7582367421
12.7580670864
12.7579278222
12.4282003244
12.4284857556
12.427525552
12.4260959341
12.4244378538
12.4227041505
12.4210049876
12.4194155058
12.417982099
12.4167281392
12.4156590804
12.4147673471
12.4140369261
12.4134473557
12.4129768578
12.4126045199
12.4123115897
12.4120820537
12.4119027134
12.4117629602
12.4116544084
12.4115704931
12.4115060951
12.4114572159
12.4114207154
12.4113941361
12.4113756473
12.411363808
12.4113560907
12.4113472198
12.3380580717
12.3381832061
12.33833156
12.3387112552
12.3392013837
12.3397321219
12.34026775
12.3407846561
12.3412656662
12.3416990407
12.342077848
12.3423992798
12.3426639059
12.3428748655
12.3430370432
12.3431563101
12.343238893
12.3432909026
12.3433180188
12.3433253108
12.3433171606
12.3432972593
12.343268649
12.3432337931
12.3431946735
12.3431528815
12.3431095066
12.3430646969
12.3430188385
12.3429812222
12.1536456701
12.153791354
12.1534818381
12.1530554876
12.1525745775
12.1520816351
12.1516089501
12.1511762536
12.1507931546
12.1504623278
12.1501820173
12.1499479117
12.1497544949
12.1495959422
12.149466658
12.1493615614
12.1492762081
12.1492068143
12.149150226
12.1491038591
12.149065628
12.1490338703
12.1490072749
12.1489848154
12.1489656947
12.1489493077
12.1489351972
12.1489228805
12.1489115754
12.1489013471
12.0247391438
12.0248518619
12.0248685849
12.0249518707
12.0250683855
12.025197587
12.0253297237
12.0254578855
12.0255766542
12.0256822957
12.0257727238
12.0258472437
12.025906221
12.0259507485
12.0259823528
12.0260027597
12.026013726
12.0260169266
12.0260138886
12.0260059585
12.025994293
12.0259798645
12.0259634751
12.0259457761
12.0259272956
12.0259084652
12.025889571
12.0258705541
12.0258513726
12.0258354038
11.8755152173
11.8756024735
11.8754990813
11.8753717922
11.8752339198
11.8750948303
11.8749630989
11.8748437026
11.8747386085
11.8746479425
11.8745707875
11.8745056923
11.8744510041
11.8744050756
11.8743663844
11.8743335909
11.8743055581
11.8742813473
11.8742602013
11.8742415205
11.8742248375
11.8742097927
11.8741961116
11.8741835858
11.8741720598
11.8741614235
11.8741515848
11.8741423552
11.8741334392
11.8741257045
11.7416065113
11.7416745139
11.7416598024
11.7416650112
11.7416802064
11.7416993834
11.7417206205
11.7417424148
11.7417632734
11.7417819919
11.7417977591
11.7418101369
11.7418189958
11.7418244392
11.7418267303
11.7418262278
11.7418233357
11.7418184659
11.741812013
11.7418043386
11.7417957635
11.7417865641
11.7417769733
11.7417671831
11.7417573522
11.7417476148
11.7417380546
11.7417286017
11.7417191661
11.7417112319
11.6039056183
11.6039571319
11.6039163423
11.6038720938
11.6038265376
11.6037814329
11.6037393776
11.6037018045
11.6036690731
11.6036409527
11.6036169292
11.6035963816
11.6035786869
11.6035632793
11.6035496765
11.6035374867
11.6035264028
11.6035161918
11.6035066822
11.6034977511
11.603489313
11.6034813098
11.603473703
11.6034664676
11.6034595889
11.6034530623
11.6034468765
11.6034409435
11.6034351292
11.6034301473
11.471068876
11.4711087381
11.4710939876
11.4710862357
11.4710819814
11.471079222
11.4710778103
11.471077521
11.4710778928
11.4710784387
11.4710787525
11.4710785405
11.4710776217
11.4710759134
11.4710734109
11.4710701645
11.4710662605
11.4710618044
11.4710569085
11.4710516839
11.471046234
11.4710406518
11.471035018
11.4710294007
11.4710238576
11.4710184396
11.4710131761
11.471008018
11.4710028961
11.4709985645
11.3380455849
11.3380759575
11.3380570981
11.3380388666
11.3380210599
11.3380037682
11.337987917
11.3379739859
11.3379619935
11.3379517315
11.3379429068
11.3379352151
11.3379283804
11.3379221736
11.3379164164
11.3379109789
11.3379057714
11.3379007368
11.3378958426
11.3378910735
11.3378864261
11.3378819046
11.3378775165
11.3378732714
11.3378691796
11.3378652534
11.3378614967
11.3378578632
11.3378542836
11.3378512306
11.2068505929
11.2068740771
11.206863864
11.2068565997
11.2068508016
11.2068456767
11.2068413881
11.2068379672
11.2068352438
11.2068329828
11.2068309597
11.2068289908
11.206826942
11.2068247284
11.2068223072
11.2068196682
11.2068168247
11.206813805
11.206810646
11.2068073881
11.2068040714
11.2068007338
11.2067974092
11.2067941267
11.2067909119
11.2067877878
11.2067847672
11.2067818189
11.2067788983
11.2067764212
11.0760667752
11.0760847874
11.0760750217
11.0760663207
11.0760581746
11.0760503876
11.0760433489
11.0760372482
11.0760320483
11.0760276098
11.0760237642
11.0760203495
11.0760172276
11.076014291
11.0760114623
11.0760086909
11.0760059474
11.0760032189
11.0760005037
11.0759978073
11.0759951399
11.0759925136
11.0759899407
11.075987433
11.0759850016
11.0759826573
11.0759804055
11.0759782199
11.075976062
11.0759742251
10.9461015243
10.9461154444
10.9461090403
10.9461040892
10.946099856
10.946095967
10.9460925807
10.9460897568
10.94608742
10.9460854446
10.9460837021
10.9460820811
10.946080496
10.9460788876
10.9460772207
10.9460754795
10.9460736625
10.9460717781
10.9460698409
10.9460678686
10.9460658797
10.9460638925
10.9460619236
10.9460599877
10.9460580977
10.9460562656
10.9460544977
10.9460527752
10.9460510705
10.9460496229
10.8165133088
10.8165240247
10.8165186119
10.8165140134
10.8165098226
10.8165058563
10.8165023033
10.8164992516
10.8164966671
10.8164944634
10.8164925426
10.8164908138
10.8164892022
10.8164876515
10.8164861235
10.8164845949
10.8164830548
10.8164815008
10.8164799365
10.8164783692
10.8164768078
10.8164752622
10.8164737417
10.8164722548
10.8164708093
10.8164694129
10.8164680692
10.8164667631
10.8164654723
10.8164643744
10.6873438659
10.6873521444
10.6873482639
10.6873451747
10.687342474
10.6873399629
10.6873377505
10.6873358824
10.6873343205
10.6873329936
10.6873318266
10.6873307534
10.6873297214
10.6873286937
10.687327647
10.6873265694
10.6873254579
10.6873243155
10.687323149
10.6873219673
10.6873207804
10.6873195979
10.6873184289
10.6873172814
10.6873161625
10.6873150791
10.6873140345
10.6873130175
10.6873120115
10.6873111566
10.5584326239
10.5584390082
10.5584358967
10.5584333182
10.5584310025
10.5584288224
10.5584268789
10.5584252178
10.5584238157
10.5584226206
10.5584215748
10.558420626
10.5584197317
10.5584188605
10.5584179916
10.5584171134
10.5584162208
10.558415314
10.5584143963
10.558413473
10.5584125503
10.5584116347
10.5584107323
10.5584098485
10.5584089884
10.5584081567
10.5584073558
10.5584065769
10.5584058067
10.5584051518
10.4297533371
10.4297582687
10.4297559453
10.4297540755
10.4297524276
10.4297508883
10.429749526
10.4297483704
10.4297474004
10.4297465748
10.4297458493
10.4297451844
10.4297445488
10.4297439199
10.4297432835
10.429742632
10.4297419629
10.4297412776
10.4297405798
10.4297398743
10.4297391668
10.4297384627
10.4297377673
10.4297370852
10.4297364204
10.429735777
10.4297351569
10.4297345533
10.4297339563
10.4297334488
10.3012365086
10.3012403152
10.3012384931
10.3012370017
10.301235672
10.3012344234
10.3012333129
10.3012323659
10.3012315679
10.3012308876
10.3012302911
10.3012297476
10.3012292323
10.3012287272
10.3012282206
10.3012277059
10.3012271807
10.3012266453
10.3012261022
10.3012255548
10.301225007
10.3012244627
10.3012239259
10.3012233998
10.3012228875
10.301222392
10.3012219146
10.3012214502
10.3012209909
10.3012206004
10.1728534686
10.1728564089
10.172855023
10.1728539034
10.1728529135
10.1728519872
10.1728511659
10.1728504679
10.1728498811
10.1728493811
10.1728489418
10.1728485397
10.1728481561
10.1728477775
10.1728473952
10.1728470047
10.1728466044
10.1728461949
10.1728457783
10.1728453575
10.1728449358
10.1728445163
10.1728441021
10.172843696
10.1728433003
10.1728429173
10.1728425483
10.1728421891
10.1728418339
10.1728415319
10.0445694907
10.0445717612
10.0445706842
10.044569808
10.0445690296
10.0445682994
10.0445676507
10.0445670981
10.0445666327
10.044566236
10.0445658877
10.0445655696
10.0445652673
10.04456497
10.044564671
10.0445643665
10.0445640552
10.0445637375
10.0445634148
10.0445630892
10.0445627631
10.0445624391
10.0445621193
10.0445618058
10.0445615005
10.0445612051
10.0445609205
10.0445606436
10.0445603697
10.0445601369
9.91636415438
9.91636590825
9.91636508216
9.91636441397
9.91636382258
9.9163632687
9.91636277726
9.91636235927
9.9163620076
9.91636170785
9.91636144444
9.91636120344
9.91636097367
9.91636074709
9.91636051852
9.91636028519
9.91636004615
9.91635980179
9.9163595533
9.91635930238
9.91635905095
9.9163588009
9.91635855406
9.91635831202
9.91635807622
9.91635784802
9.91635762813
9.91635741413
9.91635720248
9.91635702256
9.78821847165
9.78821982622
9.78821918661
9.78821866773
9.78821820755
9.78821777615
9.78821739302
9.78821706684
9.78821679222
9.78821655807
9.78821635238
9.78821616438
9.7882159854
9.7882158092
9.78821563173
9.78821545081
9.78821526569
9.78821507659
9.78821488444
9.78821469051
9.78821449625
9.78821430313
9.78821411252
9.78821392565
9.78821374362
9.78821356749
9.78821339777
9.78821323262
9.78821306929
9.78821293042
9.66011941368
9.66012046002
9.66011996752
9.66011956902
9.66011921618
9.66011888561
9.66011859221
9.66011834258
9.6601181325
9.66011795339
9.66011779599
9.66011765199
9.66011751474
9.66011737944
9.660117243
9.66011710375
9.66011696115
9.66011681538
9.66011666719
9.66011651756
9.66011636764
9.66011621856
9.6601160714
9.6601159271
9.66011578653
9.66011565049
9.6601155194
9.66011539183
9.66011526565
9.66011515838
9.5320560963
9.53205690447
9.5320565237
9.53205621522
9.53205594186
9.53205568566
9.53205545817
9.53205526453
9.53205510153
9.53205496254
9.53205484042
9.53205472875
9.53205462238
9.53205451759
9.53205441198
9.53205430428
9.53205419402
9.53205408137
9.53205396687
9.53205385129
9.5320537355
9.53205362038
9.53205350674
9.53205339533
9.5320532868
9.53205318177
9.53205308057
9.53205298208
9.53205288467
9.53205280186
9.40402053221
9.40402115643
9.4040208627
9.40402062502
9.40402041456
9.40402021736
9.40402004232
9.40401989337
9.40401976801
9.40401966113
9.4040195672
9.40401948128
9.40401939939
9.40401931868
9.4040192373
9.40401915426
9.40401906923
9.40401898232
9.40401889396
9.40401880475
9.40401871538
9.4040186265
9.40401853877
9.40401845274
9.40401836894
9.40401828783
9.40401820968
9.40401813362
9.4040180584
9.40401799444
9.27600633856
9.27600682067
9.27600659368
9.27600640992
9.27600624714
9.27600609459
9.27600595917
9.27600584392
9.27600574691
9.2760056642
9.27600559153
9.27600552507
9.27600546174
9.27600539935
9.27600533646
9.27600527231
9.27600520662
9.2760051395
9.27600507127
9.27600500239
9.27600493338
9.27600486477
9.27600479703
9.27600473062
9.27600466592
9.27600460331
9.27600454298
9.27600448426
9.27600442618
9.2760043768
9.1480086911
9.14800906343
9.14800888821
9.14800874642
9.14800862086
9.14800850321
9.14800839878
9.14800830991
9.14800823512
9.14800817136
9.14800811534
9.14800806409
9.14800801527
9.14800796715
9.14800791863
9.14800786914
9.14800781845
9.14800776666
9.148007714
9.14800766084
9.14800760757
9.14800755461
9.14800750232
9.14800745106
9.14800740111
9.14800735278
9.1480073062
9.14800726086
9.14800721602
9.1480071779
9.02002380678
9.02002409427
9.02002395888
9.02002384928
9.02002375222
9.02002366127
9.02002358054
9.02002351184
9.02002345402
9.02002340473
9.02002336142
9.02002332182
9.0200232841
9.02002324693
9.02002320946
9.02002317124
9.02002313211
9.02002309213
9.02002305148
9.02002301044
9.02002296933
9.02002292845
9.0200228881
9.02002284853
9.02002280998
9.02002277267
9.02002273672
9.02002270172
9.02002266711
9.02002263768
8.89204879373
8.8920490157
8.89204891111
8.89204882645
8.89204875147
8.89204868123
8.89204861888
8.89204856583
8.89204852119
8.89204848313
8.89204844971
8.89204841914
8.89204839003
8.89204836134
8.89204833243
8.89204830294
8.89204827274
8.89204824189
8.89204821052
8.89204817886
8.89204814714
8.89204811559
8.89204808445
8.89204805392
8.89204802417
8.89204799538
8.89204796763
8.89204794062
8.89204791391
8.8920478912
8.76408140311
8.76408157448
8.76408149367
8.76408142824
8.76408137029
8.764081316
8.7640812678
8.76408122679
8.76408119229
8.76408116288
8.76408113705
8.76408111344
8.76408109095
8.76408106881
8.76408104649
8.76408102373
8.76408100043
8.76408097662
8.76408095242
8.764080928
8.76408090352
8.76408087919
8.76408085516
8.76408083161
8.76408080866
8.76408078644
8.76408076504
8.7640807442
8.76408072359
8.76408070606
8.63611990527
8.63612003752
8.6361199751
8.63611992457
8.63611987981
8.63611983788
8.63611980067
8.63611976901
8.63611974238
8.63611971969
8.63611969976
8.63611968155
8.63611966421
8.63611964714
8.63611962993
8.63611961238
8.63611959442
8.63611957606
8.6361195574
8.63611953857
8.6361195197
8.63611950093
8.63611948241
8.63611946424
8.63611944654
8.63611942941
8.6361194129
8.63611939683
8.63611938093
8.63611936741
8.50816296202
8.50816306408
8.50816301584
8.50816297677
8.50816294218
8.50816290978
8.50816288104
8.50816285659
8.50816283602
8.50816281851
8.50816280313
8.50816278909
8.50816277572
8.50816276255
8.50816274929
8.50816273576
8.50816272191
8.50816270777
8.50816269339
8.50816267887
8.50816266433
8.50816264986
8.50816263559
8.50816262158
8.50816260794
8.50816259473
8.508162582
8.50816256961
8.50816255735
8.50816254692
8.38020953856
8.38020961729
8.38020958004
8.38020954987
8.38020952315
8.38020949812
8.38020947592
8.38020945703
8.38020944116
8.38020942763
8.38020941577
8.38020940493
8.38020939462
8.38020938447
8.38020937425
8.38020936382
8.38020935316
8.38020934226
8.38020933118
8.38020931999
8.38020930879
8.38020929764
8.38020928664
8.38020927585
8.38020926534
8.38020925516
8.38020924535
8.3802092358
8.38020922635
8.38020921831
8.25225883121
8.25225889191
8.25225886314
8.25225883983
8.25225881919
8.25225879986
8.25225878271
8.25225876812
8.25225875586
8.25225874542
8.25225873627
8.25225872791
8.25225871995
8.25225871213
8.25225870425
8.25225869622
8.252258688
8.25225867961
8.25225867108
8.25225866246
8.25225865383
8.25225864525
8.25225863678
8.25225862847
8.25225862037
8.25225861253
8.25225860497
8.25225859761
8.25225859033
8.25225858414
8.12431022157
8.12431026834
8.12431024609
8.12431022805
8.12431021208
8.12431019712
8.12431018386
8.12431017259
8.12431016311
8.12431015505
8.12431014799
8.12431014154
8.12431013541
8.12431012938
8.12431012331
8.12431011713
8.1243101108
8.12431010434
8.12431009777
8.12431009114
8.1243100845
8.12431007789
8.12431007137
8.12431006498
8.12431005874
8.12431005271
8.12431004689
8.12431004122
8.12431003562
8.12431003085
7.99636323419
7.99636327023
7.99636325303
7.99636323908
7.99636322672
7.99636321515
7.99636320489
7.99636319616
7.99636318883
7.9963631826
7.99636317714
7.99636317216
7.99636316743
7.99636316279
7.99636315811
7.99636315335
7.99636314848
7.99636314351
7.99636313845
7.99636313336
7.99636312825
7.99636312317
7.99636311815
7.99636311323
7.99636310843
7.99636310379
7.99636309931
7.99636309495
7.99636309064
7.99636308697
7.86841749831
7.86841752607
7.86841751281
7.86841750205
7.86841749251
7.86841748358
7.86841747566
7.86841746893
7.86841746328
7.86841745848
7.86841745427
7.86841745044
7.8684174468
7.86841744323
7.86841743964
7.86841743598
7.86841743224
7.86841742842
7.86841742454
7.86841742062
7.86841741669
7.86841741279
7.86841740894
7.86841740516
7.86841740147
7.8684173979
7.86841739446
7.86841739111
7.86841738779
7.86841738497
7.7404727313
7.74047275264
7.74047274239
7.74047273407
7.7404727267
7.74047271982
7.74047271371
7.74047270853
7.74047270419
7.7404727005
7.74047269727
7.74047269433
7.74047269154
7.7404726888
7.74047268605
7.74047268325
7.74047268038
7.74047267745
7.74047267447
7.74047267147
7.74047266846
7.74047266546
7.7404726625
7.7404726596
7.74047265677
7.74047265403
7.74047265139
7.74047264881
7.74047264627
7.7404726441
7.61252871467
7.61252873109
7.61252872317
7.61252871674
7.61252871104
7.61252870571
7.612528701
7.612528697
7.61252869365
7.6125286908
7.61252868831
7.61252868605
7.61252868391
7.61252868181
7.61252867969
7.61252867754
7.61252867534
7.6125286731
7.61252867082
7.61252866851
7.6125286662
7.61252866391
7.61252866164
7.61252865942
7.61252865725
7.61252865514
7.61252865312
7.61252865114
7.61252864918
7.61252864752
7.48458527416
7.48458528678
7.48458528068
7.48458527573
7.48458527134
7.48458526724
7.4845852636
7.48458526051
7.48458525793
7.48458525573
7.48458525382
7.48458525208
7.48458525043
7.48458524882
7.4845852472
7.48458524555
7.48458524386
7.48458524214
7.4845852404
7.48458523863
7.48458523686
7.4845852351
7.48458523337
7.48458523166
7.48458523
7.48458522839
7.48458522683
7.48458522532
7.48458522382
7.48458522254
7.35664227676
7.35664228642
7.3566422817
7.35664227787
7.35664227448
7.35664227131
7.35664226851
7.35664226614
7.35664226415
7.35664226246
7.356642261
7.35664225966
7.3566422584
7.35664225717
7.35664225593
7.35664225467
7.35664225338
7.35664225206
7.35664225073
7.35664224938
7.35664224803
7.35664224668
7.35664224535
7.35664224405
7.35664224278
7.35664224154
7.35664224035
7.35664223919
7.35664223804
7.35664223706
7.22869962299
7.2286996304
7.22869962674
7.22869962376
7.22869962112
7.22869961865
7.22869961648
7.22869961463
7.22869961309
7.22869961179
7.22869961065
7.22869960963
7.22869960866
7.22869960771
7.22869960676
7.22869960579
7.2286996048
7.2286996038
7.22869960278
7.22869960175
7.22869960071
7.22869959968
7.22869959867
7.22869959767
7.2286995967
7.22869959575
7.22869959484
7.22869959396
7.22869959308
7.22869959233
7.10075723387
7.10075723956
7.10075723676
7.10075723447
7.10075723244
7.10075723054
7.10075722886
7.10075722744
7.10075722625
7.10075722524
7.10075722436
7.10075722357
7.10075722282
7.1007572221
7.10075722137
7.10075722063
7.10075721987
7.10075721911
7.10075721833
7.10075721754
7.10075721675
7.10075721596
7.10075721519
7.10075721443
7.10075721369
7.10075721297
7.10075721227
7.10075721159
7.10075721092
7.10075721035
6.9728150476
6.97281505193
6.97281504978
6.97281504802
6.97281504647
6.97281504502
6.97281504373
6.97281504265
6.97281504175
6.97281504098
6.97281504032
6.97281503972
6.97281503916
6.97281503861
6.97281503806
6.9728150375
6.97281503693
6.97281503634
6.97281503575
6.97281503515
6.97281503455
6.97281503396
6.97281503337
6.97281503279
6.97281503222
6.97281503168
6.97281503115
6.97281503063
6.97281503012
6.97281502968
6.84487302071
6.84487302401
6.84487302234
6.84487302097
6.84487301976
6.84487301864
6.84487301765
6.84487301682
6.84487301613
6.84487301555
6.84487301505
6.8448730146
6.84487301417
6.84487301376
6.84487301334
6.84487301292
6.84487301249
6.84487301205
6.8448730116
6.84487301115
6.8448730107
6.84487301024
6.8448730098
6.84487300936
6.84487300893
6.84487300851
6.84487300811
6.84487300772
6.84487300733
6.84487300699
6.71693111556
6.7169311181
6.71693111682
6.71693111578
6.71693111485
6.71693111399
6.71693111323
6.71693111259
6.71693111205
6.7169311116
6.71693111121
6.71693111087
6.71693111054
6.71693111022
6.71693110991
6.71693110958
6.71693110926
6.71693110892
6.71693110858
6.71693110824
6.7169311079
6.71693110755
6.71693110721
6.71693110688
6.71693110655
6.71693110624
6.71693110593
6.71693110563
6.71693110534
6.71693110509
6.588989301
6.58898930292
6.58898930194
6.58898930115
6.58898930045
6.58898929979
6.58898929921
6.58898929873
6.58898929832
6.58898929798
6.58898929769
6.58898929743
6.58898929718
6.58898929694
6.5889892967
6.58898929646
6.58898929621
6.58898929596
6.5889892957
6.58898929544
6.58898929518
6.58898929492
6.58898929466
6.58898929441
6.58898929416
6.58898929392
6.58898929369
6.58898929346
6.58898929324
6.58898929305
6.46104755779
6.46104755923
6.46104755846
6.46104755783
6.46104755727
6.46104755675
6.4610475563
6.46104755592
6.46104755561
6.46104755534
6.46104755512
6.46104755492
6.46104755473
6.46104755454
6.46104755436
6.46104755418
6.46104755399
6.4610475538
6.4610475536
6.46104755341
6.46104755321
6.46104755301
6.46104755282
6.46104755263
6.46104755244
6.46104755226
6.46104755208
6.46104755191
6.46104755174
6.4610475516
6.33310587
6.3331058711
6.33310587052
6.33310587003
6.33310586959
6.33310586919
6.33310586883
6.33310586853
6.33310586828
6.33310586807
6.33310586789
6.33310586773
6.33310586759
6.33310586744
6.3331058673
6.33310586716
6.33310586702
6.33310586687
6.33310586673
6.33310586658
6.33310586643
6.33310586628
6.33310586613
6.33310586599
6.33310586585
6.33310586571
6.33310586558
6.33310586545
6.33310586532
6.33310586521
6.20516422248
6.20516422332
6.20516422288
6.20516422252
6.2051642222
6.2051642219
6.20516422164
6.20516422142
6.20516422124
6.20516422109
6.20516422096
6.20516422085
6.20516422074
6.20516422064
6.20516422054
6.20516422043
6.20516422033
6.20516422022
6.20516422011
6.20516422
6.20516421989
6.20516421978
6.20516421967
6.20516421956
6.20516421946
6.20516421936
6.20516421926
6.20516421916
6.20516421906
6.20516421898
6.07722260771
6.07722260834
6.07722260799
6.07722260771
6.07722260747
6.07722260725
6.07722260706
6.07722260691
6.07722260678
6.07722260668
6.07722260659
6.07722260651
6.07722260644
6.07722260637
6.0772226063
6.07722260622
6.07722260615
6.07722260607
6.07722260599
6.07722260591
6.07722260583
6.07722260575
6.07722260567
6.07722260559
6.07722260551
6.07722260544
6.07722260536
6.07722260529
6.07722260522
6.07722260515
5.94928101918
5.94928101966
5.9492810194
5.94928101919
5.949281019
5.94928101883
5.94928101868
5.94928101855
5.94928101845
5.94928101836
5.94928101829
5.94928101822
5.94928101816
5.94928101811
5.94928101805
5.94928101799
5.94928101794
5.94928101788
5.94928101782
5.94928101776
5.9492810177
5.94928101763
5.94928101757
5.94928101751
5.94928101746
5.9492810174
5.94928101734
5.94928101729
5.94928101723
5.94928101719
5.82133944688
5.82133944724
5.82133944705
5.82133944689
5.82133944675
5.82133944662
5.8213394465
5.8213394464
5.82133944632
5.82133944625
5.82133944619
5.82133944614
5.82133944609
5.82133944604
5.821339446
5.82133944596
5.82133944591
5.82133944587
5.82133944582
5.82133944577
5.82133944573
5.82133944568
5.82133944563
5.82133944559
5.82133944554
5.8213394455
5.82133944546
5.82133944542
5.82133944538
5.82133944534
5.69339788805
5.6933978883
5.69339788814
5.69339788802
5.69339788791
5.6933978878
5.69339788772
5.69339788764
5.69339788759
5.69339788754
5.6933978875
5.69339788746
5.69339788743
5.6933978874
5.69339788737
5.69339788733
5.6933978873
5.69339788727
5.69339788723
5.6933978872
5.69339788717
5.69339788713
5.6933978871
5.69339788706
5.69339788703
5.693397887
5.69339788697
5.69339788694
5.69339788691
5.69339788688
5.56545634018
5.56545634037
5.56545634025
5.56545634014
5.56545634005
5.56545633996
5.56545633989
5.56545633982
5.56545633977
5.56545633973
5.5654563397
5.56545633967
5.56545633964
5.56545633962
5.56545633959
5.56545633957
5.56545633954
5.56545633952
5.5654563395
5.56545633947
5.56545633945
5.56545633942
5.5654563394
5.56545633937
5.56545633935
5.56545633933
5.5654563393
5.56545633928
5.56545633926
5.56545633924
5.4375147994
5.43751479956
5.43751479948
5.43751479941
5.43751479935
5.43751479929
5.43751479924
5.43751479919
5.43751479916
5.43751479913
5.4375147991
5.43751479908
5.43751479907
5.43751479905
5.43751479903
5.43751479902
5.437514799
5.43751479898
5.43751479896
5.43751479895
5.43751479893
5.43751479891
5.43751479889
5.43751479887
5.43751479886
5.43751479884
5.43751479882
5.43751479881
5.43751479879
5.43751479878
5.30957326494
5.30957326504
5.30957326498
5.30957326494
5.3095732649
5.30957326487
5.30957326484
5.30957326482
5.3095732648
5.30957326479
5.30957326478
5.30957326477
5.30957326476
5.30957326475
5.30957326474
5.30957326473
5.30957326472
5.30957326471
5.30957326469
5.30957326468
5.30957326467
5.30957326466
5.30957326464
5.30957326463
5.30957326462
5.3095732646
5.30957326459
5.30957326458
5.30957326457
5.30957326456
5.18163173634
5.18163173641
5.18163173636
5.18163173632
5.18163173628
5.18163173625
5.18163173623
5.1816317362
5.18163173619
5.18163173617
5.18163173616
5.18163173615
5.18163173615
5.18163173614
5.18163173613
5.18163173612
5.18163173611
5.1816317361
5.18163173609
5.18163173609
5.18163173608
5.18163173607
5.18163173606
5.18163173605
5.18163173604
5.18163173603
5.18163173602
5.18163173601
5.181631736
5.18163173599
5.05369020967
5.05369020973
5.0536902097
5.05369020967
5.05369020964
5.05369020961
5.05369020959
5.05369020957
5.05369020955
5.05369020954
5.05369020952
5.05369020951
5.0536902095
5.0536902095
5.05369020949
5.05369020948
5.05369020948
5.05369020947
5.05369020946
5.05369020946
5.05369020945
5.05369020944
5.05369020943
5.05369020943
5.05369020942
5.05369020941
5.05369020941
5.0536902094
5.0536902094
5.05369020939
4.92574868414
4.92574868418
4.92574868416
4.92574868414
4.92574868413
4.92574868411
4.92574868411
4.9257486841
4.92574868409
4.92574868409
4.92574868409
4.92574868408
4.92574868408
4.92574868408
4.92574868408
4.92574868407
4.92574868407
4.92574868406
4.92574868406
4.92574868405
4.92574868405
4.92574868404
4.92574868404
4.92574868403
4.92574868403
4.92574868402
4.92574868402
4.92574868402
4.92574868401
4.92574868401
4.79780716045
4.79780716048
4.79780716045
4.79780716043
4.79780716041
4.7978071604
4.79780716039
4.79780716038
4.79780716037
4.79780716037
4.79780716036
4.79780716036
4.79780716036
4.79780716035
4.79780716035
4.79780716035
4.79780716034
4.79780716034
4.79780716034
4.79780716033
4.79780716033
4.79780716033
4.79780716032
4.79780716032
4.79780716032
4.79780716031
4.79780716031
4.79780716031
4.7978071603
4.7978071603
4.66986563697
4.669865637
4.66986563699
4.66986563698
4.66986563696
4.66986563694
4.66986563692
4.66986563691
4.66986563689
4.66986563688
4.66986563687
4.66986563686
4.66986563686
4.66986563685
4.66986563684
4.66986563684
4.66986563684
4.66986563683
4.66986563683
4.66986563683
4.66986563682
4.66986563682
4.66986563682
4.66986563682
4.66986563681
4.66986563681
4.66986563681
4.66986563681
4.6698656368
4.6698656368
4.54192411451
4.54192411452
4.54192411451
4.54192411451
4.54192411451
4.5419241145
4.5419241145
4.54192411449
4.54192411449
4.54192411449
4.54192411448
4.54192411448
4.54192411448
4.54192411447
4.54192411447
4.54192411447
4.54192411446
4.54192411446
4.54192411446
4.54192411446
4.54192411445
4.54192411445
4.54192411445
4.54192411445
4.54192411444
4.54192411444
4.54192411444
4.54192411444
4.54192411444
4.54192411443
4.41398259306
4.41398259306
4.41398259305
4.41398259304
4.41398259303
4.41398259302
4.41398259302
4.41398259302
4.41398259302
4.41398259302
4.41398259303
4.41398259303
4.41398259303
4.41398259303
4.41398259303
4.41398259303
4.41398259303
4.41398259303
4.41398259303
4.41398259303
4.41398259303
4.41398259303
4.41398259303
4.41398259303
4.41398259303
4.41398259303
4.41398259302
4.41398259302
4.41398259302
4.41398259302
4.28604107244
4.28604107246
4.28604107246
4.28604107246
4.28604107245
4.28604107245
4.28604107245
4.28604107244
4.28604107244
4.28604107244
4.28604107244
4.28604107244
4.28604107244
4.28604107244
4.28604107244
4.28604107244
4.28604107244
4.28604107244
4.28604107244
4.28604107244
4.28604107244
4.28604107244
4.28604107244
4.28604107244
4.28604107244
4.28604107244
4.28604107244
4.28604107244
4.28604107244
4.28604107244
4.15809955079
4.1580995508
4.15809955081
4.15809955082
4.15809955083
4.15809955084
4.15809955084
4.15809955085
4.15809955086
4.15809955086
4.15809955087
4.15809955087
4.15809955087
4.15809955087
4.15809955088
4.15809955088
4.15809955088
4.15809955088
4.15809955088
4.15809955088
4.15809955088
4.15809955088
4.15809955088
4.15809955088
4.15809955088
4.15809955088
4.15809955088
4.15809955087
4.15809955087
4.15809955087
4.03015802907
4.03015802906
4.03015802905
4.03015802905
4.03015802905
4.03015802905
4.03015802906
4.03015802906
4.03015802907
4.03015802907
4.03015802907
4.03015802907
4.03015802907
4.03015802907
4.03015802908
4.03015802908
4.03015802908
4.03015802908
4.03015802908
4.03015802908
4.03015802907
4.03015802907
4.03015802907
4.03015802907
4.03015802907
4.03015802907
4.03015802907
4.03015802907
4.03015802907
4.03015802907
3.90221650645
3.90221650646
3.90221650645
3.90221650644
3.90221650643
3.90221650642
3.90221650641
3.9022165064
3.90221650639
3.90221650638
3.90221650637
3.90221650637
3.90221650636
3.90221650636
3.90221650636
3.90221650636
3.90221650635
3.90221650635
3.90221650635
3.90221650635
3.90221650635
3.90221650635
3.90221650635
3.90221650635
3.90221650635
3.90221650635
3.90221650635
3.90221650635
3.90221650635
3.90221650635
3.77427498271
3.77427498272
3.77427498272
3.77427498272
3.77427498272
3.77427498272
3.77427498271
3.77427498271
3.7742749827
3.7742749827
3.77427498269