/*--------------------------------*- C++ -*----------------------------------*\
  =========                 |
  \\      /  F ield         | OpenFOAM: The Open Source CFD Toolbox
   \\    /   O peration     | Website:  https://openfoam.org
    \\  /    A nd           | Version:  12
     \\/     M anipulation  |
\*---------------------------------------------------------------------------*/
FoamFile
{
    format      ascii;
    class       surfaceScalarField;
    location    "400";
    object      phi;
}
// * * * * * * * * * * * * * * * * * * * * * * * * * * * * * * * * * * * * * //

dimensions      [0 3 -1 0 0 0 0];

internalField   nonuniform List<scalar> 
5870
(
-3.7918775018e-07
1.61328522809e-06
-1.45383763951e-06
4.40734193675e-06
-3.06654771859e-06
6.56184039109e-06
-5.08128155523e-06
8.18222457617e-06
-7.38655013489e-06
9.36376112606e-06
-9.88353872221e-06
1.01785232327e-05
-1.24795706797e-05
1.06824612572e-05
-1.50850523994e-05
1.09203575096e-05
-1.76130864006e-05
1.0929746628e-05
-1.99810252401e-05
1.07439201134e-05
-2.21131552136e-05
1.03939593458e-05
-2.39436922628e-05
9.90981437639e-06
-2.54193968854e-05
9.32057343178e-06
-2.65013370558e-05
8.65416225909e-06
-2.71655812132e-05
7.93674180716e-06
-2.74028303061e-05
7.19204296748e-06
-2.7217159245e-05
6.44081117985e-06
-2.66241258155e-05
5.70045727555e-06
-2.56485259943e-05
4.98494339711e-06
-2.43220480739e-05
4.30488403884e-06
-2.26810244025e-05
3.66781432945e-06
-2.07644170116e-05
3.07856762926e-06
-1.86121137572e-05
2.53970703198e-06
-1.62635624924e-05
2.05196513103e-06
-1.37567348793e-05
1.61465900991e-06
-1.1127388411e-05
1.22605992034e-06
-8.40858299995e-06
8.83707693018e-07
-5.630404513e-06
5.84667578897e-07
-2.81984811765e-06
3.25731613358e-07
1.02751482718e-07
-2.12896567322e-07
1.82618179573e-06
-7.03341560736e-07
4.89778693017e-06
-1.41430296722e-06
7.27280179914e-06
-2.30030351074e-06
9.06822512239e-06
-3.30079264978e-06
1.03642502679e-05
-4.34777340483e-06
1.12255039916e-05
-5.37140599986e-06
1.17060938552e-05
-6.30564258634e-06
1.1854594099e-05
-7.09364310146e-06
1.17177471452e-05
-7.69218361799e-06
1.13424606303e-05
-8.07437276405e-06
1.07761484952e-05
-8.23036991985e-06
1.00658115304e-05
-8.16622055964e-06
9.25642407578e-06
-7.90124464781e-06
8.38918634586e-06
-7.46457126129e-06
7.50006842115e-06
-6.89141414534e-06
6.61888585218e-06
-6.21957365746e-06
5.76897069211e-06
-5.48648915332e-06
4.96737277183e-06
-4.72700110211e-06
4.22545534772e-06
-3.97184631874e-06
3.5497292556e-06
-3.24681636491e-06
2.94278437512e-06
-2.5724583779e-06
2.40420964267e-06
-1.96418104363e-06
1.93142969817e-06
-1.43263522375e-06
1.52041931094e-06
-9.84258410611e-07
1.16628219686e-06
-6.21896585541e-07
8.63698095355e-07
-3.45440905574e-07
6.07252013152e-07
-1.52437491903e-07
3.91664165279e-07
-3.86461917416e-08
2.11940313247e-07
6.41052909833e-08
-1.73034825049e-07
1.99921662089e-06
-6.8687805833e-07
5.41163016215e-06
-1.4280090746e-06
8.01393281407e-06
-2.28210247993e-06
9.92231852658e-06
-3.15188853751e-06
1.12340363242e-05
-3.95549961112e-06
1.20291150648e-05
-4.62847730372e-06
1.2379071547e-05
-5.12635581415e-06
1.23524726087e-05
-5.42599329541e-06
1.20173846254e-05
-5.52473862399e-06
1.14412059571e-05
-5.43739923616e-06
1.06888091078e-05
-5.19162829119e-06
9.82004058296e-06
-4.82265718336e-06
8.88745296916e-06
-4.36827741302e-06
7.93480657387e-06
-3.86473208681e-06
6.99652309445e-06
-3.34384925569e-06
6.09800302078e-06
-2.83144825999e-06
5.25656969601e-06
-2.34683946695e-06
4.48276397858e-06
-1.90313171964e-06
3.78174760083e-06
-1.50804350153e-06
3.1546410373e-06
-1.16495261222e-06
2.59969348545e-06
-8.73984849525e-07
2.11324187997e-06
-6.33012040924e-07
1.6904568896e-06
-4.38490319894e-07
1.32589758975e-06
-2.86115065175e-07
1.01390694209e-06
-1.71298929379e-07
7.48881959528e-07
-8.94962533768e-08
5.25449337133e-07
-3.64042955853e-08
3.38572207465e-07
-8.07216198616e-09
1.83608179636e-07
5.6033129001e-08
-1.09335933457e-07
2.10855255449e-06
-3.64528602302e-07
5.66682283103e-06
-7.05828841145e-07
8.35523305372e-06
-1.07688373115e-06
1.02933734179e-05
-1.42373468017e-06
1.15808872746e-05
-1.70304123778e-06
1.23084216242e-05
-1.88689401107e-06
1.25629243217e-05
-1.96438492115e-06
1.24299635202e-05
-1.94008279689e-06
1.19930825022e-05
-1.8301973472e-06
1.13313205079e-05
-1.65764324739e-06
1.05162550092e-05
-1.44722331208e-06
9.60962064777e-06
-1.22181557963e-06
8.66204523776e-06
-9.99973758416e-07
7.71296475282e-06
-7.94921357513e-07
6.79147069391e-06
-6.14642956266e-07
5.91772461986e-06
-4.62668979672e-07
5.10459571966e-06
-3.39173422858e-07
4.35926842199e-06
-2.42097657823e-07
3.68467183605e-06
-1.68125675497e-07
3.08066905511e-06
-1.13433695189e-07
2.54500150523e-06
-7.42058717736e-08
2.07401405666e-06
-4.694712611e-08
1.66319814402e-06
-2.86401320364e-08
1.30759059573e-06
-1.67943492803e-08
1.00206115938e-06
-9.42789487697e-09
7.41515505163e-07
-5.01313425614e-09
5.21034576544e-07
-2.40718205698e-09
3.35966255292e-07
-7.80472451396e-10
1.81981470051e-07
5.52526565569e-08
-8.89974437021e-08
2.19754999829e-06
-3.31785248349e-07
5.90961063532e-06
-6.58611407698e-07
8.68205921204e-06
-1.00270325741e-06
1.06374652659e-05
-1.3121147946e-06
1.18902988095e-05
-1.55262807132e-06
1.25489348987e-05
-1.70790286119e-06
1.27181991092e-05
-1.77687594562e-06
1.24989366023e-05
-1.76935537815e-06
1.19855619325e-05
-1.7011164833e-06
1.12630816108e-05
-1.58963534324e-06
1.04047738677e-05
-1.45110430927e-06
9.47108961174e-06
-1.29884337932e-06
8.50978430697e-06
-1.14284889052e-06
7.55697026259e-06
-9.90067299942e-07
6.63868910238e-06
-8.45003126764e-07
5.77266044591e-06
-7.1038171549e-07
4.96997430771e-06
-5.87714955467e-07
4.23660166144e-06
-4.77718342588e-07
3.5746752229e-06
-3.80587910152e-07
2.98353862232e-06
-2.96171115595e-07
2.46058471033e-06
-2.24069048595e-07
2.00191198946e-06
-1.63699904207e-07
1.60282899948e-06
-1.14343464564e-07
1.25823415592e-06
-7.51774562962e-08
9.62895150999e-07
-4.5310487058e-08
7.11648535833e-07
-2.38127159424e-08
4.99536805357e-07
-9.74381023666e-09
3.21897349528e-07
-2.17735191027e-09
1.74415011678e-07
5.30753046075e-08
-6.20094748762e-08
2.25955947325e-06
-2.1174824637e-07
6.05934940685e-06
-4.0216941119e-07
8.8724803779e-06
-5.91609267438e-07
1.08269051241e-05
-7.492143415e-07
1.20479038858e-05
-8.57765806093e-07
1.26574863659e-05
-9.12540394464e-07
1.27729736999e-05
-9.17973828594e-07
1.25043700387e-05
-8.83704220411e-07
1.19512923263e-05
-8.21143928571e-07
1.12005213205e-05
-7.41133051555e-07
1.03247629923e-05
-6.52708027432e-07
9.38266458867e-06
-5.6271983959e-07
8.41979612045e-06
-4.75958532301e-07
7.47020895608e-06
-3.95500532473e-07
6.55823110331e-06
-3.23100923531e-07
5.70026083761e-06
-2.59545589137e-07
4.90641897383e-06
-2.04937219263e-07
4.181993292e-06
-1.5891744481e-07
3.52865544884e-06
-1.208362356e-07
2.94545741339e-06
-8.98796332382e-08
2.42962810818e-06
-6.51643405463e-08
1.97719669695e-06
-4.58054438602e-08
1.58347010295e-06
-3.09622333843e-08
1.24339094555e-06
-1.98664501112e-08
9.5179936782e-07
-1.18369198949e-08
7.03619005693e-07
-6.2841677548e-09
4.93984053279e-07
-2.70813462918e-09
3.1832131645e-07
-6.91549391205e-10
1.72398426478e-07
5.23837552409e-08
-4.85749736938e-08
2.30813444684e-06
-1.73964646833e-07
6.18473907856e-06
-3.35215332592e-07
9.03373106075e-06
-4.96254088078e-07
1.09879438756e-05
-6.32354177823e-07
1.21840039712e-05
-7.30627063226e-07
1.27557592471e-05
-7.87831921457e-07
1.2830178554e-05
-8.071368648e-07
1.25236749782e-05
-7.95050143953e-07
1.1939205602e-05
-7.59136269125e-07
1.11646074426e-05
-7.06625674654e-07
1.02722523954e-05
-6.43743487744e-07
9.31978239934e-06
-5.75503780043e-07
8.35155641112e-06
-5.05753426783e-07
7.40045860115e-06
-4.37323094343e-07
6.48980076959e-06
-3.72206953394e-07
5.63514469562e-06
-3.1173436036e-07
4.84594637993e-06
-2.56719345679e-07
4.12697827663e-06
-2.07584534189e-07
3.47952063686e-06
-1.64460839853e-07
2.90233371859e-06
-1.27266135516e-07
2.39243340345e-06
-9.57666058716e-08
1.94569716702e-06
-6.96243147533e-08
1.55732781161e-06
-4.84340116205e-08
1.22220064222e-06
-3.17515856092e-08
9.35116941658e-07
-1.91159902473e-08
6.90983410211e-07
-1.00659828881e-08
4.84934045824e-07
-4.15267446597e-09
3.12408007953e-07
-9.48655827693e-10
1.69194407782e-07
5.14350993975e-08
-3.52642147e-08
2.34339866165e-06
-1.21710211044e-07
6.27118507556e-06
-2.30244391455e-07
9.14226524268e-06
-3.36258334122e-07
1.10939578203e-05
-4.2332827311e-07
1.22710739123e-05
-4.83477375106e-07
1.28159083513e-05
-5.1531550396e-07
1.28620166848e-05
-5.21618615429e-07
1.25299780915e-05
-5.07222493124e-07
1.19248094812e-05
-4.77542207852e-07
1.11349271585e-05
-4.37693005549e-07
1.02324031944e-05
-3.92058072348e-07
9.27414746695e-06
-3.44140811949e-07
8.30363915165e-06
-2.96578187665e-07
7.35289597745e-06
-2.51234692005e-07
6.44445727447e-06
-2.09328880346e-07
5.59323888441e-06
-1.71565291878e-07
4.80818279181e-06
-1.38257285609e-07
4.09367027065e-06
-1.09433904709e-07
3.45069725623e-06
-8.49283825464e-08
2.87782819662e-06
-6.44485058724e-08
2.37195352691e-06
-4.76304649387e-08
1.92887912622e-06
-3.40784856239e-08
1.5437758324e-06
-2.33927409246e-08
1.21151489759e-06
-1.51879619316e-08
9.26912162729e-07
-9.10493238433e-09
6.84900380714e-07
-4.81673716265e-09
4.80645850644e-07
-2.03129727557e-09
3.09622568098e-07
-4.91394625668e-10
1.67654505156e-07
5.09437047701e-08
-2.70627683749e-08
2.37046142999e-06
-9.55099301127e-08
6.33963223661e-06
-1.82365785221e-07
9.2291210971e-06
-2.68071748209e-07
1.11796637828e-05
-3.39715814169e-07
1.2342717978e-05
-3.90906412376e-07
1.28670989493e-05
-4.20246473664e-07
1.2891356746e-05
-4.2951501127e-07
1.25392466291e-05
-4.22126174421e-07
1.19174206443e-05
-4.02040227246e-07
1.11148412113e-05
-3.73094859159e-07
1.02034578264e-05
-3.38654183732e-07
9.23970679141e-06
-3.0146995576e-07
8.2664549238e-06
-2.63670807821e-07
7.31509682945e-06
-2.26819868143e-07
6.4076063348e-06
-1.92001874333e-07
5.55842089061e-06
-1.59916408863e-07
4.77609732634e-06
-1.30964668129e-07
4.06471852993e-06
-1.05324157145e-07
3.42505674529e-06
-8.3009865071e-08
2.85551390455e-06
-6.39226906472e-08
2.35286635248e-06
-4.78868563695e-08
1.91284329195e-06
-3.46782938726e-08
1.53056726991e-06
-2.40458569985e-08
1.20088246072e-06
-1.57269423374e-08
9.18593248069e-07
-9.458791306e-09
6.78632229684e-07
-4.98647203173e-09
4.76173531369e-07
-2.0683145718e-09
3.06704410639e-07
-4.79399935522e-10
1.66065590519e-07
5.04643048456e-08
-2.01605169076e-08
2.39062194693e-06
-7.00768379737e-08
6.38954855776e-06
-1.32922295923e-07
9.29196655572e-06
-1.94534257246e-07
1.12412757454e-05
-2.45553635005e-07
1.23937373572e-05
-2.81394142689e-07
1.29029394587e-05
-3.01134772126e-07
1.29110973771e-05
-3.06189532326e-07
1.25443013908e-05
-2.99172822655e-07
1.19104039361e-05
-2.83089700942e-07
1.10987580908e-05
-2.6083390891e-07
1.01812020355e-05
-2.34923241845e-07
9.21379612519e-06
-2.07396019758e-07
8.23892770259e-06
-1.79805527052e-07
7.28750633736e-06
-1.53266821215e-07
6.38106762951e-06
-1.28526082838e-07
5.5336801527e-06
-1.06034680753e-07
4.75360592463e-06
-8.60183683387e-08
4.04470221783e-06
-6.85372326269e-08
3.40757560985e-06
-5.35350714355e-08
2.84051174356e-06
-4.08785234252e-08
2.34020980462e-06
-3.03870692177e-08
1.90235183788e-06
-2.18553186345e-08
1.52203551944e-06
-1.50690252781e-08
1.19409616744e-06
-9.81615714729e-09
9.13340380006e-07
-5.89417744151e-09
6.74710250032e-07
-3.11449693765e-09
4.7339385091e-07
-1.3048727217e-09
3.04894786458e-07
-3.10359024809e-10
1.65071076846e-07
5.015394584e-08
-1.54496400742e-08
2.40607158707e-06
-5.42648038353e-08
6.42836372187e-06
-1.03439061187e-07
9.34114081287e-06
-1.51939318124e-07
1.12897760014e-05
-1.92456060222e-07
1.24342540979e-05
-2.21347454912e-07
1.29318308518e-05
-2.37797563131e-07
1.29275474837e-05
-2.42806733969e-07
1.254931056e-05
-2.38324468602e-07
1.19059216692e-05
-2.26625333122e-07
1.10870589539e-05
-2.09918832242e-07
1.01644955334e-05
-1.90141737983e-07
9.19401902981e-06
-1.68875060995e-07
8.21766102476e-06
-1.47337014661e-07
7.26596829022e-06
-1.26416592983e-07
6.3601472072e-06
-1.06724587322e-07
5.51398814651e-06
-8.86482314477e-08
4.73552956832e-06
-7.24021252141e-08
4.02845611123e-06
-5.80721755756e-08
3.39324565994e-06
-4.56516800526e-08
2.82809124779e-06
-3.50699355466e-08
2.32962805991e-06
-2.62143184264e-08
1.8934962206e-06
-1.89469459761e-08
1.51476814686e-06
-1.31169878382e-08
1.1882662092e-06
-8.56956408149e-09
9.08792956166e-07
-5.15200815544e-09
6.71292694038e-07
-2.71812107297e-09
4.70959963775e-07
-1.13091143844e-09
3.03307576781e-07
-2.64207679626e-10
1.64204373048e-07
4.98897381188e-08
-1.17085332183e-08
2.41778012038e-06
-4.08612322138e-08
6.45751642137e-06
-7.76857971166e-08
9.37796537859e-06
-1.13917780114e-07
1.13260079853e-05
-1.44067968249e-07
1.24644042869e-05
-1.654100814e-07
1.29531729658e-05
-1.7735460453e-07
1.29394920075e-05
-1.80686030077e-07
1.25526419862e-05
-1.76904157823e-07
1.19021397974e-05
-1.67749260362e-07
1.10779040568e-05
-1.54905579862e-07
1.01516518533e-05
-1.3984407566e-07
9.17895752584e-06
-1.23760162257e-07
8.20157711164e-06
-1.07569237423e-07
7.24977736555e-06
-9.19330621173e-08
6.34451103204e-06
-7.72994187967e-08
5.49935450332e-06
-6.3944590134e-08
4.72217473975e-06
-5.20130627908e-08
4.01652458397e-06
-4.15519195895e-08
3.38278451681e-06
-3.25391712978e-08
2.81907849955e-06
-2.49062384128e-08
2.32199512706e-06
-1.8555246288e-08
1.88714522851e-06
-1.33719566874e-08
1.50958485729e-06
-9.23516122982e-09
1.18412941375e-06
-6.02328699025e-09
9.05581081938e-07
-3.61885786188e-09
6.68888264919e-07
-1.91134288369e-09
4.69252448806e-07
-7.9881735725e-10
3.0219505126e-07
-1.8876994848e-10
1.63594325636e-07
4.97009681508e-08
-8.99492063137e-09
2.42677504085e-06
-3.15350167737e-08
6.48005651626e-06
-6.00859758747e-08
9.40651633554e-06
-8.82517593553e-08
1.13541737662e-05
-1.11778834385e-07
1.24879313593e-05
-1.28540410995e-07
1.29699345399e-05
-1.38056453407e-07
1.29490080476e-05
-1.40908893833e-07
1.25554944246e-05
-1.38235791675e-07
1.18994666935e-05
-1.31366034592e-07
1.10710342982e-05
-1.21590696309e-07
1.01418765138e-05
-1.10041270053e-07
9.16740809849e-06
-9.76409165383e-08
8.18917675729e-06
-8.51002094952e-08
7.23723665777e-06
-7.29366844948e-08
6.33234750645e-06
-6.15046607522e-08
5.4879224791e-06
-5.1027272714e-08
4.71169735132e-06
-4.16264039357e-08
4.00712371488e-06
-3.33485882768e-08
3.37450670091e-06
-2.61863307246e-08
2.81191624179e-06
-2.00950379256e-08
2.31590383409e-06
-1.50060866547e-08
1.8820562771e-06
-1.08366663609e-08
1.50541543688e-06
-7.49701891785e-09
1.18078976622e-06
-4.89563004186e-09
9.02979692989e-07
-2.94283936429e-09
6.66935474183e-07
-1.55324908306e-09
4.67862858478e-07
-6.47233432606e-10
3.01289035573e-07
-1.51785583958e-10
1.63098877751e-07
4.95491825661e-08
-6.8806074432e-09
2.43365564823e-06
-2.40549770519e-08
6.49723088547e-06
-4.57805255377e-08
9.42824188294e-06
-6.71893808783e-08
1.137558262e-05
-8.50417136695e-08
1.25057836903e-05
-9.77204990659e-08
1.29826133235e-05
-1.04866538446e-07
1.29561540852e-05
-1.0693156721e-07
1.25575594517e-05
-1.04791241418e-07
1.18973263662e-05
-9.94656175291e-08
1.1065708673e-05
-9.19442675067e-08
1.01343551627e-05
-8.30932267365e-08
9.15855705675e-06
-7.36178354781e-08
8.17970136528e-06
-6.40596428867e-08
7.2276784645e-06
-5.48115449512e-08
6.32309940797e-06
-4.61408132255e-08
5.47925174692e-06
-3.82138470481e-08
4.70377038477e-06
-3.11193433276e-08
4.00002921085e-06
-2.48883829953e-08
3.36827574033e-06
-1.95109902066e-08
2.8065388488e-06
-1.49492874959e-08
2.31134213121e-06
-1.11476362759e-08
1.87825462575e-06
-8.04024425987e-09
1.50230804476e-06
-5.5567203227e-09
1.17830624219e-06
-3.62601128915e-09
9.01048983882e-07
-2.17909164526e-09
6.65488554479e-07
-1.15071119067e-09
4.66834477976e-07
-4.804448365e-10
3.00618769181e-07
-1.13235779708e-10
1.62731668653e-07
4.94359467597e-08
-5.29642925921e-09
2.43895207751e-06
-1.85528207388e-08
6.51048727711e-06
-3.53414105095e-08
9.44503047311e-06
-5.19034109737e-08
1.1392144621e-05
-6.5736416502e-08
1.25196166964e-05
-7.55881317466e-08
1.29924650394e-05
-8.11753708482e-08
1.29617413249e-05
-8.28404221109e-08
1.25592245035e-05
-8.12533985443e-08
1.18957393431e-05
-7.71971129319e-08
1.10616523878e-05
-7.14323222338e-08
1.01285903723e-05
-6.46258737683e-08
9.15175060854e-06
-5.732185537e-08
8.17239734713e-06
-4.99389818311e-08
7.22029559113e-06
-4.27820432037e-08
6.31594246949e-06
-3.60594491192e-08
5.47252915296e-06
-2.99021151637e-08
4.6976130509e-06
-2.43811440705e-08
3.99450823983e-06
-1.95231492563e-08
3.36341774558e-06
-1.53228853232e-08
2.8023385849e-06
-1.17532867969e-08
2.30777253271e-06
-8.77321891324e-09
1.87527455789e-06
-6.33331146312e-09
1.49986813733e-06
-4.38024235786e-09
1.17635317309e-06
-2.85979943639e-09
8.99528540967e-07
-1.7189989007e-09
6.64347753945e-07
-9.07487931607e-10
4.66022967009e-07
-3.78413099354e-10
3.00089694351e-07
-8.88968752931e-11
1.62442152414e-07
4.93470498626e-08
-4.07041930685e-09
2.44302249676e-06
-1.42408154906e-08
6.52065767294e-06
-2.71133886903e-08
9.45790304653e-06
-3.98058568425e-08
1.14048370901e-05
-5.0398960679e-08
1.25302098017e-05
-5.79330978573e-08
1.29999991782e-05
-6.21927989607e-08
1.29660010277e-05
-6.34427709844e-08
1.25604744772e-05
-6.21992016345e-08
1.18944957753e-05
-5.90644705003e-08
1.1058517658e-05
-5.46236252103e-08
1.01241495283e-05
-4.93891979125e-08
9.14651618229e-06
-4.37790690543e-08
8.1667872192e-06
-3.81144942509e-08
7.21463101709e-06
-3.26289424751e-08
6.31045691835e-06
-2.74816277455e-08
5.46738183876e-06
-2.27720819425e-08
4.69290350553e-06
-1.85538086239e-08
3.99028996687e-06
-1.48461266662e-08
3.35971006391e-06
-1.1643939272e-08
2.79913639774e-06
-8.92550020788e-09
2.30505409383e-06
-6.65840674111e-09
1.87300746457e-06
-4.80410297417e-09
1.49801383367e-06
-3.32117622206e-09
1.17487024643e-06
-2.1677014803e-09
8.98375066296e-07
-1.30285141466e-09
6.63482903933e-07
-6.87950374536e-10
4.65408066013e-07
-2.8711532102e-10
2.99688859332e-07
-6.75956069312e-11
1.62222632708e-07
4.92794542699e-08
-3.13735412187e-09
2.44615985085e-06
-1.0985561696e-08
6.52850588057e-06
-2.09237519789e-08
9.46784123671e-06
-3.07274100571e-08
1.1414640748e-05
-3.89151736115e-08
1.2538397565e-05
-4.47455795552e-08
1.30058295839e-05
-4.80508881888e-08
1.29693063361e-05
-4.90337292287e-08
1.2561457318e-05
-4.80909173002e-08
1.18935529632e-05
-4.5686084279e-08
1.10561128248e-05
-4.22698672278e-08
1.01207333111e-05
-3.82373252159e-08
9.14248364015e-06
-3.39108168283e-08
8.16246071074e-06
-2.95384191452e-08
7.21025861932e-06
-2.53006846494e-08
6.3062191838e-06
-2.13210209362e-08
5.46340217499e-06
-1.76768771589e-08
4.68925936171e-06
-1.44102261944e-08
3.98702331587e-06
-1.15366563681e-08
3.35683649405e-06
-9.05287048166e-09
2.79665261182e-06
-6.94264901048e-09
2.30294387233e-06
-5.18145518672e-09
1.87124627072e-06
-3.73990061526e-09
1.49657227908e-06
-2.58628826567e-09
1.17371663406e-06
-1.68842790154e-09
8.97477205912e-07
-1.01488956988e-09
6.62809365586e-07
-5.35830939913e-10
4.64929007369e-07
-2.23506912661e-10
2.99376535295e-07
-5.2546602359e-11
1.62051672368e-07
4.9226907643e-08
-2.41689889245e-09
2.44857674985e-06
-8.45839276455e-09
6.53454737549e-06
-1.6106718848e-08
9.47548956402e-06
-2.36498440183e-08
1.14221838742e-05
-2.99476145839e-08
1.25446953364e-05
-3.44295938182e-08
1.30103115638e-05
-3.6967137175e-08
1.297184388e-05
-3.77167658985e-08
1.25622069472e-05
-3.69844604019e-08
1.1892820658e-05
-3.51275598305e-08
1.10542559245e-05
-3.24932953096e-08
1.01180990468e-05
-2.93859996976e-08
9.13937634467e-06
-2.60539277768e-08
8.15912863893e-06
-2.26880470344e-08
7.20689273865e-06
-1.94272517872e-08
6.30295838861e-06
-1.63663701035e-08
5.46034129335e-06
-1.35647948809e-08
4.68645778652e-06
-1.10545745256e-08
3.98451309553e-06
-8.84743330086e-09
3.35462935284e-06
-6.94056375414e-09
2.79474574228e-06
-5.32123340699e-09
2.30132454197e-06
-3.97034154913e-09
1.86989537885e-06
-2.86509412228e-09
1.49546703164e-06
-1.98096394162e-09
1.17283250387e-06
-1.29308713085e-09
8.9678932909e-07
-7.77224262296e-10
6.62293502708e-07
-4.10391695197e-10
4.64562174792e-07
-1.71247489596e-10
2.99137391081e-07
-4.02981227908e-11
1.6192072297e-07
4.9186609464e-08
-1.86448761203e-09
2.4504412374e-06
-6.52746952892e-09
6.53921035717e-06
-1.2431861244e-08
9.48139395503e-06
-1.82561852962e-08
1.14280081972e-05
-2.31203697123e-08
1.25495595197e-05
-2.6583903184e-08
1.30137750961e-05
-2.85471267875e-08
1.29738071024e-05
-2.91304282127e-08
1.25627902475e-05
-2.85695767568e-08
1.18922598056e-05
-2.71400569014e-08
1.10528264038e-05
-2.51096491423e-08
1.01160686383e-05
-2.27131237933e-08
9.13697981873e-06
-2.01420587965e-08
8.15655757345e-06
-1.75438911933e-08
7.20429457063e-06
-1.50259245959e-08
6.30044042167e-06
-1.26614923173e-08
5.45797686079e-06
-1.04966031961e-08
4.68429289716e-06
-8.55617177543e-09
3.98257266391e-06
-6.84942422117e-09
3.35292260513e-06
-5.37435878637e-09
2.7932706767e-06
-4.12129368856e-09
2.30007147676e-06
-3.07560739606e-09
1.86884969246e-06
-2.21980081382e-09
1.49461122498e-06
-1.53501015706e-09
1.17214771314e-06
-1.00208645268e-09
8.96256405328e-07
-6.02340307572e-10
6.61893756516e-07
-3.18032836326e-10
4.64277867282e-07
-1.32677419697e-10
2.98952035634e-07
-3.1203081723e-11
1.61819248579e-07
4.91554063401e-08
-1.43816421789e-09
2.45187940145e-06
-5.03379396776e-09
6.54280598602e-06
-9.58615665193e-09
9.48594631607e-06
-1.40763568582e-08
1.14324983955e-05
-1.78258229273e-08
1.25533089838e-05
-2.04949681173e-08
1.30164442394e-05
-2.20070715117e-08
1.29753192042e-05
-2.24551011722e-08
1.25632382757e-05
-2.20209870212e-08
1.18918256902e-05
-2.09172625559e-08
1.10517226783e-05
-1.93504943821e-08
1.01145018693e-05
-1.75017669751e-08
9.13513109057e-06
-1.55188316817e-08
8.15457463754e-06
-1.35153771023e-08
7.20229111553e-06
-1.1574122064e-08
6.29849916621e-06
-9.7515718642e-09
5.45615431024e-06
-8.08314756637e-09
4.68262447257e-06
-6.58799536651e-09
3.98107751147e-06
-5.27316047401e-09
3.35160777004e-06
-4.13703157019e-09
2.79213454764e-06
-3.17208073692e-09
2.29910652579e-06
-2.3669795359e-09
1.86804459115e-06
-1.70819102716e-09
1.49395243638e-06
-1.18113706416e-09
1.1716206591e-06
-7.7103046693e-10
8.95846298664e-07
-4.63448384199e-10
6.61586174378e-07
-2.44709455078e-10
4.64059128307e-07
-1.02104883439e-10
2.98809431028e-07
-2.40227782709e-11
1.61741166417e-07
4.91313835338e-08
-1.11007960983e-09
2.45298948097e-06
-3.88604961537e-09
6.54558195567e-06
-7.40096617825e-09
9.4894612315e-06
-1.08681779842e-08
1.14359656056e-05
-1.37637834064e-08
1.25562045873e-05
-1.58255505944e-08
1.30185060046e-05
-1.69941554497e-08
1.29764878071e-05
-1.73412656807e-08
1.25635853842e-05
-1.7007236258e-08
1.18914916592e-05
-1.6156068085e-08
1.10508715087e-05
-1.49471805853e-08
1.01132929806e-05
-1.35203460849e-08
9.13370425504e-06
-1.19896261197e-08
8.15304391672e-06
-1.04428041107e-08
7.20074429279e-06
-8.9437687457e-09
6.29700013024e-06
-7.53618146872e-09
5.45474672246e-06
-6.24743230922e-09
4.681335723e-06
-5.09234912392e-09
3.97992242794e-06
-4.0764167427e-09
3.35059183737e-06
-3.19843361676e-09
2.79125656427e-06
-2.45262518899e-09
2.29836071717e-06
-1.83027638591e-09
1.86742224218e-06
-1.32096013186e-09
1.49344311999e-06
-9.13438574674e-10
1.17121313743e-06
-5.96306011933e-10
8.95529166007e-07
-3.58432302499e-10
6.61348300592e-07
-1.89255003859e-10
4.63889950946e-07
-7.89587644835e-11
2.98699134739e-07
-1.85722994362e-11
1.6168077988e-07
4.91128111786e-08
-8.56849341166e-10
2.45384633029e-06
-2.9992781235e-09
6.54772438466e-06
-5.71187366754e-09
9.49217382792e-06
-8.38753933149e-09
1.14386412728e-05
-1.06219540948e-08
1.25584390039e-05
-1.2212759101e-08
1.30200968116e-05
-1.31142037659e-08
1.29773892537e-05
-1.33816359841e-08
1.25638528182e-05
-1.31234117961e-08
1.18912334367e-05
-1.24661307831e-08
1.10502142292e-05
-1.15328496912e-08
1.01123597008e-05
-1.04314549005e-08
9.13260286133e-06
-9.24998280545e-09
8.15186244554e-06
-8.05618240737e-09
7.19955049316e-06
-6.89935544477e-09
6.2958433039e-06
-5.81318781788e-09
5.45366055535e-06
-4.81880381056e-09
4.6803413394e-06
-3.92763014015e-09
3.9790312546e-06
-3.14388183174e-09
3.34980808933e-06
-2.46661384598e-09
2.7905792965e-06
-1.89135324321e-09
2.29778545673e-06
-1.41135988789e-09
1.86694224895e-06
-1.01857509395e-09
1.49305033529e-06
-7.043173497e-10
1.17089887976e-06
-4.59778462875e-10
8.95284627175e-07
-2.76365533232e-10
6.61164887704e-07
-1.45926045106e-10
4.63759511489e-07
-6.08858960352e-11
2.98614094617e-07
-1.43238185557e-11
1.61634217786e-07
4.90984873361e-08
-6.61609708198e-10
2.45450793986e-06
-2.31602573636e-09
6.54937880032e-06
-4.41081045113e-09
9.49426861269e-06
-6.47714547208e-09
1.14407076086e-05
-8.20280308967e-09
1.25601646627e-05
-9.43150555763e-09
1.30213255155e-05
-1.01279021966e-08
1.29780856519e-05
-1.03347082423e-08
1.25640596258e-05
-1.0135573501e-08
1.18910343033e-05
-9.62823998876e-09
1.10497068969e-05
-8.9077198552e-09
1.01116391818e-05
-8.05731674933e-09
9.1317524592e-06
-7.1450115851e-09
8.15095014122e-06
-6.2231238123e-09
7.19862860609e-06
-5.32973127196e-09
6.29494991195e-06
-4.4908555931e-09
5.45282168016e-06
-3.72281967844e-09
4.67957330388e-06
-3.03445846457e-09
3.97834289371e-06
-2.42903779042e-09
3.34920266891e-06
-1.90583804743e-09
2.79005609695e-06
-1.46141410973e-09
2.29734103295e-06
-1.09056858383e-09
1.86657140355e-06
-7.87084219096e-10
1.49274685102e-06
-5.44261168831e-10
1.17065605678e-06
-3.55300226787e-10
8.95095666286e-07
-2.1356708489e-10
6.61023154602e-07
-1.12766373234e-10
4.63658710809e-07
-4.70484893233e-11
2.98548376759e-07
-1.10672959898e-11
1.61598236577e-07
4.90874200323e-08
-5.10874596249e-10
2.45501881447e-06
-1.78829003485e-09
6.55065621646e-06
-3.40568834015e-09
9.49588601175e-06
-5.00108548813e-09
1.14423030064e-05
-6.3334047795e-09
1.25614969826e-05
-7.28198780444e-09
1.30222740991e-05
-7.81955065289e-09
1.29786232152e-05
-7.97908701833e-09
1.25642191625e-05
-7.82519617999e-09
1.18908804128e-05
-7.43335630307e-09
1.10493150573e-05
-6.87693529332e-09
1.0111082761e-05
-6.22025811575e-09
9.13109578224e-06
-5.51581628585e-09
8.15024569957e-06
-4.80400654185e-09
7.19791679649e-06
-4.11422746652e-09
6.29426013299e-06
-3.46656724484e-09
5.45217402002e-06
-2.87362435827e-09
4.67898036106e-06
-2.34221502912e-09
3.97781148442e-06
-1.8748552362e-09
3.34873530915e-06
-1.47098390765e-09
2.78965222564e-06
-1.127936048e-09
2.29699798509e-06
-8.41694430359e-10
1.86628516193e-06
-6.07455249492e-10
1.49251261184e-06
-4.2004298696e-10
1.17046864451e-06
-2.7420628586e-10
8.94949829575e-07
-1.64821908834e-10
6.60913770214e-07
-8.70289977468e-11
4.63580917889e-07
-3.63114277029e-11
2.98497659181e-07
-8.54222868749e-12
1.61570467333e-07
4.90788777463e-08
-3.94546009789e-10
2.45541336055e-06
-1.38112760245e-09
6.55164279904e-06
-2.63030327893e-09
9.49713518825e-06
-3.86249727318e-09
1.14435352008e-05
-4.89151705306e-09
1.25625260025e-05
-5.62417280163e-09
1.30230067547e-05
-6.03938985022e-09
1.29790384319e-05
-6.16264709047e-09
1.25643424194e-05
-6.04383323829e-09
1.18907615986e-05
-5.74123945432e-09
1.10490124632e-05
-5.31152775454e-09
1.0110653049e-05
-4.80437677827e-09
9.13058863094e-06
-4.26032659796e-09
8.1497016491e-06
-3.71057679964e-09
7.19736704643e-06
-3.17783332742e-09
6.2937273893e-06
-2.67761187288e-09
5.45167379838e-06
-2.21964392785e-09
4.67852239295e-06
-1.80919537634e-09
3.97740103573e-06
-1.44821097287e-09
3.34837432462e-06
-1.13625895752e-09
2.78934027352e-06
-8.71282527988e-10
2.29673300857e-06
-6.50180333825e-10
1.86606405966e-06
-4.69243311689e-10
1.49233167474e-06
-3.24475074365e-10
1.17032387621e-06
-2.11820434297e-10
8.94837174883e-07
-1.27322945881e-10
6.60829272679e-07
-6.72286164411e-11
4.63520823522e-07
-2.80495550164e-11
2.98458480088e-07
-6.59831355458e-12
1.61549016026e-07
4.90722793497e-08
-3.04712716319e-10
2.45571807312e-06
-1.06664395199e-09
6.55240472978e-06
-2.03136163477e-09
9.49809990494e-06
-2.98294752279e-09
1.14444867855e-05
-3.77760565783e-09
1.25633206594e-05
-4.34336958057e-09
1.30235725175e-05
-4.66396955621e-09
1.29793590309e-05
-4.75908968211e-09
1.25644375386e-05
-4.66726506171e-09
1.18906697732e-05
-4.43351864991e-09
1.10487787161e-05
-4.10161360864e-09
1.01103211433e-05
-3.70991829355e-09
9.13019693513e-06
-3.28974195946e-09
8.14928147236e-06
-2.86517909142e-09
7.19694248322e-06
-2.45376367113e-09
6.29331597359e-06
-2.06747607591e-09
5.45128751054e-06
-1.7138292164e-09
4.67816874589e-06
-1.3968871147e-09
3.97708409345e-06
-1.11814898393e-09
3.34809558635e-06
-8.77278888506e-10
2.7890994033e-06
-6.72686233867e-10
2.29652841581e-06
-5.0197413259e-10
1.86589334747e-06
-3.62276798007e-10
1.49219197733e-06
-2.50506974779e-10
1.17021210632e-06
-1.63532388678e-10
8.94750200238e-07
-9.82973625884e-11
6.60764037604e-07
-5.1902864293e-11
4.63474428984e-07
-2.16555819852e-11
2.98428232775e-07
-5.09440427638e-12
1.61532454784e-07
4.90671848982e-08
-2.35348430594e-10
2.45595342132e-06
-8.23847064215e-10
6.55299322732e-06
-1.56897469303e-09
9.4988450305e-06
-2.30395474605e-09
1.14452217631e-05
-2.91771995618e-09
1.25639344221e-05
-3.35468567566e-09
1.30240094808e-05
-3.60228798401e-09
1.2979606631e-05
-3.67573351241e-09
1.25645109822e-05
-3.60478878604e-09
1.18905988268e-05
-3.42423072749e-09
1.10485981566e-05
-3.16786240655e-09
1.01100647738e-05
-2.86531925047e-09
9.12989439097e-06
-2.54078371825e-09
8.148956936e-06
-2.21286523369e-09
7.19661456404e-06
-1.89510571561e-09
6.2929982135e-06
-1.59675744222e-09
5.4509891618e-06
-1.32362211303e-09
4.67789561018e-06
-1.07883765521e-09
3.97683930867e-06
-8.63561139572e-10
3.34788030957e-06
-6.77532389125e-10
2.78891337433e-06
-5.1952233832e-10
2.29637040557e-06
-3.87679336939e-10
1.86576150431e-06
-2.79789725942e-10
1.49208408759e-06
-1.93468926081e-10
1.17012578541e-06
-1.26297699206e-10
8.94683028922e-07
-7.59160555101e-11
6.60713655888e-07
-4.0085059712e-11
4.63438597927e-07
-1.67247052677e-11
2.98404872374e-07
-3.93437104191e-12
1.61519664373e-07
4.90632504859e-08
-1.8177240529e-10
2.45613519365e-06