/*--------------------------------*- C++ -*----------------------------------*\
  =========                 |
  \\      /  F ield         | OpenFOAM: The Open Source CFD Toolbox
   \\    /   O peration     | Website:  https://openfoam.org
    \\  /    A nd           | Version:  12
     \\/     M anipulation  |
\*---------------------------------------------------------------------------*/
FoamFile
{
    format      ascii;
    class       surfaceScalarField;
    location    "300";
    object      phi;
}
// * * * * * * * * * * * * * * * * * * * * * * * * * * * * * * * * * * * * * //

dimensions      [0 3 -1 0 0 0 0];

internalField   nonuniform List<scalar> 
5870
(
-3.79187749967e-07
1.61328522787e-06
-1.45383763884e-06
4.40734193638e-06
-3.06654771701e-06
6.56184039081e-06
-5.0812815526e-06
8.1822245762e-06
-7.38655013156e-06
9.36376112668e-06
-9.88353871897e-06
1.01785232342e-05
-1.24795706776e-05
1.06824612597e-05
-1.50850523998e-05
1.09203575133e-05
-1.76130864046e-05
1.09297466328e-05
-1.99810252487e-05
1.0743920119e-05
-2.21131552274e-05
1.0393959352e-05
-2.39436922821e-05
9.90981438256e-06
-2.54193969097e-05
9.32057343749e-06
-2.65013370843e-05
8.6541622639e-06
-2.71655812447e-05
7.93674181073e-06
-2.74028303394e-05
7.19204296959e-06
-2.72171592786e-05
6.44081118045e-06
-2.6624125848e-05
5.70045727472e-06
-2.56485260244e-05
4.98494339504e-06
-2.43220481008e-05
4.3048840358e-06
-2.26810244256e-05
3.66781432576e-06
-2.07644170305e-05
3.07856762524e-06
-1.8612113772e-05
2.53970702794e-06
-1.62635625033e-05
2.05196512724e-06
-1.37567348868e-05
1.61465900657e-06
-1.11273884157e-05
1.22605991758e-06
-8.40858300253e-06
8.83707690912e-07
-5.63040451411e-06
5.84667577458e-07
-2.81984811792e-06
3.25731612552e-07
1.02751482464e-07
-2.12896567113e-07
1.82618179519e-06
-7.03341559498e-07
4.89778692787e-06
-1.41430296455e-06
7.27280179557e-06
-2.30030350676e-06
9.06822511865e-06
-3.30079264481e-06
1.03642502649e-05
-4.34777339921e-06
1.12255039898e-05
-5.37140599381e-06
1.17060938548e-05
-6.30564257986e-06
1.18545941e-05
-7.09364309436e-06
1.17177471473e-05
-7.69218360989e-06
1.13424606332e-05
-8.07437275451e-06
1.07761484984e-05
-8.23036990849e-06
1.00658115334e-05
-8.16622054623e-06
9.25642407833e-06
-7.90124463237e-06
8.38918634771e-06
-7.4645712441e-06
7.50006842218e-06
-6.89141412692e-06
6.61888585242e-06
-6.21957363848e-06
5.76897069163e-06
-5.48648913454e-06
4.96737277077e-06
-4.72700108429e-06
4.22545534624e-06
-3.97184630252e-06
3.54972925386e-06
-3.24681635078e-06
2.94278437328e-06
-2.57245836615e-06
2.40420964085e-06
-1.96418103434e-06
1.93142969645e-06
-1.43263521684e-06
1.5204193094e-06
-9.84258405836e-07
1.16628219555e-06
-6.21896582548e-07
8.63698094299e-07
-3.45440903952e-07
6.07252012351e-07
-1.52437491218e-07
3.91664164726e-07
-3.86461915765e-08
2.11940312924e-07
6.41052908866e-08
-1.73034823727e-07
1.99921661909e-06
-6.86878054137e-07
5.41163015759e-06
-1.42800906668e-06
8.01393280788e-06
-2.28210246781e-06
9.92231851998e-06
-3.15188852098e-06
1.12340363182e-05
-3.95549959011e-06
1.20291150599e-05
-4.62847727826e-06
1.23790715434e-05
-5.12635578432e-06
1.23524726066e-05
-5.4259932614e-06
1.20173846245e-05
-5.5247385861e-06
1.1441205957e-05
-5.43739919485e-06
1.06888091084e-05
-5.19162824709e-06
9.82004058391e-06
-4.8226571373e-06
8.88745297035e-06
-4.36827736602e-06
7.93480657526e-06
-3.86473203998e-06
6.99652309607e-06
-3.3438492102e-06
6.09800302269e-06
-2.83144821697e-06
5.25656969827e-06
-2.34683942739e-06
4.48276398121e-06
-1.90313168434e-06
3.7817476038e-06
-1.50804347104e-06
3.15464104053e-06
-1.1649525868e-06
2.5996934888e-06
-8.73984829166e-07
2.1132418833e-06
-6.33012025353e-07
1.69045689275e-06
-4.38490308629e-07
1.32589759259e-06
-2.86115057577e-07
1.0139069445e-06
-1.7129892472e-07
7.4888196145e-07
-8.94962508996e-08
5.25449338545e-07
-3.64042945537e-08
3.38572208385e-07
-8.07216174508e-09
1.83608180121e-07
5.60331291452e-08
-1.09335925074e-07
2.10855254428e-06
-3.64528573119e-07
5.66682280539e-06
-7.05828782379e-07
8.3552330173e-06
-1.07688363661e-06
1.02933733747e-05
-1.42373454581e-06
1.15808872278e-05
-1.70304106149e-06
1.23084215764e-05
-1.88689379254e-06
1.2562924275e-05
-1.96438466175e-06
1.24299634763e-05
-1.94008249968e-06
1.19930824627e-05
-1.83019701683e-06
1.1331320474e-05
-1.65764289009e-06
1.05162549822e-05
-1.44722293551e-06
9.60962062889e-06
-1.22181519252e-06
8.66204522796e-06
-9.99973370219e-07
7.71296475274e-06
-7.94920977817e-07
6.79147070371e-06
-6.14642594208e-07
5.91772463914e-06
-4.62668643363e-07
5.10459574744e-06
-3.39173118875e-07
4.35926845676e-06
-2.42097390864e-07
3.6846718759e-06
-1.68125448193e-07
3.08066909787e-06
-1.13433508104e-07
2.5450015487e-06
-7.42057235478e-08
2.07401409877e-06
-4.69470137582e-08
1.66319818298e-06
-2.86400513149e-08
1.30759063014e-06
-1.67942951072e-08
1.0020611883e-06
-9.42786175397e-09
7.415155281e-07
-5.01311665153e-09
5.21034593447e-07
-2.40717474204e-09
3.35966266479e-07
-7.80470756629e-10
1.81981476138e-07
5.52526583886e-08
-8.89974165765e-08
2.19754996096e-06
-3.31785156455e-07
5.90961054508e-06
-6.58611224055e-07
8.68205908509e-06
-1.00270296148e-06
1.06374651126e-05
-1.31211437196e-06
1.18902986387e-05
-1.55262751357e-06
1.25489347188e-05
-1.70790216588e-06
1.27181989279e-05
-1.77687511635e-06
1.24989364273e-05
-1.76935442467e-06
1.19855617713e-05
-1.70111542146e-06
1.12630814708e-05
-1.58963419454e-06
1.04047737559e-05
-1.45110310008e-06
9.47108953415e-06
-1.29884213953e-06
8.50978426807e-06
-1.14284765174e-06
7.5569702648e-06
-9.90066093597e-07
6.63868914567e-06
-8.45001982006e-07
5.77266052766e-06
-7.10380657452e-07
4.96997442294e-06
-5.87714003859e-07
4.23660180324e-06
-4.77717510815e-07
3.57467538306e-06
-3.80587204987e-07
2.98353879208e-06
-2.96170537397e-07
2.46058488108e-06
-2.24068591954e-07
2.00191215338e-06
-1.6369955895e-07
1.60282915003e-06
-1.14343216949e-07
1.25823428813e-06
-7.51772902866e-08
9.62895261653e-07
-4.53103855726e-08
7.11648623398e-07
-2.38126619726e-08
4.9953686986e-07
-9.74378779275e-09
3.21897392307e-07
-2.17734673598e-09
1.74415035088e-07
5.3075311654e-08
-6.20094071424e-08
2.25955936817e-06
-2.11748013682e-07
6.05934915144e-06
-4.02168945666e-07
8.87248001701e-06
-5.91608518561e-07
1.08269046855e-05
-7.49213273769e-07
1.20479033939e-05
-8.57764399056e-07
1.26574858442e-05
-9.12538643346e-07
1.27729731721e-05
-9.17971744975e-07
1.25043695289e-05
-8.83701832516e-07
1.19512918588e-05
-8.21141280695e-07
1.12005209188e-05
-7.41130202287e-07
1.03247626776e-05
-6.52705046614e-07
9.38266437817e-06
-5.62716804107e-07
8.41979602573e-06
-4.75955521178e-07
7.47020898168e-06
-3.9549762177e-07
6.55823124621e-06
-3.23098181649e-07
5.70026108751e-06
-2.59543072935e-07
4.90641931419e-06
-2.04934971361e-07
4.18199370164e-06
-1.58915492196e-07
3.52865590393e-06
-1.20834589535e-07
2.9454578894e-06
-8.98782902857e-08
2.42962858179e-06
-6.51632844906e-08
1.97719714758e-06
-4.58046482485e-08
1.58347051379e-06
-3.09616643803e-08
1.24339130425e-06
-1.98660693974e-08
9.51799666664e-07
-1.18366874197e-08
7.03619241416e-07
-6.2840441434e-09
4.9398422658e-07
-2.70808315015e-09
3.18321431312e-07
-6.9153744064e-10
1.72398489377e-07
5.23837742114e-08
-4.85748346568e-08
2.30813420289e-06
-1.73964166739e-07
6.18473848342e-06
-3.35214369274e-07
9.0337302195e-06
-4.96252536799e-07
1.0987942853e-05
-6.32351967102e-07
1.21840028241e-05
-7.30624154995e-07
1.27557580321e-05
-7.87828312445e-07
1.28301773295e-05
-8.071325876e-07
1.2523673804e-05
-7.95045266598e-07
1.19392045377e-05
-7.59130892392e-07
1.11646065443e-05
-7.0661992668e-07
1.02722517119e-05
-6.43737516215e-07
9.31978196739e-06
-5.7549774264e-07
8.3515562523e-06
-5.05747480909e-07
7.40045871976e-06
-4.37317387231e-07
6.48980115247e-06
-3.7220161356e-07
5.6351453138e-06
-3.11729491132e-07
4.84594719171e-06
-2.56715021172e-07
4.12697923166e-06
-2.07580797801e-07
3.4795216806e-06
-1.64457705075e-07
2.90233479665e-06
-1.27263588678e-07
2.39243446535e-06
-9.57646102983e-08
1.94569816919e-06
-6.96228158244e-08
1.55732871931e-06
-4.84329421912e-08
1.2222014306e-06
-3.17508713751e-08
9.35117595841e-07
-1.91155546752e-08
6.90983924711e-07
-1.00657514657e-08
4.84934423369e-07
-4.15257812852e-09
3.12408257972e-07
-9.48633467544e-10
1.69194544714e-07
5.14351407412e-08
-3.52639664149e-08
2.34339816933e-06
-1.21709351822e-07
6.27118386864e-06
-2.30242668404e-07
9.14226353599e-06
-3.36255564719e-07
1.10939557493e-05
-4.23324337421e-07
1.22710715968e-05
-4.83472216338e-07
1.28159059112e-05
-5.15309130618e-07
1.28620142439e-05
-5.21611101874e-07
1.25299757754e-05
-5.07213976547e-07
1.19248074124e-05
-4.77532880683e-07
1.11349254484e-05
-4.37683103344e-07
1.02324019347e-05
-3.92047858134e-07
9.27414672205e-06
-3.44130558638e-07
8.30363895294e-06
-2.96568160407e-07
7.35289632145e-06
-2.51225132243e-07
6.44445812431e-06
-2.09319992925e-07
5.59324017449e-06
-1.71557236063e-07
4.80818443484e-06
-1.38250170305e-07
4.0936721659e-06
-1.09427787728e-07
3.45069929806e-06
-8.49232733862e-08
2.8778302823e-06
-6.4444371246e-08
2.3719555632e-06
-4.76272362194e-08
1.92888103417e-06
-3.40760673385e-08
1.54377755044e-06
-2.33910195484e-08
1.2115163828e-06
-1.51868143251e-08
9.26913390618e-07
-9.1042333914e-09
6.84901343778e-07
-4.8163660511e-09
4.8064655603e-07
-2.03114281224e-09
3.09623034734e-07
-4.91358747555e-10
1.67654760652e-07
5.09437819964e-08
-2.7062366157e-08
2.3704605355e-06
-9.55085351012e-08
6.3396300374e-06
-1.82362990833e-07
9.2291179917e-06
-2.68067269232e-07
1.11796600279e-05
-3.3970947319e-07
1.2342713801e-05
-3.90898139596e-07
1.2867094578e-05
-4.20236308325e-07
1.2891352413e-05
-4.295030993e-07
1.25392425667e-05
-4.22112759542e-07
1.19174170729e-05
-4.0202563483e-07
1.11148383239e-05
-3.73079473739e-07
1.02034557739e-05
-3.38638422391e-07
9.23970567078e-06
-3.01454240176e-07
8.26645477101e-06
-2.63655537778e-07
7.31509761913e-06
-2.26805398907e-07
6.40760798556e-06
-1.91988499473e-07
5.55842327517e-06
-1.59904349346e-07
4.77610028479e-06
-1.309540677e-07
4.06472188433e-06
-1.05315083431e-07
3.42506031388e-06
-8.30023154344e-08
2.85551751435e-06
-6.39166015735e-08
2.35286984936e-06
-4.78821151404e-08
1.91284654777e-06
-3.46747513125e-08
1.53057018664e-06
-2.40433402862e-08
1.20088497179e-06
-1.57252670333e-08
9.1859531738e-07
-9.45777200177e-09
6.78633848759e-07
-4.98593121539e-09
4.76174715254e-07
-2.06808953057e-09
3.06705193058e-07
-4.79347646053e-10
1.66066018776e-07
5.04644343591e-08
-2.0159917558e-08
2.39062045308e-06
-7.00747589345e-08
6.38954487878e-06
-1.3291813921e-07
9.29196137199e-06
-1.94527616646e-07
1.12412695053e-05
-2.45544274611e-07
1.2393730459e-05
-2.81381993842e-07
1.29029322973e-05
-3.0111993121e-07
1.29110903503e-05
-3.06172251678e-07
1.25442948872e-05
-2.99153491514e-07
1.19103983127e-05
-2.83068816544e-07
1.10987536488e-05
-2.60812040149e-07
1.01811989976e-05
-2.34900989213e-07
9.21379461976e-06
-2.07373975677e-07
8.23892775756e-06
-1.79784240243e-07
7.28750788366e-06
-1.53246767882e-07
6.3810705132e-06
-1.28507646249e-07
5.53368415355e-06
-1.06018139705e-07
4.75361077825e-06
-8.60038940994e-08
4.04470763873e-06
-6.85248931589e-08
3.40758131297e-06
-5.35248414315e-08
2.84051746262e-06
-4.08702984132e-08
2.34021530634e-06
-3.03806820883e-08
1.90235693145e-06
-2.18505570525e-08
1.52204006161e-06
-1.5065648728e-08
1.19410006346e-06
-9.81391263975e-09
9.13343581294e-07
-5.89281317331e-09
6.74712749294e-07
-3.11377350872e-09
4.73395675593e-07
-1.30457172507e-09
3.04895991278e-07
-3.10289032249e-10
1.65071736086e-07
5.01541453277e-08
-1.54487998785e-08
2.406069253e-06
-5.42618885641e-08
6.42835796765e-06
-1.03433244935e-07
9.34113272863e-06
-1.51930059954e-07
1.12897663206e-05
-1.92443071394e-07
1.24342434707e-05
-2.21330688905e-07
1.29318199151e-05
-2.37777205105e-07
1.29275368667e-05
-2.42783179944e-07
1.25493008622e-05
-2.3829829154e-07
1.19059134244e-05
-2.26597237432e-07
1.10870525948e-05
-2.09889600895e-07
1.01644913612e-05
-1.90112177599e-07
9.19401719647e-06
-1.68845950113e-07
8.2176615302e-06
-1.47309059444e-07
7.265970993e-06
-1.2639039321e-07
6.36015184701e-06
-1.06700613958e-07
5.51399437433e-06
-8.86268157906e-08
4.73553698011e-06
-7.23834585204e-08
4.02846428148e-06
-5.80563174343e-08
3.39325417191e-06
-4.56385733598e-08
2.82809971856e-06
-3.50594259106e-08
2.32963615889e-06
-2.62061759262e-08
1.89350368147e-06
-1.89408874676e-08
1.51477477316e-06
-1.31126983534e-08
1.18827187435e-06
-8.56671621203e-09
9.08797599158e-07
-5.15027870923e-09
6.71296311795e-07
-2.71720455636e-09
4.70962601445e-07
-1.13053024644e-09
3.03309316974e-07
-2.64119083472e-10
1.64205324928e-07
4.98900262416e-08
-1.17074165488e-08
2.41777666955e-06
-4.08573602551e-08
6.45750791125e-06
-7.76780935432e-08
9.3779534618e-06
-1.1390556788e-07
1.13259937949e-05
-1.44050920404e-07
1.24643888232e-05
-1.65388199318e-07
1.2953157194e-05
-1.77328193851e-07
1.29394768613e-05
-1.80655663186e-07
1.25526283316e-05
-1.76870620943e-07
1.19021283823e-05
-1.67713488599e-07
1.10778954625e-05
-1.5486858633e-07
1.0151646459e-05
-1.39806881462e-07
9.17895549164e-06
-1.23723733436e-07
8.20157838231e-06
-1.07534433329e-07
7.24978169295e-06
-9.19005978105e-08
6.34451801157e-06
-7.72698422667e-08
5.49936361886e-06
-6.391827355e-08
4.72218541145e-06
-5.1990206044e-08
4.01653621402e-06
-4.15325636306e-08
3.38279652955e-06
-3.25232186227e-08
2.81909037358e-06
-2.48934780168e-08
2.3220064183e-06
-1.85453806778e-08
1.88715558415e-06
-1.33646289369e-08
1.50959402143e-06
-9.22998046385e-09
1.18413722588e-06
-6.01985113966e-09
9.05587469844e-07
-3.61677295318e-09
6.6889323362e-07
-1.91023848003e-09
4.69256066981e-07
-7.9835806188e-10
3.02197436565e-07
-1.88663153558e-10
1.63595630028e-07
4.97013630939e-08
-8.99349672437e-09
2.42677016627e-06
-3.15300792204e-08
6.48004449358e-06
-6.00761766934e-08
9.40649955895e-06
-8.82362867364e-08
1.13541539046e-05
-1.11757340964e-07
1.2487909877e-05
-1.28512973754e-07
1.29699128265e-05
-1.3802352989e-07
1.29489874171e-05
-1.40871262829e-07
1.25554760642e-05
-1.38194477688e-07
1.18994515968e-05
-1.31322221428e-07
1.1071023206e-05
-1.21545637642e-07
1.01418698751e-05
-1.09996204881e-07
9.16740605866e-06
-9.75969960687e-08
8.1891791734e-06
-8.50584397821e-08
7.23724313653e-06
-7.28978868735e-08
6.33235745857e-06
-6.14694501163e-08
5.48793518203e-06
-5.09960520504e-08
4.71171201333e-06
-4.15993725635e-08
4.00713953449e-06
-3.33257606907e-08
3.37452291765e-06
-2.61675628169e-08
2.81193217567e-06
-2.00800575129e-08
2.31591891296e-06
-1.4994525646e-08
1.88207005226e-06
-1.08280923442e-08
1.50542758811e-06
-7.49096447105e-09
1.18080009799e-06
-4.89161858825e-09
9.02988123949e-07
-2.94040683909e-09
6.66942021862e-07
-1.55196109018e-09
4.67867621227e-07
-6.46697877059e-10
3.0129217335e-07
-1.51661027876e-10
1.63100593179e-07
4.95497020687e-08
-6.87885757486e-09
2.43364902386e-06
-2.40489128965e-08
6.49721454895e-06
-4.57685215598e-08
9.42821916764e-06
-6.71705002711e-08
1.13755558833e-05
-8.50156093947e-08
1.25057549862e-05
-9.7687349358e-08
1.29825845665e-05
-1.04826977874e-07
1.29561270457e-05
-1.0688660138e-07
1.25575356878e-05
-1.04742146351e-07
1.18973071418e-05
-9.94138309366e-08
1.10656948906e-05
-9.18912812913e-08
1.01343473255e-05
-8.30404892944e-08
9.15855526669e-06
-7.3566670357e-08
8.17970535454e-06
-6.40111876245e-08
7.22768765383e-06
-5.4766711339e-08
6.32311298234e-06
-4.61002680997e-08
5.47926873884e-06
-3.8178011158e-08
4.70378975642e-06
-3.10884049779e-08
4.00004992834e-06
-2.48623226896e-08
3.36829683539e-06
-1.94896126163e-08
2.80655946561e-06
-1.49322573576e-08
2.31136155771e-06
-1.11345153352e-08
1.87827231025e-06
-8.03052692115e-09
1.5023235997e-06
-5.54986629229e-09
1.17831943737e-06
-3.62147403991e-09
9.01059731701e-07
-2.17634201032e-09
6.65496889838e-07
-1.14925585499e-09
4.66840535078e-07
-4.79839787082e-10
3.00622757289e-07
-1.13095037556e-10
1.62733848437e-07
4.94366070323e-08
-5.29434193493e-09
2.43894336579e-06
-1.85455895088e-08
6.51046579651e-06
-3.53271319935e-08
9.44500071009e-06
-5.1881036913e-08
1.13921097882e-05
-6.57056213088e-08
1.25195795706e-05
-7.55492177615e-08
1.2992428163e-05
-8.11291693669e-08
1.29617069973e-05
-8.27881789487e-08
1.25591946974e-05
-8.11966469669e-08
1.18957156098e-05
-7.71375428036e-08
1.10616357864e-05
-7.13716556772e-08
1.01285814384e-05
-6.45657561357e-08
9.15174936711e-06
-5.72637676661e-08
8.17240336609e-06
-4.98841775615e-08
7.22030806371e-06
-4.27315099335e-08
6.31596031471e-06
-3.60138928486e-08
5.47255112175e-06
-2.98619641957e-08
4.69763782776e-06
-2.43465683089e-08
3.99453453245e-06
-1.94940906551e-08
3.36344435773e-06
-1.52990953719e-08
2.80236447032e-06
-1.17343674279e-08
2.30779682975e-06
-8.75866376314e-09
1.87529660658e-06
-6.32254514214e-09
1.49988748108e-06
-4.37265596923e-09
1.17636954819e-06
-2.85478123978e-09
8.99541856968e-07
-1.71595949308e-09
6.64358068091e-07
-9.0587979049e-10
4.66030455377e-07
-3.77744631968e-10
3.00094622135e-07
-8.87413790825e-11
1.62444845188e-07
4.93478656551e-08
-4.06799529776e-09
2.44301136108e-06
-1.42324223133e-08
6.52063022346e-06
-2.70968556189e-08
9.45786514319e-06
-3.97800415039e-08
1.14047929739e-05
-5.03635788265e-08
1.25301631077e-05
-5.78885936436e-08
1.29999531776e-05
-6.21402123285e-08
1.29659586158e-05
-6.33835921729e-08
1.2560438077e-05
-6.21352173326e-08
1.18944672348e-05
-5.8997611844e-08
1.10584981807e-05
-5.4555828348e-08
1.01241396547e-05
-4.9322285737e-08
9.14651582438e-06
-4.37146594308e-08
8.16679573972e-06
-3.80539366838e-08
7.21464734089e-06
-3.25732823807e-08
6.31047966036e-06
-2.74315953815e-08
5.46740943472e-06
-2.27281018216e-08
4.69293433417e-06
-1.85160246698e-08
3.99032245527e-06
-1.4814438325e-08
3.35974277137e-06
-1.16180441892e-08
2.79916807616e-06
-8.90493963739e-09
2.30508372517e-06
-6.64261056515e-09
1.87303427749e-06
-4.79243198308e-09
1.49803730248e-06
-3.31295993265e-09
1.17489007613e-06
-2.16227046657e-09
8.98391167492e-07
-1.29956361455e-09
6.63495361235e-07
-6.86211315776e-10
4.65417103077e-07
-2.86392477807e-10
2.99694803298e-07
-6.74273955688e-11
1.62225880108e-07
4.92804382611e-08
-3.13460264674e-09
2.44614596373e-06
-1.0976039074e-08
6.52847165991e-06
-2.09050348325e-08
9.46779413888e-06
-3.06982787741e-08
1.14145862177e-05
-3.88754018773e-08
1.25383402306e-05
-4.46957658257e-08
1.30057735414e-05
-4.79922867287e-08
1.29692551365e-05
-4.89680724581e-08
1.25614138626e-05
-4.80202355935e-08
1.18935193978e-05
-4.56125342656e-08
1.10560904792e-05
-4.21955793299e-08
1.01207226997e-05
-3.81642783226e-08
9.14248452324e-06
-3.38407443333e-08
8.16247220565e-06
-2.94727470576e-08
7.21027934354e-06
-2.52404997245e-08
6.30624741297e-06
-2.12670648321e-08
5.46343599978e-06
-1.76295616544e-08
4.68929683095e-06
-1.43696641074e-08
3.98706255768e-06
-1.15027030058e-08
3.35687581024e-06
-9.02517100506e-09
2.79669054413e-06
-6.9206877557e-09
2.3029792419e-06
-5.16460384532e-09
1.87127819356e-06
-3.72746291745e-09
1.49660016153e-06
-2.57753956752e-09
1.17374015276e-06
-1.6826487172e-09
8.97496276632e-07
-1.0113926391e-09
6.62824105149e-07
-5.33981816406e-10
4.64939692251e-07
-2.22738436616e-10
2.99383559917e-07
-5.23677834711e-11
1.62055509457e-07
4.92280704779e-08
-2.41383968968e-09
2.44855980342e-06
-8.44781128203e-09
6.53450563148e-06
-1.60859640574e-08
9.4754322916e-06
-2.36176397399e-08
1.14221178934e-05
-2.99038071113e-08
1.25446263981e-05
-3.43749426114e-08
1.30102446769e-05
-3.69031084325e-08
1.29717833024e-05
-3.76453230371e-08
1.25621560772e-05
-3.69078589474e-08
1.18927819337e-05
-3.50481581958e-08
1.10542307785e-05
-3.24133917506e-08
1.01180879332e-05
-2.93077022719e-08
9.13937883376e-06
-2.59790601812e-08
8.15914356359e-06
-2.26180896412e-08
7.20691837301e-06
-1.93633145994e-08
6.30299263794e-06
-1.63091926543e-08
5.46038187785e-06
-1.35147673311e-08
4.68650240563e-06
-1.1011774109e-08
3.98455956447e-06
-8.81167066333e-09
3.35467570679e-06
-6.91143437381e-09
2.79479030783e-06
-5.2981701678e-09
2.30136597769e-06
-3.95266536857e-09
1.86993268875e-06
-2.85206037889e-09
1.49549955654e-06
-1.97180322655e-09
1.17285989561e-06
-1.28703945964e-09
8.96811512865e-07
-7.73566454484e-10
6.62310632144e-07
-4.08458007743e-10
4.64574583806e-07
-1.70443949796e-10
2.99145545863e-07
-4.01111451527e-11
1.61925176658e-07
4.91879593362e-08
-1.86114763258e-09
2.45042095104e-06
-6.51592102189e-09
6.53916040483e-06
-1.24092529192e-08
9.4813256235e-06
-1.82212043599e-08
1.1427929845e-05
-2.30729464458e-08
1.25494781404e-05
-2.65249598146e-08
1.30136966905e-05
-2.8478333601e-08
1.29737366764e-05
-2.90539632849e-08
1.25627317071e-05
-2.8487897969e-08
1.18922158686e-05
-2.7055697726e-08
1.10527985784e-05
-2.50250475379e-08
1.01160572832e-05
-2.26304897039e-08
9.13698427605e-06
-2.00632815562e-08
8.15657635556e-06
-1.74704847359e-08
7.20432557628e-06
-1.49590059438e-08
6.30048115924e-06
-1.26017874538e-08
5.45802465943e-06
-1.04444739101e-08
4.68434509214e-06
-8.51165723442e-09
3.98262674783e-06
-6.81229159098e-09
3.35297634118e-06
-5.34415804735e-09
2.79332217431e-06
-4.09741273627e-09
2.30011923239e-06
-3.05732442661e-09
1.86889260045e-06
-2.20633186605e-09
1.49464856399e-06
-1.52555047157e-09
1.17217911422e-06
-9.95844899198e-10
8.962818073e-07
-5.98566714632e-10
6.61913353966e-07
-3.16038394663e-10
4.64292055495e-07
-1.31848686073e-10
2.98961356163e-07
-3.10102091115e-11
1.61824338191e-07
4.91569491338e-08
-1.4345783089e-09
2.45185552935e-06
-5.02139874764e-09
6.54274722535e-06
-9.56193316475e-09
9.48586615798e-06
-1.40389754197e-08
1.14324068874e-05
-1.77753056439e-08
1.25532144707e-05
-2.04323963947e-08
1.30163537814e-05
-2.19343058614e-08
1.2975238586e-05
-2.23745121821e-08
1.25631719135e-05
-2.19352071058e-08
1.18917765636e-05
-2.08289694595e-08
1.10516923408e-05
-1.92622346226e-08
1.01144905484e-05
-1.74158230348e-08
9.13513786449e-06
-1.54371326324e-08
8.1545976652e-06
-1.34394490471e-08
7.20232789273e-06
-1.15050727342e-08
6.29854678295e-06
-9.69010255124e-09
5.45620968927e-06
-8.02958548458e-09
4.68268457509e-06
-6.54233985021e-09
3.98113950221e-06
-5.23513724142e-09
3.35166913858e-06
-4.10615020058e-09
2.79219318727e-06
-3.14769154309e-09
2.29916077373e-06
-2.34832699565e-09
1.86809323591e-06
-1.69446178808e-09
1.49399469878e-06
-1.17150132409e-09
1.17165615375e-06
-7.64676155251e-10
8.95874982132e-07
-4.59608053144e-10
6.61608285865e-07
-2.42680172485e-10
4.64075127619e-07
-1.01261709367e-10
2.98819937705e-07
-2.38265015431e-11
1.61746902989e-07
4.91331226347e-08
-1.10628809566e-09
2.45296181746e-06
-3.87294648877e-09
6.54551388392e-06
-7.37539997396e-09
9.48936861159e-06
-1.08288205023e-08
1.1435860308e-05
-1.37107526809e-08
1.25560964029e-05
-1.57600787237e-08
1.30184031075e-05
-1.69182742225e-08
1.29763967814e-05
-1.72575115148e-08
1.25635111508e-05
-1.69183846593e-08
1.18914374367e-05
-1.60649078626e-08
1.10508388639e-05
-1.48563344237e-08
1.01132819749e-05
-1.34321395303e-08
9.13371366955e-06
-1.19060028398e-08
8.15307152848e-06
-1.03652824384e-08
7.2007871723e-06
-8.87343263706e-09
6.29705493314e-06
-7.47369840412e-09
5.45480995502e-06
-6.19309071094e-09
4.68140396739e-06
-5.04610853848e-09
3.97999252002e-06
-4.03796499517e-09
3.35066099503e-06
-3.16724614687e-09
2.79132246841e-06
-2.42802294706e-09
2.29842155052e-06
-1.81147960172e-09
1.86747669255e-06
-1.30713616764e-09
1.49349035534e-06
-9.03742820928e-10
1.1712527604e-06
-5.89915389557e-10
8.95561154696e-07
-3.54571419063e-10
6.61372941892e-07
-1.87215306377e-10
4.63907771505e-07
-7.81113346009e-11
2.98710833736e-07
-1.83750246586e-11
1.61687166682e-07
4.91147476077e-08
-8.52896640543e-10
2.4538147141e-06
-2.9856204616e-09
6.54764660775e-06
-5.68526594839e-09
9.49206825707e-06
-8.34667355276e-09
1.14385217156e-05
-1.05670456199e-08
1.25583167751e-05
-1.21451778889e-08
1.30199812398e-05
-1.30361291449e-08
1.29772877328e-05
-1.32957391258e-08
1.25637707608e-05
-1.30325764286e-08
1.1891174274e-05
-1.23732212779e-08
1.10501795088e-05
-1.14405313804e-08
1.01123492851e-05
-1.03420667168e-08
9.13261520491e-06
-9.16545841183e-09
8.15189492021e-06
-7.97801339977e-09
7.19959972731e-06
-6.82858876762e-09
6.29590550853e-06
-5.75044930497e-09
5.45373181557e-06
-4.76434008639e-09
4.68041785818e-06
-3.88136206995e-09
3.97910954202e-06
-3.10546375665e-09
3.34988509672e-06
-2.43549400267e-09
2.79065249865e-06
-1.86683192515e-09
2.29785288844e-06
-1.3926428708e-09
1.86700250349e-06
-1.00482075308e-09
1.49310253322e-06
-6.94676595347e-10
1.17094261624e-06
-4.53427185212e-10
8.95319905286e-07
-2.72529713681e-10
6.61192044422e-07
-1.43899972591e-10
4.63779141765e-07
-6.00441573665e-11
2.98626977926e-07
-1.41278258289e-11
1.61641250356e-07
4.91006197842e-08
-6.57542501371e-10
2.45447225658e-06
-2.30197426504e-09
6.54929103939e-06
-4.3834736828e-09
9.49414975622e-06
-6.4352509163e-09
1.14405734926e-05
-8.146660972e-09
1.25600281849e-05
-9.36260727428e-09
1.30211971859e-05
-1.00485481636e-08
1.29779736735e-05
-1.02476718012e-08
1.25639698843e-05
-1.00438114583e-08
1.18909704135e-05
-9.53465761984e-09
1.10496703548e-05
-8.81499330382e-09
1.01116296206e-05
-7.967770927e-09
9.13176798245e-06
-7.06054809096e-09
8.15098769731e-06
-6.14519109748e-09
7.19868437027e-06
-5.25932840289e-09
6.2950196458e-06
-4.42856095612e-09
5.4529010481e-06
-3.6688367273e-09
4.67965813393e-06
-2.98867166632e-09
3.97842937693e-06
-2.39107314287e-09
3.34928749817e-06
-1.87512382497e-09
2.79013654931e-06
-1.43723858764e-09
2.29741500318e-06
-1.07213251648e-09
1.8666373974e-06
-7.73546710295e-10
1.4928039474e-06
-5.34778224743e-10
1.17070384774e-06
-3.49055828112e-10
8.95134182883e-07
-2.09797031086e-10
6.61052785622e-07
-1.10775398741e-10
4.63680120132e-07
-4.62213611185e-11
2.98562423889e-07
-1.08746651707e-11
1.61605903664e-07
4.90897451235e-08
-5.06740853722e-10
2.45497899743e-06
-1.77401148485e-09
6.55055831007e-06
-3.37794636951e-09
9.49575369108e-06
-4.95865655342e-09
1.14421542028e-05
-6.27668850485e-09
1.25613462168e-05
-7.21257749258e-09
1.30221330748e-05
-7.73983876264e-09
1.29785009347e-05
-7.89191472085e-09
1.25641219601e-05
-7.73355744119e-09
1.18908120561e-05
-7.3401627736e-09
1.10492769601e-05
-6.78484294344e-09
1.01110743007e-05
-6.13155179433e-09
9.13111469124e-06
-5.43234508439e-09
8.15028849056e-06
-4.72716107842e-09
7.19797918623e-06
-4.04494967309e-09
6.29433743437e-06
-3.40538369064e-09
5.45226148209e-06
-2.82069509586e-09
4.67907344531e-06
-2.29739123257e-09
3.97790607305e-06
-1.83774023395e-09
3.34882784715e-06
-1.44099349131e-09
2.78973980255e-06
-1.10435510855e-09
2.29707836478e-06
-8.23727936142e-10
1.86635677022e-06
-5.94272396975e-10
1.49257449185e-06
-4.10814012295e-10
1.17052038935e-06
-2.68131897326e-10
8.94991500762e-07
-1.61155666811e-10
6.60945809387e-07
-8.50932093309e-11
4.63604057673e-07
-3.55072826273e-11
2.98512837964e-07
-8.35495423765e-12
1.61578751338e-07
4.90813901694e-08
-3.90392738721e-10
2.45536939018e-06
-1.36678417263e-09
6.55153470159e-06
-2.60247065105e-09
9.49698937761e-06
-3.82001305248e-09
1.14433717453e-05
-4.83486298904e-09
1.25623610668e-05
-5.55502281601e-09
1.30228532347e-05
-5.96019823088e-09
1.29789061101e-05
-6.07628825681e-09
1.25642380502e-05
-5.95330310663e-09
1.1890689071e-05
-5.64942309204e-09
1.10489730801e-05
-5.22103219815e-09
1.01106459098e-05
-4.71742337085e-09
9.1306110824e-06
-4.17869422308e-09
8.14974976141e-06
-3.63558616211e-09
7.19743607816e-06
-3.11036229903e-09
6.2938122105e-06
-2.61813273353e-09
5.45176925252e-06
-2.16827450909e-09
4.67862358708e-06
-1.76575758629e-09
3.97750355612e-06
-1.41229156625e-09
3.34847438112e-06
-1.1072687262e-09
2.7894347797e-06
-8.48511260607e-10
2.29681960731e-06
-6.32845799288e-10
1.86614110474e-06
-4.56533322897e-10
1.49239817936e-06
-3.15582268948e-10
1.17037943829e-06
-2.05969860951e-10
8.94881888351e-07
-1.23792845365e-10
6.60863632369e-07
-6.53650210053e-11
4.63545629849e-07
-2.72754322005e-11
2.98474748376e-07
-6.41802504194e-12
1.61557893935e-07
4.90749721436e-08
-3.00585030163e-10
2.4556699752e-06
-1.05238992391e-09
6.55228650646e-06
-2.00373562588e-09
9.49794072328e-06
-2.94085808055e-09
1.14443088678e-05
-3.72160774351e-09
1.25631418166e-05
-4.2751957685e-09
1.30234068229e-05
-4.58610618016e-09
1.29792170207e-05
-4.67441130383e-09
1.25643263554e-05
-4.57873671983e-09
1.18905933965e-05
-4.34396884968e-09
1.10487383123e-05
-4.01357496678e-09
1.0110315516e-05
-3.62552844955e-09
9.13022303597e-06
-3.21069486174e-09
8.1493349279e-06
-2.79271598103e-09
7.19701809935e-06
-2.38869342901e-09
6.29340818801e-06
-2.01021562158e-09
5.45139077477e-06
-1.66445618847e-09
4.67827782769e-06
-1.35519851422e-09
3.97719429847e-06
-1.08372097171e-09
3.34820290361e-06
-8.49524279605e-10
2.78920058303e-06
-6.50907255533e-10
2.29662099029e-06
-4.85409026584e-10
1.86597560652e-06
-3.50139488049e-10
1.49226290983e-06
-2.42019596663e-10
1.1702713184e-06
-1.57950876172e-10
8.94797819635e-07
-9.49305435056e-11
6.60800612042e-07
-5.01257111814e-11
4.63500825022e-07
-2.09173555848e-11
2.98445540027e-07
-4.92243143449e-12
1.61541899017e-07
4.90700497171e-08
-2.31288956693e-10
2.45590126414e-06
-8.09828208992e-10
6.55286504567e-06
-1.54183395973e-09
9.49867272882e-06
-2.26267791907e-09
1.14450297115e-05
-2.86292431563e-09
1.25637420627e-05
-3.28814000691e-09
1.30238320383e-05
-3.52648179108e-09
1.29794553621e-05
-3.59351046772e-09
1.25643933838e-05
-3.51905311698e-09
1.18905189389e-05
-3.33772778131e-09
1.10485569867e-05
-3.08302841563e-09
1.01100608165e-05
-2.78419136356e-09
9.12992419875e-06
-2.46495929344e-09
8.1490156957e-06
-2.14349910506e-09
7.19669663905e-06
-1.83293486194e-09
6.29309762368e-06
-1.54214382422e-09
5.45109998366e-06
-1.27660609154e-09
4.6780122899e-06
-1.03919604313e-09
3.97695688837e-06
-8.30865420574e-10
3.34799457294e-06
-6.51203945693e-10
2.78902092151e-06
-4.98882625894e-10
2.29646866894e-06
-3.71993777963e-10
1.86584871765e-06
-2.68304747696e-10
1.49215922078e-06
-1.85442096951e-10
1.17018845573e-06
-1.21021215766e-10
8.94733398741e-07
-7.27341090387e-11
6.60752324927e-07
-3.84057297153e-11
4.63466496637e-07
-1.60271187215e-11
2.98423161414e-07
-3.77183259982e-12
1.6152964373e-07
4.90662778846e-08
-1.7782007437e-10
2.45607908423e-06