/*--------------------------------*- C++ -*----------------------------------*\
  =========                 |
  \\      /  F ield         | OpenFOAM: The Open Source CFD Toolbox
   \\    /   O peration     | Website:  https://openfoam.org
    \\  /    A nd           | Version:  12
     \\/     M anipulation  |
\*---------------------------------------------------------------------------*/
FoamFile
{
    format      ascii;
    class       volVectorField;
    location    "300";
    object      wallShearStress;
}
// * * * * * * * * * * * * * * * * * * * * * * * * * * * * * * * * * * * * * //

dimensions      [0 2 -2 0 0 0 0];

internalField   uniform (0 0 0);

boundaryField
{
    top
    {
        type            calculated;
        value           nonuniform List<vector> 
100
(
(-0.201066520226 0.0484002967004 3.26508330298e-12)
(-0.128375438715 0.000358147399401 4.72262725848e-12)
(-0.0848860594056 6.84773112607e-05 5.21756057358e-12)
(-0.0957543512839 7.64705428633e-06 5.24074761763e-12)
(-0.085372298716 1.84769970618e-05 5.19818437125e-12)
(-0.087165173029 6.26156587655e-06 5.00313483768e-12)
(-0.0838536161999 8.14752293487e-06 4.73143211238e-12)
(-0.0837062389976 4.34369446635e-06 4.38133099855e-12)
(-0.0824332463011 4.1482479736e-06 3.99595252939e-12)
(-0.0820520200793 2.72109723796e-06 3.59045817943e-12)
(-0.0814670833946 2.2953287993e-06 3.19296874235e-12)
(-0.0811677721274 1.64938209621e-06 2.81117741496e-12)
(-0.0808634301073 1.32079112218e-06 2.4545659006e-12)
(-0.080667386794 9.87554611702e-07 2.12837535012e-12)
(-0.0804975775713 7.7365590245e-07 1.83483793634e-12)
(-0.0803765233921 5.88563917582e-07 1.57267254295e-12)
(-0.0802784527263 4.56836246927e-07 1.34152677947e-12)
(-0.0802053774642 3.50140125125e-07 1.13996440701e-12)
(-0.0801478454129 2.70662395362e-07 9.63366179787e-13)
(-0.0801041590069 2.0805453075e-07 8.1094338053e-13)
(-0.0800701982591 1.6047528651e-07 6.8068553468e-13)
(-0.0800442148347 1.23436119337e-07 5.68061153249e-13)
(-0.0800241411351 9.50455832517e-08 4.72264339414e-13)
(-0.0800087471071 7.30607374645e-08 3.92698061332e-13)
(-0.0799968994774 5.61528047385e-08 3.23380444703e-13)
(-0.0799878167673 4.30960681824e-08 2.65651108318e-13)
(-0.0799808485904 3.30467625668e-08 2.17351108882e-13)
(-0.0799755166359 2.53021032949e-08 1.77059862598e-13)
(-0.0799714396365 1.93454836739e-08 1.43716303018e-13)
(-0.0799683293728 1.47645806165e-08 1.16017955165e-13)
(-0.0799659604004 1.12473713139e-08 9.32495142356e-14)
(-0.0799641604008 8.54944508942e-09 7.44895470085e-14)
(-0.0799627957823 6.48354082922e-09 5.91614586262e-14)
(-0.0799617640682 4.90414276009e-09 4.67625124641e-14)
(-0.079960986232 3.69907343035e-09 3.67052181481e-14)
(-0.0799604016556 2.78148951916e-09 2.84485081075e-14)
(-0.0799599637906 2.08464869038e-09 2.20303008049e-14)
(-0.0799596370168 1.55689990868e-09 1.69085922478e-14)
(-0.0799593940925 1.1582212084e-09 1.28300235354e-14)
(-0.0799592142555 8.58135075717e-10 9.61896145264e-15)
(-0.0799590817128 6.33071944809e-10 7.09479996756e-15)
(-0.0799589844857 4.64820108657e-10 4.97773635685e-15)
(-0.0799589135202 3.39662428005e-10 3.4994087817e-15)
(-0.079958862001 2.46920667109e-10 2.34002027038e-15)
(-0.0799588248075 1.78447544039e-10 1.45797718134e-15)
(-0.0799587981106 1.28231362946e-10 7.14429185321e-16)
(-0.079958779067 9.16263249846e-11 4.24696432658e-16)
(-0.0799587655733 6.50375265015e-11 2.83653670839e-16)
(-0.0799587560751 4.58692463488e-11 -1.43911062051e-16)
(-0.0799587494388 3.20940215495e-11 -4.02139432883e-16)
(-0.0799587448389 2.22774041085e-11 -6.31227973824e-16)
(-0.0799587416744 1.53658476162e-11 -7.71916006704e-16)
(-0.0799587395148 1.051167561e-11 -7.9985590942e-16)
(-0.0799587380544 7.12775582909e-12 -9.09596070352e-16)
(-0.0799587370762 4.80482582388e-12 -9.51266257014e-16)
(-0.0799587364259 3.18331160633e-12 -1.03999059709e-15)
(-0.0799587359994 2.13343327899e-12 -8.10010178924e-16)
(-0.0799587357234 1.36050255178e-12 -9.16826697014e-16)
(-0.0799587355469 8.31582050154e-13 -1.00410067154e-15)
(-0.0799587354313 5.51428029008e-13 -9.96895985135e-16)
(-0.0799587353572 3.96853552172e-13 -1.0209742929e-15)
(-0.0799587353139 2.57081198532e-13 -1.03254633074e-15)
(-0.0799587352871 1.18221060588e-13 -1.01394696527e-15)
(-0.0799587352702 4.36328317707e-14 -9.32033211723e-16)
(-0.0799587352639 4.52908308011e-14 -9.16972094693e-16)
(-0.0799587352571 4.13357099756e-14 -9.39600568552e-16)
(-0.079958735252 2.63820140688e-14 -9.06848211061e-16)
(-0.0799587352525 4.03383274917e-14 -8.90620120338e-16)
(-0.0799587352536 -1.567144389e-15 -8.69453660598e-16)
(-0.0799587352509 -3.77336017025e-14 -6.24116390144e-16)
(-0.079958735252 1.24295010411e-14 -5.20359508879e-16)
(-0.0799587352511 1.5110166929e-14 -3.7928113272e-16)
(-0.0799587352478 -2.20698524113e-14 -9.51222276724e-16)
(-0.0799587352469 -6.15712997805e-16 -6.2153289004e-16)
(-0.0799587352482 -1.66356442686e-15 -4.90707961846e-16)
(-0.0799587352463 2.67308094066e-14 -3.57044111885e-16)
(-0.0799587352476 -1.81528812294e-14 -8.57413649366e-16)
(-0.0799587352486 -1.21912392896e-14 -5.7037708845e-16)
(-0.0799587352473 1.10242160868e-14 -4.48853445814e-16)
(-0.0799587352496 2.884909598e-14 -3.3117509609e-16)
(-0.0799587352519 -7.90466960471e-15 -7.22283776312e-16)
(-0.0799587352499 5.07810199435e-15 -5.13739760644e-16)
(-0.0799587352533 1.63707466031e-14 -5.62271870945e-16)
(-0.0799587352492 -4.84309838262e-14 -5.72404911732e-16)
(-0.0799587352464 -2.38332951682e-14 -5.47486246558e-16)
(-0.0799587352501 9.43624542552e-14 -5.03897370092e-16)
(-0.0799587352476 -4.22307239652e-14 -4.80033518703e-16)
(-0.0799587352462 -6.833157115e-14 -4.47301087987e-16)
(-0.0799587352448 -7.25288007952e-15 -4.19232878498e-16)
(-0.079958735243 2.19690134728e-14 -3.95276561114e-16)
(-0.0799587352382 3.58666603945e-14 -3.58944933839e-16)
(-0.0799587352471 5.53196128975e-14 -3.40301501568e-16)
(-0.0799587352457 -6.23547658638e-15 -3.13868410324e-16)
(-0.0799587352486 -5.68669657619e-14 -2.9386078561e-16)
(-0.0799587352495 -3.89022094556e-14 -2.26560013507e-16)
(-0.0799587352371 -8.46638655677e-14 -1.83521001031e-16)
(-0.0799587353104 6.24479357584e-13 -1.58153927364e-16)
(-0.079958735002 -1.6837929331e-12 -1.92492975897e-16)
(-0.0799587360327 3.67479020054e-12 -1.59561762725e-16)
(-0.0799587333887 6.16117912764e-12 -1.27665015059e-16)
)
;
    }
    inlet
    {
        type            calculated;
        value           uniform (0 0 0);
    }
    outlet
    {
        type            calculated;
        value           uniform (0 0 0);
    }
    front
    {
        type            wedge;
    }
    back
    {
        type            wedge;
    }
}


// ************************************************************************* //
