/*--------------------------------*- C++ -*----------------------------------*\
  =========                 |
  \\      /  F ield         | OpenFOAM: The Open Source CFD Toolbox
   \\    /   O peration     | Website:  https://openfoam.org
    \\  /    A nd           | Version:  12
     \\/     M anipulation  |
\*---------------------------------------------------------------------------*/
FoamFile
{
    format      ascii;
    class       volScalarField;
    location    "1900";
    object      k;
}
// * * * * * * * * * * * * * * * * * * * * * * * * * * * * * * * * * * * * * //

dimensions      [0 2 -2 0 0 0 0];

internalField   nonuniform List<scalar> 
7480
(
0.00065173625
0.0016655255
0.0030123512
0.0044361944
0.0057296236
0.0067744111
0.0075329272
0.008022681
0.0082899996
0.0083890574
0.0083694866
0.0082712377
0.0081239794
0.0079485478
0.0077589979
0.0075646035
0.0073716222
0.0071845845
0.007006709
0.0068405149
0.0066881548
0.0065515547
0.0064323631
0.0063318133
0.0062505724
0.006188278
0.0061426808
0.0061103727
0.0060866652
0.006066498
0.0060457268
0.0060219472
0.0059945386
0.0059642535
0.0059322859
0.0058995843
0.0058665503
0.0058331351
0.0057991304
0.005764449
0.0057292481
0.0056938536
0.0056586044
0.0056237204
0.005589279
0.0055552832
0.0055217329
0.005488644
0.0054560353
0.0054239161
0.0053922832
0.0053611233
0.0053304225
0.0053001731
0.0052703682
0.0052409946
0.0052120372
0.0051834863
0.005155338
0.0051275777
0.0051001919
0.0050731687
0.005046497
0.0050201678
0.0049941741
0.0049685082
0.0049431626
0.00491813
0.0048934026
0.0048689729
0.0048448337
0.004820978
0.0047973988
0.0047740893
0.0047510432
0.0047282544
0.0047057167
0.0046834241
0.0046613709
0.0046395515
0.0046179605
0.0045965927
0.0045754427
0.0045545056
0.0045337765
0.0045132502
0.004492922
0.0044727865
0.0044528392
0.0044330733
0.0044134855
0.0043940617
0.0043748091
0.0043556772
0.0043367353
0.0043177549
0.0042991267
0.0042795598
0.0042632074
0.004232731
0.00015585361
0.00017556334
0.0002174474
0.00028856232
0.00039384928
0.00052411367
0.00066512893
0.00080457314
0.00093399718
0.0010491714
0.001149908
0.0012391802
0.0013218724
0.0014044681
0.0014953152
0.0016046552
0.0017492962
0.0019375662
0.0021481707
0.0023804721
0.0026376626
0.0029217175
0.0032310917
0.0035619428
0.0039054349
0.0042466358
0.0045670924
0.004848113
0.0050742083
0.0052391558
0.0053473857
0.0054108138
0.0054442388
0.0054608304
0.005469352
0.0054735587
0.0054738033
0.0054693533
0.0054600401
0.0054468394
0.0054314334
0.0054153595
0.0053995122
0.0053840236
0.0053686463
0.0053531635
0.0053375381
0.0053218263
0.0053060496
0.0052901615
0.0052740987
0.0052578325
0.0052413669
0.0052247067
0.0052078437
0.0051907701
0.0051734919
0.0051560239
0.0051383585
0.0051205422
0.0051025759
0.0050844642
0.0050662211
0.0050478643
0.00502941
0.0050108726
0.0049922653
0.0049735992
0.0049548848
0.0049361325
0.004917352
0.0048985525
0.0048797431
0.0048609322
0.0048421276
0.0048233366
0.0048045661
0.0047858222
0.004767111
0.0047484378
0.0047298077
0.0047112252
0.0046926946
0.0046742197
0.0046558041
0.0046374508
0.0046191627
0.0046009424
0.0045827918
0.0045647128
0.0045467064
0.0045287735
0.0045109122
0.0044931229
0.0044753947
0.0044577322
0.004440119
0.0044222468
0.0044063131
0.0043781192
0.00014881037
0.00015001554
0.00015158524
0.00015341631
0.00015552359
0.00015786467
0.00016034593
0.00016287159
0.00016536188
0.00016775523
0.00017002909
0.00017222461
0.00017445733
0.00017693369
0.00018000774
0.00018416616
0.00019047292
0.00019956927
0.00021616437
0.00024303248
0.00028248109
0.0003372365
0.00041115188
0.00050866733
0.00063716157
0.00080676078
0.0010451054
0.0013336962
0.0016623074
0.0020188975
0.0023872637
0.002748381
0.0030822863
0.0033724881
0.0036096464
0.0037935596
0.0039314792
0.0040348782
0.0041154989
0.0041824516
0.0042409158
0.0042927601
0.0043381521
0.0043771142
0.0044102702
0.0044387308
0.0044635994
0.0044856
0.0045050561
0.004522108
0.0045369103
0.004549671
0.00456059
0.0045698123
0.0045774414
0.0045835726
0.0045883045
0.0045917313
0.004593929
0.0045949489
0.0045948778
0.0045937955
0.0045917709
0.004588867
0.0045851423
0.0045806509
0.0045754428
0.0045695639
0.0045630572
0.0045559633
0.0045483204
0.0045401645
0.0045315299
0.0045224489
0.0045129518
0.0045030673
0.0044928222
0.0044822419
0.0044713503
0.0044601697
0.0044487215
0.0044370255
0.0044251003
0.0044129637
0.0044006321
0.004388121
0.0043754449
0.0043626179
0.0043496525
0.0043365613
0.0043233544
0.0043100447
0.0042966355
0.00428315
0.0042695627
0.0042559495
0.0042421801
0.0042283439
0.0042155766
0.0041933196
0.00014822966
0.00014850009
0.00014877445
0.00014902546
0.00014924471
0.00014942341
0.00014954881
0.00014960642
0.0001495803
0.0001494571
0.0001492253
0.00014887526
0.00014839899
0.0001478005
0.00014708628
0.00014626559
0.00014536549
0.00014440608
0.00014345557
0.00014269235
0.00014202562
0.00014217093
0.00014289375
0.00014477789
0.00014842032
0.00015468464
0.00016592481
0.00018427891
0.00021704549
0.00027106598
0.00035256102
0.00046844901
0.00062677577
0.00084933796
0.0011175152
0.0014148293
0.0017255608
0.0020324514
0.0023184211
0.0025706111
0.0027832078
0.0029576821
0.0031007002
0.0032208109
0.0033254376
0.0034191873
0.0035040326
0.0035805462
0.0036491451
0.0037106409
0.0037660947
0.0038164371
0.0038622827
0.0039040152
0.0039419537
0.0039764236
0.0040077328
0.0040361394
0.0040618567
0.004085066
0.0041059444
0.0041246583
0.0041413586
0.004156182
0.0041692545
0.0041806914
0.004190598
0.0041990715
0.0042062018
0.0042120726
0.0042167617
0.004220342
0.0042228817
0.0042244448
0.0042250913
0.0042248773
0.0042238556
0.0042220757
0.0042195842
0.0042164249
0.004212639
0.0042082653
0.0042033401
0.0041978979
0.0041919707
0.0041855891
0.0041787817
0.0041715757
0.0041639962
0.0041560681
0.0041478126
0.0041392543
0.0041304057
0.0041213036
0.0041119257
0.00410238
0.0040924955
0.0040825713
0.0040730618
0.004056452
0.00014809459
0.00014821586
0.00014832279
0.0001484059
0.00014846463
0.00014849842
0.00014850506
0.00014848178
0.00014842525
0.00014833166
0.00014819752
0.00014802007
0.00014779544
0.00014751522
0.00014717601
0.00014677601
0.00014631512
0.00014579423
0.00014521831
0.00014460059
0.00014394833
0.00014329559
0.00014265879
0.00014206438
0.00014153201
0.00014111089
0.00014079517
0.00014089986
0.00014140357
0.00014282162
0.00014566575
0.00015073282
0.00015925179
0.00017403584
0.00019946752
0.00024408181
0.00031465965
0.00041787382
0.0005632694
0.00076090572
0.00099384785
0.0012479871
0.0015085212
0.0017604018
0.0019916689
0.002195967
0.0023727486
0.0025257809
0.0026605269
0.0027816807
0.0028920504
0.002992871
0.0030847666
0.0031684601
0.0032448845
0.0033149403
0.0033793133
0.0034384997
0.0034929174
0.0035429575
0.0035889793
0.0036312974
0.0036701875
0.0037058984
0.0037386574
0.0037686704
0.0037961233
0.003821186
0.0038440144
0.0038647518
0.0038835302
0.0039004721
0.0039156914
0.0039292937
0.0039413776
0.003952035
0.0039613518
0.0039694082
0.0039762796
0.0039820365
0.0039867452
0.0039904677
0.0039932623
0.0039951839
0.0039962839
0.0039966108
0.0039962103
0.0039951256
0.003993397
0.0039910634
0.0039881598
0.0039847236
0.0039807794
0.0039763761
0.003971502
0.0039662828
0.0039605346
0.003954699
0.0039486587
0.0039378921
0.00014803628
0.00014811285
0.00014817394
0.00014821459
0.00014823781
0.00014824566
0.00014823823
0.0001482147
0.00014817398
0.00014811468
0.00014803533
0.00014793331
0.00014780799
0.00014765721
0.00014747856
0.00014726986
0.0001470293
0.0001467554
0.00014644712
0.00014610447
0.00014572816
0.00014531993
0.0001448834
0.00014442075
0.00014394089
0.00014345882
0.00014297893
0.00014252687
0.00014210873
0.00014178386
0.00014149236
0.00014151134
0.00014168815
0.00014224981
0.00014340025
0.00014565582
0.0001496918
0.00015645029
0.0001677589
0.00018651133
0.00021981542
0.00027475232
0.0003579359
0.00047787007
0.00064193505
0.00083707743
0.0010522644
0.0012748998
0.0014927045
0.0016962629
0.0018808216
0.0020461244
0.0021947823
0.0023300386
0.0024542623
0.0025686953
0.0026740232
0.0027709299
0.0028602269
0.0029426936
0.0030189572
0.0030895176
0.0031548172
0.0032152687
0.0032712457
0.0033230781
0.0033710605
0.0034154615
0.0034565259
0.0034944764
0.0035295169
0.0035618351
0.0035916037
0.0036189827
0.0036441199
0.0036671526
0.0036882089
0.0037074076
0.00372486
0.0037406699
0.0037549344
0.0037677445
0.0037791853
0.0037893366
0.0037982733
0.003806066
0.0038127808
0.0038184803
0.0038232228
0.0038270644
0.003830056
0.00383225
0.003833686
0.0038344254
0.0038344713
0.0038339626
0.0038327137
0.003831286
0.0038290073
0.0038244771
0.00014800043
0.00014805662
0.00014809864
0.00014812345
0.00014813474
0.00014813517
0.00014812533
0.00014810502
0.00014807387
0.00014803135
0.00014797677
0.00014790908
0.00014782742
0.00014773085
0.0001476182
0.0001474882
0.00014733961
0.00014717121
0.00014698187
0.00014677065
0.00014653689
0.00014628016
0.00014600063
0.00014569848
0.00014537479
0.00014503265
0.00014467451
0.00014430512
0.00014392731
0.00014355119
0.00014317391
0.00014283464
0.00014253194
0.00014229562
0.0001420861
0.00014209657
0.0001422291
0.00014264141
0.00014347215
0.00014490505
0.00014741952
0.00015176226
0.00015894608
0.00017085755
0.00019034544
0.00022446476
0.00027965712
0.00036196779
0.00048272687
0.00063534198
0.00081225089
0.0010038259
0.0011993512
0.0013893305
0.0015676146
0.0017319476
0.0018829906
0.0020224986
0.00215194
0.0022721514
0.002383679
0.002487116
0.0025831326
0.0026723565
0.0027553141
0.0028324611
0.0029042176
0.0029709729
0.0030330785
0.0030908515
0.0031445827
0.0031945387
0.0032409646
0.0032840856
0.0033241098
0.0033612299
0.0033956247
0.0034274601
0.0034568906
0.0034840603
0.0035091035
0.0035321458
0.0035533046
0.0035726896
0.0035904039
0.0036065441
0.0036212009
0.0036344597
0.0036464005
0.0036570994
0.0036666262
0.003675051
0.0036824308
0.0036888414
0.0036943037
0.0036989691
0.0037026552
0.0037060397
0.0037078712
0.0037100924
0.0001479746
0.0001480181
0.00014804949
0.0001480666
0.00014807268
0.00014807024
0.00014806006
0.00014804226
0.00014801678
0.00014798343
0.00014794189
0.00014789161
0.00014783205
0.00014776259
0.00014768256
0.00014759118
0.00014748764
0.00014737108
0.00014724065
0.00014709552
0.00014693495
0.00014675826
0.00014656498
0.00014635474
0.00014612736
0.00014588326
0.00014562309
0.00014534816
0.00014505957
0.0001447602
0.00014445047
0.00014413772
0.00014382643
0.00014352432
0.00014322535
0.00014296428
0.00014274044
0.00014257465
0.0001424675
0.00014249816
0.00014264787
0.00014303807
0.00014379428
0.00014509923
0.00014717346
0.00015065962
0.00015647832
0.00016592912
0.00018148517
0.00020780909
0.00025107142
0.0003171051
0.00041543885
0.00054310644
0.00069489354
0.00086321018
0.0010389114
0.0012134421
0.0013807892
0.001538245
0.0016855716
0.0018234942
0.0019526684
0.0020734986
0.0021863623
0.0022917366
0.0023901393
0.0024820467
0.002567883
0.0026480441
0.0027229036
0.0027928071
0.0028580722
0.0029189934
0.0029758435
0.0030288759
0.0030783257
0.0031244114
0.0031673366
0.0032072911
0.0032444517
0.0032789837
0.0033110415
0.0033407698
0.0033683038
0.0033937707
0.0034172894
0.0034389719
0.0034589231
0.0034772424
0.0034940219
0.0035093516
0.0035233088
0.0035359862
0.0035474247
0.0035577899
0.003566904
0.0035755673
0.0035819048
0.0035914831
0.00014795471
0.0001479887
0.00014801276
0.00014802511
0.00014802831
0.00014802449
0.00014801447
0.00014799848
0.00014797662
0.00014794886
0.00014791505
0.0001478749
0.00014782803
0.00014777405
0.00014771251
0.0001476429
0.00014756466
0.00014747718
0.00014737984
0.000147272
0.00014715302
0.00014702231
0.00014687933
0.00014672357
0.00014655463
0.00014637227
0.00014617643
0.00014596734
0.00014574528
0.00014551113
0.0001452653
0.00014500966
0.00014474628
0.00014447862
0.00014420631
0.00014393664
0.00014367414
0.00014342413
0.00014318992
0.0001429896
0.00014283005
0.00014269818
0.00014270059
0.00014277291
0.00014299633
0.00014345107
0.00014426692
0.00014561286
0.00014774481
0.00015118511
0.00015681657
0.00016587863
0.00018064171
0.00020522953
0.00024516283
0.00030634818
0.00039603571
0.00051168216
0.00064948482
0.00080293845
0.00096394517
0.0011250589
0.0012812219
0.0014301213
0.0015712296
0.001704626
0.0018304271
0.0019487759
0.0020599366
0.0021642678
0.0022621431
0.0023539194
0.0024399427
0.0025205492
0.0025960589
0.0026667734
0.0027329767
0.0027949363
0.0028529031
0.0029071122
0.0029577844
0.0030051264
0.0030493322
0.0030905837
0.0031290517
0.0031648965
0.0031982686
0.0032293095
0.0032581522
0.003284922
0.003309736
0.0033327072
0.0033539357
0.0033735329
0.0033915625
0.0034082064
0.003423292
0.0034377526
0.0034490344
0.0034666511
0.00014793962
0.0001479655
0.00014798374
0.00014799253
0.00014799371
0.00014798899
0.0001479791
0.00014796435
0.0001479449
0.0001479208
0.00014789198
0.00014785826
0.0001478194
0.00014777514
0.00014772514
0.00014766906
0.00014760648
0.00014753697
0.00014746005
0.00014737524
0.00014728203
0.00014717993
0.00014706845
0.00014694712
0.00014681551
0.00014667324
0.00014652003
0.00014635572
0.00014618022
0.0001459937
0.00014579627
0.00014558843
0.00014537096
0.00014514531
0.00014491203
0.00014467323
0.00014443133
0.00014418909
0.00014394835
0.00014371432
0.00014349262
0.0001432779
0.00014309834
0.00014295057
0.00014284573
0.00014279838
0.00014284393
0.00014300714
0.00014334785
0.00014394695
0.00014493949
0.00014651819
0.00014897075
0.00015285851
0.0001591043
0.00016911102
0.00018516496
0.00021178346
0.00025384395
0.00031805821
0.00040695922
0.00051912916
0.00065076455
0.00079546918
0.00094595471
0.0010961364
0.001242296
0.0013827565
0.0015168905
0.0016444183
0.0017652193
0.0018793454
0.0019869856
0.0020883901
0.0021838294
0.0022735861
0.0023579479
0.0024371985
0.0025116128
0.0025814558
0.0026469807
0.0027084288
0.0027660287
0.002819997
0.0028705388
0.0029178472
0.0029621049
0.003003484
0.0030421469
0.0030782469
0.0031119276
0.0031433271
0.0031725701
0.0031997894
0.0032250727
0.0032486211
0.0032702665
0.0032910884
0.0033077921
0.0033341959
0.0001479285
0.00014794745
0.00014796073
0.00014796652
0.00014796599
0.00014796041
0.00014795046
0.00014793644
0.00014791856
0.00014789689
0.0001478714
0.000147842
0.00014780852
0.00014777074
0.00014772845
0.00014768136
0.00014762918
0.00014757157
0.00014750816
0.00014743857
0.00014736241
0.00014727927
0.00014718875
0.00014709043
0.00014698391
0.00014686883
0.00014674484
0.00014661168
0.0001464691
0.00014631698
0.00014615524
0.00014598393
0.00014580324
0.0001456137
0.00014541571
0.00014521005
0.00014499783
0.00014478048
0.00014455921
0.000144336
0.00014411399
0.00014389222
0.00014367817
0.00014347517
0.00014328653
0.00014311788
0.00014298017
0.00014288318
0.00014283785
0.00014287459
0.00014301038
0.0001433054
0.00014381561
0.00014463871
0.00014593856
0.00014795916
0.00015103358
0.00015590256
0.00016361921
0.00017594106
0.00019584849
0.00022773641
0.00027707761
0.0003483592
0.00044189565
0.00055598428
0.00068592424
0.00082521323
0.00096764486
0.0011088354
0.0012463431
0.0013789447
0.001505974
0.0016270571
0.0017420555
0.001851004
0.0019540338
0.0020513282
0.0021431038
0.0022295965
0.00231105
0.0023877089
0.0024598145
0.0025276022
0.0025912995
0.0026511249
0.0027072874
0.0027599863
0.0028094112
0.002855742
0.0028991489
0.0029397951
0.0029778307
0.0030134108
0.0030466482
0.0030777651
0.0031065969
0.0031343829
0.0031570212
0.0031930208
0.00014792118
0.00014793428
0.00014794322
0.00014794629
0.00014794411
0.0001479376
0.00014792732
0.00014791358
0.0001478966
0.00014787647
0.00014785321
0.00014782674
0.00014779694
0.00014776366
0.00014772671
0.00014768588
0.00014764093
0.00014759159
0.00014753758
0.00014747858
0.00014741428
0.00014734434
0.00014726842
0.00014718619
0.00014709729
0.00014700139
0.00014689815
0.00014678729
0.00014666853
0.00014654163
0.00014640641
0.00014626274
0.00014611055
0.00014594996
0.0001457811
0.00014560425
0.00014541989
0.00014522871
0.00014503142
0.00014482895
0.00014462291
0.0001444136
0.00014420341
0.00014399472
0.00014378959
0.00014359037
0.00014340125
0.00014322683
0.00014307212
0.0001429479
0.00014286102
0.00014282681
0.0001428663
0.00014299835
0.00014328013
0.0001437628
0.00014451827
0.00014569396
0.00014749933
0.00015024725
0.00015447742
0.00016110002
0.00017155509
0.00018817654
0.00021477046
0.00025614188
0.00031670516
0.0003980021
0.00049964913
0.00061812799
0.00074774418
0.00088260055
0.0010181794
0.0011516702
0.0012814654
0.0014066075
0.0015265236
0.0016409253
0.0017497228
0.0018529476
0.0019507069
0.0020431584
0.0021304905
0.0022129095
0.0022906302
0.0023638704
0.0024328466
0.0024977713
0.0025588509
0.0026162852
0.0026702655
0.0027209766
0.0027685918
0.0028132872
0.0028552001
0.0028945744
0.0029312465
0.0029666293
0.0029957425
0.0030421976
0.00014791806
0.00014792606
0.00014793108
0.00014793157
0.00014792773
0.00014792018
0.00014790933
0.0001478955
0.00014787889
0.00014785964
0.00014783776
0.00014781322
0.00014778593
0.00014775576
0.00014772257
0.00014768618
0.00014764639
0.00014760299
0.00014755572
0.00014750435
0.00014744859
0.00014738818
0.00014732284
0.00014725226
0.00014717616
0.00014709424
0.0001470062
0.00014691176
0.00014681065
0.00014670261
0.00014658741
0.00014646484
0.00014633473
0.00014619699
0.00014605158
0.00014589855
0.00014573803
0.00014557031
0.00014539575
0.0001452148
0.00014502828
0.00014483663
0.00014464082
0.00014444216
0.00014424198
0.0001440416
0.00014384295
0.00014364844
0.00014346051
0.00014328348
0.00014312152
0.00014298075
0.00014287127
0.00014278847
0.00014278274
0.00014283056
0.00014297799
0.00014326915
0.00014375303
0.00014450995
0.00014566258
0.00014740793
0.00015004588
0.00015403943
0.00016022329
0.0001699002
0.00018514109
0.00020928893
0.00024684385
0.00030153266
0.00037567261
0.00046946901
0.00058002882
0.00070224679
0.00083066517
0.00096093585
0.0010901758
0.0012165982
0.0013390783
0.0014569202
0.0015697367
0.0016773514
0.0017797237
0.0018769035
0.0019690015
0.0020561675
0.002138576
0.0022164159
0.0022898837
0.0023591782
0.0024244971
0.0024860358
0.0025439825
0.0025985285
0.0026498309
0.0026981534
0.0027433289
0.0027869563
0.0028231004
0.0028809075
0.0001479191
0.00014792269
0.00014792417
0.00014792218
0.00014791667
0.00014790798
0.00014789641
0.00014788221
0.0001478656
0.0001478467
0.00014782558
0.00014780221
0.00014777655
0.00014774849
0.00014771791
0.00014768466
0.00014764857
0.00014760947
0.00014756713
0.00014752134
0.00014747189
0.00014741853
0.00014736102
0.00014729912
0.00014723257
0.0001471611
0.00014708447
0.00014700242
0.00014691468
0.00014682101
0.00014672117
0.00014661492
0.00014650206
0.00014638239
0.00014625578
0.00014612215
0.00014598146
0.00014583376
0.0001456792
0.00014551794
0.00014535038
0.00014517682
0.00014499774
0.00014481383
0.00014462587
0.00014443471
0.00014424138
0.0001440472
0.00014385357
0.00014366257
0.00014347653
0.00014329825
0.00014313299
0.00014297921
0.00014285534
0.0001427607
0.00014269663
0.00014270773
0.00014277805
0.00014295575
0.00014327652
0.00014379441
0.00014459471
0.00014579298
0.0001475841
0.00015027036
0.00015431222
0.00016050584
0.00017013038
0.00018518619
0.000208797
0.00024505397
0.00029734801
0.00036825223
0.00045796339
0.00056373644
0.00068082174
0.00080421214
0.0009298836
0.0010550709
0.0011779694
0.0012974029
0.0014126289
0.001523213
0.0016289302
0.0017296964
0.0018255241
0.001916491
0.0020027188
0.0020843576
0.0021615759
0.0022345527
0.0023034711
0.0023685228
0.0024298734
0.0024877986
0.0025421188
0.0025946286
0.0026383552
0.0027084257
0.00014792392
0.0001479238
0.00014792216
0.00014791786
0.0001479107
0.00014790083
0.00014788843
0.0001478737
0.00014785683
0.00014783794
0.00014781712
0.00014779437
0.00014776968
0.00014774296
0.00014771412
0.00014768304
0.00014764957
0.00014761355
0.00014757481
0.00014753316
0.00014748839
0.00014744031
0.0001473887
0.00014733335
0.00014727405
0.00014721055
0.00014714264
0.00014707009
0.00014699267
0.00014691013
0.00014682225
0.0001467288
0.00014662954
0.00014652426
0.00014641278
0.00014629493
0.00014617059
0.00014603969
0.00014590221
0.00014575818
0.00014560773
0.00014545102
0.00014528827
0.00014511983
0.00014494614
0.00014476771
0.00014458515
0.00014439921
0.00014421073
0.00014402085
0.00014383092
0.00014364242
0.00014345819
0.00014327822
0.00014310927
0.00014295459
0.00014281401
0.0001427046
0.00014262563
0.0001425889
0.00014261658
0.00014272111
0.0001429425
0.00014331458
0.00014389645
0.00014477806
0.00014608406
0.00014801794
0.00015089462
0.0001552138
0.00016179686
0.0001719238
0.00018769638
0.00021225245
0.00024911023
0.00030170732
0.00037236419
0.00046088314
0.00056432547
0.00067815034
0.00079778927
0.00091961817
0.001041098
0.0011605164
0.0012767359
0.0013890293
0.0014969583
0.0016002834
0.0016989026
0.0017928088
0.001882061
0.0019667632
0.0020470489
0.0021230773
0.002194997
0.0022630778
0.0023271109
0.0023890902
0.0024409151
0.002524137
0.000147932
0.00014792884
0.00014792454
0.00014791817
0.00014790946
0.00014789842
0.00014788517
0.00014786984
0.00014785257
0.00014783348
0.00014781267
0.00014779017
0.00014776596
0.00014774002
0.00014771227
0.00014768262
0.00014765094
0.0001476171
0.00014758094
0.0001475423
0.000147501
0.00014745687
0.00014740973
0.00014735937
0.00014730561
0.00014724825
0.00014718709
0.00014712193
0.00014705255
0.00014697874
0.00014690029
0.00014681697
0.00014672855
0.00014663482
0.00014653557
0.00014643059
0.00014631973
0.00014620283
0.00014607979
0.00014595054
0.00014581507
0.00014567342
0.00014552565
0.00014537191
0.00014521242
0.00014504745
0.00014487737
0.0001447026
0.00014452365
0.00014434117
0.00014415598
0.00014396893
0.00014378159
0.00014359445
0.00014341022
0.0001432316
0.00014305896
0.00014289905
0.00014275435
0.00014262987
0.00014253551
0.00014246903
0.00014247018
0.00014253027
0.00014268038
0.00014295536
0.00014339705
0.0001440733
0.00014508015
0.00014656062
0.00014874157
0.00015195813
0.00015677249
0.00016410997
0.00017533901
0.00019273263
0.00021930898
0.00025852711
0.00031366418
0.00038641176
0.00047586849
0.00057874916
0.00069067521
0.00080753227
0.00092613389
0.001044224
0.0011602533
0.0012731843
0.0013823483
0.0014873362
0.0015879205
0.0016840011
0.0017755676
0.0018626765
0.0019454071
0.0020239848
0.002098139
0.0021700552
0.0022304076
0.0023275841
0.0001479429
0.00014793727
0.00014793075
0.00014792258
0.00014791248
0.00014790037
0.0001478863
0.00014787035
0.00014785263
0.00014783326
0.0001478123
0.00014778981
0.00014776579
0.00014774025
0.00014771312
0.00014768435
0.00014765383
0.00014762146
0.0001475871
0.00014755061
0.00014751185
0.00014747065
0.00014742685
0.00014738029
0.00014733078
0.00014727816
0.00014722224
0.00014716285
0.00014709979
0.00014703288
0.00014696191
0.00014688668
0.00014680696
0.00014672255
0.00014663323
0.00014653879
0.00014643904
0.0001463338
0.00014622292
0.00014610626
0.00014598373
0.00014585527
0.00014572085
0.0001455805
0.00014543428
0.00014528232
0.0001451248
0.00014496195
0.00014479407
0.00014462152
0.0001444448
0.00014426441
0.00014408125
0.00014389583
0.0001437094
0.00014352368
0.00014333933
0.00014315928
0.00014298577
0.0001428213
0.0001426711
0.00014253523
0.00014242932
0.00014235522
0.00014232284
0.00014234972
0.00014245112
0.00014266052
0.00014300959
0.00014355037
0.00014435929
0.00014554482
0.00014727357
0.00014981309
0.00015355283
0.00015915336
0.00016760699
0.00018057901
0.0002004641
0.00023036263
0.00027372427
0.00033330609
0.00040988233
0.00050168909
0.00060509715
0.00071595336
0.00083063548
0.00094640476
0.0010613128
0.0011740131
0.0012836027
0.0013894978
0.001491341
0.0015889392
0.0016821936
0.0017712064
0.0018555821
0.0019376679
0.0020068047
0.0021185537
0.00014795625
0.00014794864
0.00014794028
0.00014793059
0.00014791927
0.0001479062
0.00014789139
0.00014787487
0.00014785673
0.00014783704
0.00014781587
0.00014779328
0.00014776929
0.0001477439
0.0001477171
0.00014768883
0.00014765903
0.00014762761
0.00014759446
0.00014755948
0.00014752252
0.00014748345
0.00014744213
0.00014739841
0.00014735213
0.00014730315
0.0001472513
0.00014719641
0.00014713833
0.00014707688
0.00014701187
0.00014694311
0.00014687041
0.00014679355
0.00014671233
0.00014662653
0.00014653597
0.00014644044
0.00014633976
0.00014623377
0.00014612232
0.0001460053
0.00014588261
0.00014575419
0.00014562002
0.00014548011
0.00014533452
0.00014518334
0.00014502674
0.00014486489
0.00014469808
0.00014452661
0.00014435099
0.00014417162
0.00014398913
0.00014380457
0.00014361856
0.00014343254
0.00014324806
0.00014306661
0.00014289112
0.00014272222
0.00014256658
0.00014242758
0.00014231049
0.00014222297
0.00014216701
0.0001421749
0.00014224354
0.0001424043
0.00014268671
0.0001431332
0.00014380438
0.00014479246
0.00014622395
0.00014830788
0.00015134206
0.0001558267
0.00016252505
0.00017268466
0.0001881958
0.00021170146
0.00024646292
0.00029566784
0.0003612172
0.00044273737
0.00053761149
0.00064202068
0.00075216598
0.00086494473
0.00097805536
0.0010898622
0.0011992379
0.0013054315
0.0014079416
0.0015065848
0.0016007172
0.0016927731
0.0017706336
0.001897223
0.00014797176
0.00014796254
0.00014795269
0.00014794172
0.00014792936
0.00014791547
0.00014790001
0.00014788299
0.00014786447
0.0001478445
0.00014782313
0.00014780041
0.00014777638
0.00014775104
0.00014772438
0.00014769639
0.00014766701
0.00014763619
0.00014760383
0.00014756985
0.00014753414
0.00014749659
0.00014745707
0.00014741545
0.0001473716
0.00014732538
0.00014727666
0.00014722528
0.0001471711
0.00014711395
0.00014705368
0.00014699011
0.00014692305
0.00014685232
0.0001467777
0.00014669901
0.00014661604
0.00014652859
0.00014643647
0.00014633949
0.0001462375
0.00014613032
0.00014601784
0.00014589992
0.00014577649
0.00014564749
0.00014551288
0.00014537268
0.00014522693
0.00014507569
0.00014491912
0.00014475736
0.0001445907
0.00014441939
0.00014424381
0.00014406454
0.00014388208
0.0001436972
0.0001435109
0.00014332415
0.00014313865
0.00014295516
0.00014277675
0.0001426061
0.00014244619
0.00014230152
0.000142174
0.00014207698
0.00014201131
0.00014199703
0.00014204148
0.00014216701
0.00014240023
0.00014277928
0.00014335423
0.00014420245
0.00014542882
0.00014719855
0.00014975535
0.00015349469
0.00015903134
0.00016734348
0.00017994866
0.00019907562
0.00022767227
0.00026898288
0.0003255533
0.00039808962
0.0004849982
0.00058301508
0.00068839542
0.0007978164
0.00090869502
0.0010191469
0.0011278237
0.0012339299
0.0013363268
0.0014373753
0.0015233288
0.0016643962
0.00014798918
0.00014797866
0.00014796759
0.00014795556
0.00014794233
0.00014792775
0.00014791174
0.00014789431
0.00014787548
0.00014785528
0.00014783374
0.00014781092
0.00014778684
0.0001477615
0.00014773493
0.00014770709
0.00014767797
0.00014764752
0.00014761567
0.00014758236
0.00014754751
0.00014751101
0.00014747278
0.00014743269
0.00014739063
0.00014734649
0.00014730014
0.00014725146
0.00014720031
0.00014714655
0.00014709003
0.00014703059
0.00014696807
0.00014690229
0.00014683305
0.00014676018
0.00014668347
0.00014660273
0.00014651777
0.0001464284
0.00014633443
0.0001462357
0.00014613203
0.00014602329
0.00014590933
0.00014579006
0.00014566539
0.00014553525
0.00014539962
0.00014525848
0.00014511188
0.00014495987
0.00014480257
0.00014464015
0.0001444728
0.00014430084
0.00014412461
0.00014394456
0.00014376131
0.0001435755
0.00014338815
0.00014319992
0.00014301239
0.00014282732
0.00014264663
0.00014247308
0.00014230808
0.00014215803
0.00014202562
0.00014191949
0.00014184528
0.00014181364
0.00014183867
0.00014193825
0.00014213576
0.00014246496
0.00014297016
0.00014371628
0.0001447948
0.00014634467
0.00014857463
0.00015180843
0.00015655556
0.00016361838
0.00017425577
0.00019036508
0.00021457275
0.00025000273
0.00029950923
0.00036454893
0.00044441416
0.00053646824
0.00063717964
0.00074314498
0.00085156255
0.00096046879
0.0010677711
0.0011754352
0.0012678346
0.0014219061
0.0001480083
0.00014799674
0.00014798467
0.00014797177
0.00014795782
0.00014794266
0.00014792621
0.00014790845
0.00014788937
0.000147869
0.00014784736
0.00014782447
0.00014780037
0.00014777506
0.00014774855
0.00014772083
0.00014769189
0.00014766169
0.0001476302
0.00014759735
0.00014756309
0.00014752734
0.00014749001
0.00014745103
0.00014741029
0.00014736769
0.00014732313
0.0001472765
0.00014722768
0.00014717656
0.00014712298
0.00014706682
0.00014700792
0.00014694612
0.00014688125
0.00014681312
0.00014674156
0.00014666638
0.00014658739
0.0001465044
0.00014641723
0.00014632569
0.0001462296
0.00014612881
0.00014602314
0.00014591247
0.00014579666
0.00014567562
0.00014554924
0.00014541748
0.00014528028
0.00014513765
0.0001449896
0.0001448362
0.00014467753
0.00014451375
0.00014434507
0.00014417175
0.00014399415
0.00014381268
0.00014362797
0.00014344054
0.00014325124
0.00014306121
0.00014287171
0.00014268448
0.00014250064
0.00014232346
0.00014215525
0.00014200051
0.00014186334
0.00014174953
0.00014166613
0.00014162299
0.00014163306
0.00014171261
0.0001418833
0.00014217482
0.00014262749
0.00014329882
0.00014427131
0.00014566645
0.00014766653
0.00015054975
0.00015475073
0.00016095495
0.00017024135
0.0001842576
0.00020535103
0.00023646462
0.00028055673
0.0003395628
0.00041346851
0.00050023749
0.00059660668
0.00069933445
0.00080486328
0.00091426264
0.0010096502
0.0011732941
0.00014802895
0.00014801655
0.00014800367
0.00014799006
0.00014797551
0.00014795988
0.00014794307
0.00014792505
0.0001479058
0.00014788532
0.00014786363
0.00014784074
0.00014781666
0.00014779141
0.00014776499
0.0001477374
0.00014770862
0.00014767864
0.00014764742
0.00014761492
0.00014758109
0.00014754588
0.00014750922
0.00014747105
0.00014743128
0.00014738983
0.00014734662
0.00014730154
0.00014725451
0.00014720541
0.00014715414
0.00014710055
0.00014704453
0.00014698591
0.00014692455
0.00014686028
0.00014679293
0.00014672233
0.00014664829
0.00014657064
0.00014648918
0.00014640374
0.00014631413
0.00014622018
0.00014612172
0.00014601858
0.00014591061
0.00014579768
0.00014567966
0.00014555645
0.00014542796
0.00014529412
0.00014515489
0.00014501025
0.00014486023
0.00014470487
0.00014454426
0.00014437855
0.00014420793
0.00014403265
0.00014385307
0.00014366958
0.00014348267
0.00014329305
0.00014310154
0.00014290927
0.00014271711
0.00014252686