/*--------------------------------*- C++ -*----------------------------------*\
  =========                 |
  \\      /  F ield         | OpenFOAM: The Open Source CFD Toolbox
   \\    /   O peration     | Website:  https://openfoam.org
    \\  /    A nd           | Version:  12
     \\/     M anipulation  |
\*---------------------------------------------------------------------------*/
FoamFile
{
    format      ascii;
    class       volScalarField;
    location    "1900";
    object      p;
}
// * * * * * * * * * * * * * * * * * * * * * * * * * * * * * * * * * * * * * //

dimensions      [0 2 -2 0 0 0 0];

internalField   nonuniform List<scalar> 
13056
(
0.0074566769
0.0074975588
0.0075802858
0.0076826504
0.0078059907
0.0079483596
0.0081074768
0.0082820701
0.0084715779
0.0086759257
0.0088955059
0.0091312576
0.0093847461
0.0096584684
0.0099559036
0.010282815
0.010646128
0.011061131
0.011539262
0.012137203
0.012846763
0.014006168
0.015241382
0.021195394
0.017482933
0.011308798
0.010021928
0.0095223461
0.0090185902
0.0086012851
0.0082841985
0.0080403405
0.0078216929
0.0076208742
0.0074414872
0.0072868262
0.0071499323
0.0070171865
0.0068941344
0.0067845085
0.0066792072
0.0065802836
0.0064877553
0.0063994049
0.0063157882
0.006235603
0.0061586816
0.0060854079
0.0060139332
0.0059452014
0.0058792448
0.0058144674
0.0057518109
0.0056912842
0.0056317705
0.0055734101
0.005516626
0.0054611782
0.005406248
0.0053522797
0.0052995206
0.0052474826
0.0051957872
0.0051447483
0.0050946097
0.0050449142
0.0049954014
0.0049461566
0.0048975477
0.0048493207
0.0048010797
0.0047527617
0.0047048385
0.0046572859
0.0046094601
0.0045615096
0.0045134255
0.0044655193
0.004417535
0.0043691418
0.0043203003
0.0042713298
0.0042222925
0.0041726546
0.0041224652
0.0040716105
0.004020455
0.003968872
0.0039163525
0.0038629642
0.003808792
0.0037539937
0.0036982013
0.0036412048
0.0035829191
0.0035236637
0.0034632786
0.0034012198
0.0033374453
0.0032722005
0.0032053989
0.0031364462
0.0030652133
0.0029918524
0.0029162639
0.0028378444
0.0027562935
0.0026718243
0.0025841587
0.0024924317
0.0023966189
0.002296581
0.0021920672
0.0020839717
0.0019758658
0.001869869
0.0017655984
0.0016630737
0.0015624551
0.0014634928
0.0013659612
0.0012699652
0.0011758427
0.0010835297
0.00099283687
0.00090408338
0.00081759801
0.0007338328
0.00065359536
0.00057645413
0.00050711165
0.00043915559
0.00040025272
0.00033848695
0.00056311202
-0.00049886768
0.0074566769
0.0074975588
0.0075802858
0.0076826504
0.0078059907
0.0079483596
0.0081074768
0.0082820701
0.0084715779
0.0086759257
0.0088955059
0.0091312576
0.0093847461
0.0096584685
0.0099559036
0.010282815
0.010646128
0.011061131
0.011539262
0.012137204
0.012846763
0.014006168
0.015241383
0.021193049
0.01748567
0.011309424
0.010022148
0.0095224919
0.0090186979
0.0086013725
0.0082842722
0.0080404032
0.0078217469
0.0076209212
0.0074415286
0.007286863
0.0071499652
0.0070172162
0.0068941614
0.0067845331
0.0066792297
0.0065803044
0.0064877745
0.0063994228
0.0063158049
0.0062356186
0.0061586962
0.0060854216
0.0060139461
0.0059452135
0.0058792563
0.0058144782
0.0057518212
0.0056912939
0.0056317797
0.0055734189
0.0055166344
0.0054611862
0.0054062556
0.005352287
0.0052995275
0.0052474893
0.0051957935
0.0051447543
0.0050946155
0.0050449198
0.0049954068
0.0049461617
0.0048975526
0.0048493254
0.0048010842
0.0047527661
0.0047048427
0.0046572899
0.004609464
0.0045615133
0.0045134291
0.0044655227
0.0044175383
0.004369145
0.0043203034
0.0042713327
0.0042222954
0.0041726574
0.0041224678
0.004071613
0.0040204575
0.0039688743
0.0039163548
0.0038629664
0.0038087941
0.0037539957
0.0036982033
0.0036412067
0.0035829209
0.0035236655
0.0034632802
0.0034012214
0.0033374468
0.0032722019
0.0032054003
0.0031364475
0.0030652146
0.0029918537
0.002916265
0.0028378455
0.0027562946
0.0026718253
0.0025841596
0.0024924327
0.0023966198
0.0022965819
0.002192068
0.0020839725
0.0019758665
0.0018698697
0.0017655991
0.0016630743
0.0015624557
0.0014634934
0.0013659618
0.0012699657
0.0011758432
0.0010835302
0.00099283734
0.00090408384
0.00081759846
0.00073383323
0.00065359578
0.00057645453
0.00050711204
0.00043915598
0.0004002531
0.00033848736
0.00056311248
-0.00049886737
0.0074566769
0.0074975588
0.0075802858
0.0076826504
0.0078059907
0.0079483596
0.0081074768
0.0082820701
0.008471578
0.0086759258
0.008895506
0.0091312576
0.0093847461
0.0096584685
0.0099559037
0.010282815
0.010646128
0.011061131
0.011539262
0.012137204
0.012846763
0.014006168
0.015241383
0.021191134
0.017490071
0.011310555
0.010022491
0.0095227064
0.0090188539
0.008601498
0.0082843774
0.0080404924
0.0078218233
0.0076209876
0.007441587
0.0072869147
0.0071500114
0.0070172577
0.0068941991
0.0067845674
0.0066792612
0.0065803333
0.0064878013
0.0063994476
0.006315828
0.0062356402
0.0061587164
0.0060854406
0.0060139639
0.0059452303
0.0058792721
0.0058144932
0.0057518353
0.0056913073
0.0056317924
0.005573431
0.0055166459
0.0054611971
0.0054062661
0.0053522969
0.005299537
0.0052474984
0.0051958022
0.0051447626
0.0050946234
0.0050449274
0.0049954141
0.0049461687
0.0048975593
0.0048493318
0.0048010904
0.004752772
0.0047048484
0.0046572954
0.0046094693
0.0045615184
0.004513434
0.0044655274
0.0044175428
0.0043691493
0.0043203076
0.0042713367
0.0042222993
0.0041726611
0.0041224714
0.0040716165
0.0040204608
0.0039688775
0.0039163579
0.0038629693
0.0038087969
0.0037539984
0.0036982059
0.0036412092
0.0035829233
0.0035236678
0.0034632824
0.0034012235
0.0033374488
0.0032722039
0.0032054021
0.0031364493
0.0030652164
0.0029918553
0.0029162666
0.002837847
0.002756296
0.0026718267
0.002584161
0.0024924339
0.002396621
0.002296583
0.0021920691
0.0020839735
0.0019758675
0.0018698706
0.0017656
0.0016630752
0.0015624564
0.0014634941
0.0013659625
0.0012699664
0.0011758439
0.0010835308
0.00099283797
0.00090408445
0.00081759904
0.0007338338
0.00065359633
0.00057645507
0.00050711256
0.00043915648
0.00040025361
0.00033848787
0.00056311308
-0.00049886698
0.0074566769
0.0074975588
0.0075802858
0.0076826505
0.0078059907
0.0079483596
0.0081074768
0.0082820701
0.008471578
0.0086759258
0.008895506
0.0091312577
0.0093847462
0.0096584686
0.0099559037
0.010282815
0.010646128
0.011061131
0.011539262
0.012137204
0.012846763
0.014006168
0.015241384
0.021189769
0.017496144
0.011312418
0.010022992
0.0095229978
0.0090190613
0.0086016629
0.0082845145
0.0080406081
0.0078219222
0.0076210732
0.0074416621
0.0072869812
0.0071500706
0.0070173109
0.0068942472
0.0067846112
0.0066793013
0.0065803702
0.0064878353
0.0063994791
0.0063158573
0.0062356675
0.0061587419
0.0060854645
0.0060139864
0.0059452515
0.005879292
0.005814512
0.0057518531
0.0056913241
0.0056318084
0.0055734462
0.0055166603
0.0054612109
0.0054062791
0.0053523094
0.0052995489
0.0052475097
0.005195813
0.005144773
0.0050946334
0.0050449369
0.0049954231
0.0049461774
0.0048975677
0.0048493398
0.0048010981
0.0047527794
0.0047048555
0.0046573022
0.0046094758
0.0045615247
0.00451344
0.0044655332
0.0044175484
0.0043691547
0.0043203127
0.0042713417
0.004222304
0.0041726657
0.0041224758
0.0040716207
0.0040204649
0.0039688814
0.0039163616
0.0038629729
0.0038088004
0.0037540018
0.0036982091
0.0036412123
0.0035829263
0.0035236706
0.0034632852
0.0034012262
0.0033374514
0.0032722063
0.0032054044
0.0031364515
0.0030652185
0.0029918573
0.0029162685
0.0028378489
0.0027562977
0.0026718284
0.0025841625
0.0024924354
0.0023966224
0.0022965843
0.0021920704
0.0020839747
0.0019758686
0.0018698717
0.001765601
0.0016630762
0.0015624574
0.001463495
0.0013659634
0.0012699673
0.0011758447
0.0010835316
0.00099283872
0.00090408517
0.00081759974
0.00073383448
0.00065359699
0.00057645571
0.00050711319
0.00043915709
0.00040025423
0.00033848846
0.0005631138
-0.00049886654
0.0074566769
0.0074975588
0.0075802858
0.0076826505
0.0078059908
0.0079483597
0.0081074769
0.0082820702
0.008471578
0.0086759258
0.008895506
0.0091312577
0.0093847463
0.0096584686
0.0099559038
0.010282815
0.010646128
0.011061131
0.011539262
0.012137204
0.012846763
0.014006168
0.015241385
0.021188685
0.017503776
0.011315147
0.010023694
0.0095233896
0.0090193361
0.0086018799
0.0082846945
0.0080407598
0.0078220516
0.0076211853
0.0074417604
0.0072870681
0.0071501479
0.0070173804
0.0068943101
0.0067846685
0.0066793536
0.0065804183
0.0064878797
0.0063995203
0.0063158955
0.0062357031
0.0061587753
0.0060854957
0.0060140157
0.005945279
0.005879318
0.0058145365
0.0057518763
0.0056913461
0.0056318292
0.0055734659
0.0055166791
0.0054612287
0.0054062961
0.0053523256
0.0052995644
0.0052475245
0.0051958271
0.0051447865
0.0050946463
0.0050449492
0.004995435
0.0049461888
0.0048975785
0.0048493503
0.0048011081
0.004752789
0.0047048647
0.004657311
0.0046094843
0.0045615328
0.0045134478
0.0044655407
0.0044175557
0.0043691617
0.0043203194
0.0042713481
0.0042223102
0.0041726716
0.0041224815
0.0040716262
0.0040204702
0.0039688865
0.0039163665
0.0038629776
0.0038088049
0.0037540061
0.0036982133
0.0036412163
0.0035829301
0.0035236743
0.0034632887
0.0034012295
0.0033374546
0.0032722094
0.0032054074
0.0031364544
0.0030652212
0.00299186
0.002916271
0.0028378513
0.0027563
0.0026718306
0.0025841646
0.0024924374
0.0023966243
0.0022965861
0.002192072
0.0020839763
0.0019758701
0.0018698731
0.0017656024
0.0016630775
0.0015624586
0.0014634962
0.0013659645
0.0012699684
0.0011758458
0.0010835326
0.00099283969
0.00090408611
0.00081760065
0.00073383535
0.00065359784
0.00057645653
0.000507114
0.00043915788
0.00040025501
0.00033848921
0.00056311472
-0.00049886597
0.0074566769
0.0074975588
0.0075802858
0.0076826505
0.0078059908
0.0079483597
0.0081074769
0.0082820702
0.0084715781
0.0086759259
0.0088955061
0.0091312578
0.0093847463
0.0096584687
0.0099559039
0.010282815
0.010646128
0.011061132
0.011539263
0.012137204
0.012846764
0.014006167
0.015241387
0.021187713
0.017512008
0.011318643
0.010024595
0.0095238793
0.0090196758
0.0086021469
0.0082849156
0.0080409462
0.0078222108
0.0076213232
0.0074418814
0.0072871752
0.0071502433
0.0070174661
0.0068943878
0.0067847392
0.0066794183
0.0065804778
0.0064879347
0.0063995712
0.0063159429
0.0062357473
0.0061588166
0.0060855345
0.0060140521
0.0059453133
0.0058793503
0.005814567
0.0057519051
0.0056913734
0.0056318551
0.0055734905
0.0055167025
0.005461251
0.0054063173
0.0053523458
0.0052995837
0.0052475429
0.0051958448
0.0051448033
0.0050946624
0.0050449647
0.0049954498
0.0049462029
0.0048975921
0.0048493633
0.0048011206
0.004752801
0.0047048762
0.0046573221
0.0046094949
0.0045615431
0.0045134577
0.0044655502
0.0044175647
0.0043691704
0.0043203278
0.0042713562
0.004222318
0.0041726791
0.0041224887
0.0040716331
0.0040204768
0.0039688929
0.0039163727
0.0038629836
0.0038088106
0.0037540116
0.0036982185
0.0036412213
0.003582935
0.003523679
0.0034632932
0.0034012338
0.0033374587
0.0032722133
0.0032054112
0.003136458
0.0030652246
0.0029918633
0.0029162742
0.0028378543
0.0027563029
0.0026718333
0.0025841672
0.0024924399
0.0023966266
0.0022965883
0.0021920741
0.0020839783
0.001975872
0.0018698749
0.0017656041
0.0016630791
0.0015624602
0.0014634977
0.001365966
0.0012699698
0.0011758471
0.0010835339
0.00099284092
0.0009040873
0.00081760179
0.00073383646
0.00065359891
0.00057645758
0.00050711502
0.00043915887
0.00040025601
0.00033849017
0.00056311589
-0.00049886525
0.0074566769
0.0074975588
0.0075802858
0.0076826505
0.0078059908
0.0079483597
0.008107477
0.0082820703
0.0084715781
0.008675926
0.0088955062
0.0091312579
0.0093847465
0.0096584689
0.0099559041
0.010282816
0.010646128
0.011061132
0.011539263
0.012137204
0.012846764
0.014006167
0.015241389
0.021186758
0.017520027
0.011322552
0.010025697
0.0095244639
0.0090200766
0.0086024603
0.0082851746
0.0080411645
0.0078223972
0.0076214848
0.0074420233
0.0072873008
0.0071503553
0.0070175668
0.006894479
0.0067848223
0.0066794944
0.0065805478
0.0064879993
0.0063996312
0.0063159987
0.0062357994
0.0061588653
0.0060855801
0.006014095
0.0059453537
0.0058793884
0.005814603
0.0057519392
0.0056914057
0.0056318857
0.0055735196
0.0055167302
0.0054612773
0.0054063424
0.0053523698
0.0052996065
0.0052475647
0.0051958656
0.0051448233
0.0050946815
0.005044983
0.0049954673
0.0049462198
0.0048976082
0.0048493788
0.0048011355
0.0047528152
0.0047048899
0.0046573353
0.0046095076
0.0045615552
0.0045134694
0.0044655614
0.0044175756
0.0043691808
0.0043203378
0.0042713659
0.0042223273
0.004172688
0.0041224973
0.0040716414
0.0040204848
0.0039689005
0.00391638
0.0038629906
0.0038088174
0.0037540181
0.0036982248
0.0036412273
0.0035829408
0.0035236845
0.0034632985
0.0034012389
0.0033374636
0.0032722181
0.0032054157
0.0031364623
0.0030652288
0.0029918672
0.002916278
0.0028378579
0.0027563063
0.0026718366
0.0025841703
0.0024924428
0.0023966294
0.002296591
0.0021920767
0.0020839807
0.0019758743
0.0018698771
0.0017656062
0.0016630811
0.0015624621
0.0014634995
0.0013659677
0.0012699714
0.0011758487
0.0010835354
0.0009928424
0.00090408873
0.00081760318
0.0007338378
0.00065360022
0.00057645884
0.00050711625
0.00043916008
0.00040025722
0.00033849134
0.00056311732
-0.00049886437
0.0074566769
0.0074975588
0.0075802859
0.0076826506
0.0078059909
0.0079483598
0.008107477
0.0082820703
0.0084715782
0.0086759261
0.0088955063
0.009131258
0.0093847466
0.0096584691
0.0099559043
0.010282816
0.010646128
0.011061132
0.011539263
0.012137205
0.012846765
0.014006166
0.015241392
0.02118575
0.017527678
0.011326782
0.010027018
0.0095251517
0.0090205421
0.0086028223
0.008285473
0.0080414157
0.0078226116
0.0076216706
0.0074421864
0.0072874452
0.007150484
0.0070176825
0.006894584
0.0067849179
0.0066795819
0.0065806284
0.0064880738
0.0063997002
0.0063160629
0.0062358593
0.0061589214
0.0060856327
0.0060141445
0.0059454003
0.0058794323
0.0058146445
0.0057519785
0.0056914429
0.005631921
0.0055735532
0.0055167621
0.0054613077
0.0054063714
0.0053523974
0.0052996329
0.0052475899
0.0051958897
0.0051448464
0.0050947036
0.0050450041
0.0049954876
0.0049462392
0.0048976269
0.0048493967
0.0048011526
0.0047528317
0.0047049058
0.0046573505
0.0046095222
0.0045615693
0.0045134829
0.0044655745
0.0044175881
0.0043691928
0.0043203494
0.004271377
0.004222338
0.0041726983
0.0041225072
0.0040716509
0.004020494
0.0039689094
0.0039163885
0.0038629988
0.0038088253
0.0037540257
0.0036982321
0.0036412343
0.0035829475
0.003523691
0.0034633047
0.0034012449
0.0033374693
0.0032722235
0.0032054209
0.0031364673
0.0030652336
0.0029918718
0.0029162824
0.0028378621
0.0027563103
0.0026718404
0.002584174
0.0024924463
0.0023966327
0.0022965941
0.0021920796
0.0020839835
0.001975877
0.0018698797
0.0017656086
0.0016630834
0.0015624643
0.0014635016
0.0013659697
0.0012699734
0.0011758506
0.0010835372
0.00099284414
0.00090409041
0.0008176048
0.00073383937
0.00065360174
0.00057646032
0.0005071177
0.00043916149
0.00040025864
0.0003384927
0.00056311898
-0.00049886334
0.0074566769
0.0074975589
0.0075802859
0.0076826506
0.0078059909
0.0079483599
0.0081074771
0.0082820704
0.0084715783
0.0086759262
0.0088955064
0.0091312582
0.0093847468
0.0096584693
0.0099559045
0.010282816
0.010646129
0.011061133
0.011539264
0.012137205
0.012846765
0.014006165
0.015241396
0.021184617
0.017535022
0.011331965
0.010028596
0.0095259587
0.0090210815
0.008603239
0.0082858155
0.0080417036
0.0078228572
0.0076218834
0.0074423731
0.0072876104
0.0071506313
0.007017815
0.006894704
0.0067850272
0.006679682
0.0065807205
0.0064881589
0.0063997791
0.0063161363
0.0062359278
0.0061589855
0.0060856929
0.006014201
0.0059454535
0.0058794825
0.005814692
0.0057520234
0.0056914855
0.0056319614
0.0055735916
0.0055167986
0.0054613425
0.0054064046
0.005352429
0.0052996631
0.0052476188
0.0051959173
0.0051448728
0.0050947289
0.0050450283
0.0049955108
0.0049462615
0.0048976483
0.0048494172
0.0048011723
0.0047528506
0.0047049239
0.004657368
0.004609539
0.0045615854
0.0045134984
0.0044655894
0.0044176024
0.0043692067
0.0043203627
0.0042713898
0.0042223503
0.0041727102
0.0041225186
0.0040716619
0.0040205045
0.0039689196
0.0039163983
0.0038630082
0.0038088343
0.0037540344
0.0036982404
0.0036412424
0.0035829552
0.0035236984
0.0034633118
0.0034012517
0.0033374759
0.0032722298
0.003205427
0.0031364731
0.0030652391
0.0029918771
0.0029162874
0.0028378669
0.0027563149
0.0026718448
0.0025841781
0.0024924503
0.0023966365
0.0022965977
0.002192083
0.0020839868
0.00197588
0.0018698826
0.0017656114
0.0016630861
0.0015624669
0.0014635041
0.0013659721
0.0012699756
0.0011758527
0.0010835393
0.00099284615
0.00090409234
0.00081760668
0.00073384119
0.0006536035
0.00057646203
0.00050711938
0.00043916312
0.00040026028
0.00033849428
0.00056312091
-0.00049886216
0.0074566769
0.0074975589
0.0075802859
0.0076826507
0.007805991
0.0079483599
0.0081074772
0.0082820705
0.0084715784
0.0086759263
0.0088955066
0.0091312584
0.009384747
0.0096584695
0.0099559048
0.010282816
0.010646129
0.011061133
0.011539264
0.012137206
0.012846766
0.014006163
0.015241401
0.021183287
0.017542083
0.011338437
0.010030477
0.0095269068
0.009021707
0.0086037192
0.0082862089
0.0080420338
0.0078231387
0.007622127
0.0074425868
0.0072877996
0.0071507999
0.0070179665
0.0068948412
0.0067851522
0.0066797965
0.0065808258
0.0064882562
0.0063998693
0.0063162202
0.0062360061
0.0061590588
0.0060857616
0.0060142656
0.0059455144
0.0058795399
0.0058147462
0.0057520747
0.0056915341
0.0056320075
0.0055736354
0.0055168403
0.0054613822
0.0054064424
0.0053524652
0.0052996976
0.0052476517
0.0051959488
0.005144903
0.0050947578
0.005045056
0.0049955373
0.0049462869
0.0048976727
0.0048494406
0.0048011948
0.0047528722
0.0047049447
0.0046573879
0.0046095582
0.0045616039
0.0045135162
0.0044656065
0.0044176189
0.0043692224
0.0043203779
0.0042714044
0.0042223644
0.0041727237
0.0041225316
0.0040716745
0.0040205166
0.0039689312
0.0039164095
0.003863019
0.0038088447
0.0037540443
0.00369825
0.0036412516
0.003582964
0.0035237069
0.00346332
0.0034012595
0.0033374834
0.003272237
0.0032054339
0.0031364797
0.0030652454
0.0029918831
0.0029162932
0.0028378724
0.0027563202
0.0026718498
0.0025841829
0.0024924548
0.0023966409
0.0022966018
0.002192087
0.0020839905
0.0019758836
0.0018698859
0.0017656146
0.0016630891
0.0015624698
0.0014635069
0.0013659747
0.0012699782
0.0011758552
0.0010835417
0.00099284845
0.00090409456
0.00081760882
0.00073384327
0.00065360552
0.00057646399
0.0005071213
0.000439165
0.00040026216
0.00033849609
0.00056312311
-0.00049886079
0.0074566769
0.0074975589
0.007580286
0.0076826507
0.0078059911
0.00794836
0.0081074773
0.0082820707
0.0084715786
0.0086759265
0.0088955068
0.0091312586
0.0093847473
0.0096584698
0.0099559052
0.010282817
0.01064613
0.011061134
0.011539265
0.012137206
0.012846767
0.014006161
0.015241407
0.021181656
0.017548564
0.011346061
0.010032719
0.0095280234
0.009022434
0.0086042734
0.0082866614
0.0080424131
0.0078234616
0.0076224064
0.0074428317
0.0072880163
0.0071509929
0.0070181399
0.0068949984
0.0067852953
0.0066799274
0.0065809462
0.0064883674
0.0063999725
0.0063163162
0.0062360957
0.0061591426
0.0060858402
0.0060143395
0.0059455839
0.0058796055
0.0058148082
0.0057521333
0.0056915896
0.0056320603
0.0055736855
0.005516888
0.0054614276
0.0054064857
0.0053525065
0.005299737
0.0052476894
0.0051959849
0.0051449374
0.0050947908
0.0050450876
0.0049955676
0.004946316
0.0048977006
0.0048494673
0.0048012205
0.0047528969
0.0047049684
0.0046574107
0.0046095801
0.0045616249
0.0045135364
0.004465626
0.0044176376
0.0043692405
0.0043203953
0.0042714211
0.0042223805
0.0041727392
0.0041225465
0.0040716888
0.0040205304
0.0039689444
0.0039164223
0.0038630312
0.0038088565
0.0037540557
0.0036982609
0.0036412621
0.0035829741
0.0035237166
0.0034633293
0.0034012685
0.0033374919
0.0032722452
0.0032054417
0.0031364872
0.0030652527
0.0029918901
0.0029162998
0.0028378787
0.0027563262
0.0026718556
0.0025841884
0.00249246
0.0023966458
0.0022966065
0.0021920914
0.0020839947
0.0019758876
0.0018698898
0.0017656182
0.0016630926
0.0015624731
0.0014635101
0.0013659778
0.0012699811
0.001175858
0.0010835444
0.00099285107
0.0009040971
0.00081761128
0.00073384564
0.00065360783
0.00057646623
0.00050712349
0.00043916714
0.00040026432
0.00033849816
0.00056312564
-0.00049885924
0.0074566769
0.007497559
0.007580286
0.0076826508
0.0078059912
0.0079483601
0.0081074774
0.0082820708
0.0084715788
0.0086759267
0.0088955071
0.0091312589
0.0093847476
0.0096584702
0.0099559056
0.010282817
0.01064613
0.011061134
0.011539265
0.012137207
0.012846768
0.014006158
0.015241414
0.021179598
0.017553466
0.011354883
0.010035394
0.0095293423
0.0090232814
0.0086049148
0.0082871832
0.0080428497
0.007823833
0.0076227274
0.007443113
0.0072882651
0.0071512144
0.0070183389
0.0068951786
0.0067854594
0.0066800775
0.0065810843
0.0064884949
0.0064000907
0.0063164261
0.0062361983
0.0061592385
0.0060859301
0.006014424
0.0059456636
0.0058796806
0.0058148791
0.0057522005
0.0056916532
0.0056321206
0.0055737429
0.0055169425
0.0054614795
0.0054065352
0.0053525537
0.0052997821
0.0052477325
0.0051960261
0.0051449769
0.0050948285
0.0050451238
0.0049956023
0.0049463492
0.0048977324
0.0048494979
0.0048012499
0.0047529252
0.0047049955
0.0046574368
0.0046096051
0.004561649
0.0045135596
0.0044656482
0.004417659
0.0043692611
0.0043204151
0.0042714402
0.0042223988
0.0041727569
0.0041225636
0.0040717052
0.0040205462
0.0039689596
0.0039164369
0.0038630453
0.00380887
0.0037540687
0.0036982734
0.0036412741
0.0035829857
0.0035237277
0.0034633399
0.0034012787
0.0033375017
0.0032722546
0.0032054508
0.0031364959
0.0030652609
0.002991898
0.0029163074
0.0028378859
0.0027563331
0.0026718621
0.0025841947
0.002492466
0.0023966515
0.0022966119
0.0021920965
0.0020839995
0.0019758922
0.0018698941
0.0017656224
0.0016630966
0.0015624769
0.0014635137
0.0013659813
0.0012699845
0.0011758613
0.0010835475
0.00099285408
0.0009041
0.00081761409
0.00073384836
0.00065361047
0.0005764688
0.000507126
0.00043916959
0.00040026678
0.00033850053
0.00056312853
-0.00049885745
0.0074566769
0.007497559
0.0075802861
0.0076826509
0.0078059913
0.0079483603
0.0081074776
0.008282071
0.008471579
0.008675927
0.0088955073
0.0091312592
0.009384748
0.0096584707
0.0099559061
0.010282818
0.010646131
0.011061135
0.011539266
0.012137208
0.012846769
0.014006153
0.015241423
0.02117697
0.017556149
0.011365051
0.01003859
0.0095309049
0.0090242721
0.0086056588
0.0082877863
0.0080433533
0.007824261
0.007623097
0.0074434368
0.0072885513
0.0071514692
0.0070185676
0.0068953857
0.0067856479
0.0066802499
0.0065812429
0.0064886413
0.0064002264
0.0063165523
0.0062363159
0.0061593486
0.0060860333
0.006014521
0.0059457549
0.0058797667
0.0058149604
0.0057522774
0.0056917262
0.0056321898
0.0055738086
0.0055170051
0.005461539
0.0054065919
0.0053526078
0.0052998338
0.0052477819
0.0051960733
0.005145022
0.0050948718
0.0050451652
0.004995642
0.0049463873
0.004897769
0.004849533
0.0048012835
0.0047529575
0.0047050266
0.0046574666
0.0046096338
0.0045616766
0.0045135861
0.0044656738
0.0044176836
0.0043692847
0.0043204379
0.0042714621
0.0042224199
0.0041727772
0.0041225831
0.0040717239
0.0040205642
0.003968977
0.0039164536
0.0038630614
0.0038088855
0.0037540835
0.0036982877
0.0036412878
0.0035829989
0.0035237403
0.0034633521
0.0034012904
0.003337513
0.0032722654
0.0032054611
0.0031365057
0.0030652704
0.002991907
0.002916316
0.0028378942
0.002756341
0.0026718697
0.0025842018
0.0024924728
0.002396658
0.0022966181
0.0021921024
0.0020840051
0.0019758974
0.0018698991
0.0017656272
0.0016631011
0.0015624813
0.0014635179
0.0013659853
0.0012699883
0.001175865
0.0010835511
0.00099285752
0.00090410333
0.0008176173
0.00073385148
0.00065361349
0.00057647174
0.00050712888
0.00043917239
0.00040026961
0.00033850324
0.00056313184
-0.00049885541
0.007456677
0.0074975591
0.0075802862
0.007682651
0.0078059914
0.0079483604
0.0081074778
0.0082820712
0.0084715792
0.0086759273
0.0088955077
0.0091312596
0.0093847485
0.0096584712
0.0099559068
0.010282819
0.010646132
0.011061136
0.011539267
0.012137208
0.01284677
0.014006147
0.015241435
0.021173603
0.017557348
0.011376717
0.010042406
0.0095327614
0.009025434
0.0086065242
0.0082884848
0.0080439356
0.0078247552
0.0076235236
0.0074438101
0.0072888811
0.0071517627
0.0070188311
0.0068956241
0.0067858648
0.0066804483
0.0065814253
0.0064888097
0.0064003824
0.0063166974
0.0062364512
0.0061594751
0.0060861519
0.0060146325
0.0059458598
0.0058798656
0.0058150539
0.0057523658
0.0056918099
0.0056322692
0.0055738841
0.0055170768
0.0054616074
0.005406657
0.00535267
0.0052998931
0.0052478385
0.0051961274
0.0051450739
0.0050949214
0.0050452127
0.0049956875
0.004946431
0.0048978109
0.0048495732
0.0048013221
0.0047529946
0.0047050622
0.0046575009
0.0046096667
0.0045617083
0.0045136166
0.004465703
0.0044177118
0.0043693118
0.0043204639
0.0042714872
0.004222444
0.0041728004
0.0041226054
0.0040717455
0.0040205849
0.0039689969
0.0039164727
0.0038630798
0.0038089032
0.0037541006
0.0036983041
0.0036413036
0.003583014
0.0035237549
0.0034633661
0.0034013038
0.0033375258
0.0032722777
0.0032054729
0.0031365171
0.0030652812
0.0029919174
0.0029163259
0.0028379037
0.0027563501
0.0026718783
0.0025842101
0.0024924806
0.0023966654
0.0022966251
0.0021921091
0.0020840114
0.0019759035
0.0018699049
0.0017656326
0.0016631064
0.0015624863
0.0014635227
0.0013659899
0.0012699928
0.0011758692
0.0010835552
0.00099286146
0.00090410713
0.00081762098
0.00073385504
0.00065361695
0.0005764751
0.00050713217
0.0004391756
0.00040027284
0.00033850636
0.00056313563
-0.00049885307
0.007456677
0.0074975591
0.0075802863
0.0076826511
0.0078059916
0.0079483606
0.008107478
0.0082820715
0.0084715796
0.0086759276
0.0088955081
0.0091312601
0.009384749
0.0096584718
0.0099559075
0.010282819
0.010646133
0.011061137
0.011539268
0.012137209
0.012846772
0.014006138
0.015241449
0.021169287
0.01755776
0.01139003
0.010046955
0.009534972
0.0090268008
0.0086075332
0.0082892956
0.0080446102
0.0078253272
0.0076240167
0.0074442415
0.0072892621
0.0071521015
0.0070191351
0.0068958992
0.006786115
0.0066806771
0.0065816355
0.0064890037
0.0064005621
0.0063168644
0.006236607
0.0061596208
0.0060862885
0.0060147607
0.0059459805
0.0058799794
0.0058151614
0.0057524675
0.0056919062
0.0056323606
0.0055739709
0.0055171594
0.0054616859
0.0054067319
0.0053527414
0.0052999613
0.0052479037
0.0051961897
0.0051451335
0.0050949784
0.0050452673
0.0049957398
0.0049464812
0.0048978591
0.0048496194
0.0048013665
0.0047530372
0.0047051032
0.0046575402
0.0046097045
0.0045617446
0.0045136515
0.0044657367
0.0044177441
0.0043693429
0.0043204939
0.004271516
0.0042224718
0.0041728271
0.0041226311
0.0040717702
0.0040206087
0.0039690198
0.0039164947
0.003863101
0.0038089235
0.0037541202
0.0036983229
0.0036413216
0.0035830314
0.0035237716
0.0034633821
0.0034013192
0.0033375406
0.0032722919
0.0032054864
0.00313653
0.0030652937
0.0029919293
0.0029163373
0.0028379145
0.0027563604
0.0026718882
0.0025842195
0.0024924896
0.0023966739
0.0022966332
0.0021921167
0.0020840187
0.0019759104
0.0018699115
0.0017656389
0.0016631124
0.001562492
0.0014635282
0.0013659952
0.0012699978
0.0011758741
0.0010835599
0.00099286598
0.0009041115
0.0008176252
0.00073385913
0.00065362092
0.00057647896
0.00050713595
0.00043917929
0.00040027656
0.00033850993
0.00056313998
-0.00049885038
0.007456677
0.0074975592
0.0075802864
0.0076826513
0.0078059918
0.0079483609
0.0081074783
0.0082820718
0.0084715799
0.008675928
0.0088955086
0.0091312607
0.0093847497
0.0096584726
0.0099559083
0.01028282
0.010646134
0.011061138
0.011539269
0.01213721
0.012846773
0.014006126
0.015241466
0.021163767
0.01755736
0.011405012
0.010052365
0.0095376086
0.0090284134
0.0086087126
0.0082902388
0.008045393
0.0078259901
0.0076245879
0.0074447407
0.0072897028
0.0071524934
0.0070194865
0.006896217
0.006786404
0.0066809412
0.0065818782
0.0064892276
0.0064007695
0.0063170572
0.0062367867
0.0061597888
0.0060864459
0.0060149086
0.0059461197
0.0058801106
0.0058152852
0.0057525847
0.0056920172
0.0056324658
0.0055740709
0.0055172545
0.0054617764
0.0054068181
0.0053528237
0.0053000398
0.0052479786
0.0051962614
0.005145202
0.0050950441
0.0050453302
0.0049958001
0.0049465389
0.0048979145
0.0048496726
0.0048014175
0.0047530862
0.0047051503
0.0046575854
0.004609748
0.0045617864
0.0045136917
0.0044657753
0.0044177813
0.0043693787
0.0043205283
0.0042715492
0.0042225036
0.0041728577
0.0041226606
0.0040717986
0.004020636
0.0039690461
0.00391652
0.0038631253
0.0038089469
0.0037541427
0.0036983445
0.0036413424
0.0035830514
0.0035237908
0.0034634005
0.0034013368
0.0033375575
0.0032723081
0.003205502
0.003136545
0.0030653079
0.0029919429
0.0029163504
0.002837927
0.0027563723
0.0026718995
0.0025842303
0.0024924999
0.0023966837
0.0022966425
0.0021921256
0.0020840271
0.0019759183
0.001869919
0.0017656461
0.0016631192
0.0015624986
0.0014635345
0.0013660012
0.0012700036
0.0011758797
0.0010835653
0.00099287117
0.00090411651
0.00081763005
0.00073386383
0.00065362548
0.00057648339
0.00050714029
0.00043918352
0.00040028082
0.00033851404
0.00056314497
-0.0004988473
0.007456677
0.0074975593
0.0075802866
0.0076826515
0.007805992
0.0079483611
0.0081074786
0.0082820722
0.0084715804
0.0086759286
0.0088955092
0.0091312614
0.0093847504
0.0096584734
0.0099559093
0.010282821
0.010646135
0.011061139
0.01153927
0.01213721
0.012846774
0.014006111
0.015241487
0.021156728
0.017556094
0.011421226
0.010058774
0.0095407558
0.0090303216
0.0086100941
0.0082913377
0.0080463032
0.0078267598
0.0076252503
0.0074453194
0.0072902134
0.0071529471
0.0070198932
0.0068965847
0.0067867382
0.0066812466
0.0065821587
0.0064894864
0.0064010091
0.0063172798
0.0062369942
0.0061599828
0.0060866276
0.0060150792
0.0059462803
0.005880262
0.0058154282
0.0057527199
0.0056921452
0.0056325872
0.0055741862
0.0055173641
0.0054618808
0.0054069175
0.0053529185
0.0053001303
0.0052480651
0.005196344
0.0051452811
0.0050951197
0.0050454026
0.0049958695
0.0049466055
0.0048979783
0.0048497338
0.0048014763
0.0047531426
0.0047052045
0.0046576376
0.0046097981
0.0045618345
0.004513738
0.0044658199
0.0044178241
0.0043694199
0.0043205679
0.0042715873
0.0042225403
0.004172893
0.0041226946
0.0040718313
0.0040206675
0.0039690763
0.0039165491
0.0038631533
0.0038089739
0.0037541686
0.0036983694
0.0036413663
0.0035830743
0.0035238128
0.0034634217
0.0034013572