/*--------------------------------*- C++ -*----------------------------------*\
  =========                 |
  \\      /  F ield         | OpenFOAM: The Open Source CFD Toolbox
   \\    /   O peration     | Website:  https://openfoam.org
    \\  /    A nd           | Version:  12
     \\/     M anipulation  |
\*---------------------------------------------------------------------------*/
FoamFile
{
    format      ascii;
    class       surfaceScalarField;
    location    "1900";
    object      phi;
}
// * * * * * * * * * * * * * * * * * * * * * * * * * * * * * * * * * * * * * //

dimensions      [0 3 -1 0 0 0 0];

internalField   nonuniform List<scalar> 
25880
(
2.004618e-06
3.6129996e-11
2.0045105e-06
1.0750666e-10
2.004348e-06
1.6254968e-10
2.0041512e-06
1.9679784e-10
2.0039251e-06
2.2603541e-10
2.0036725e-06
2.5265154e-10
2.0033946e-06
2.7792429e-10
2.0030915e-06
3.0309243e-10
2.0027624e-06
3.2907399e-10
2.0024057e-06
3.5664788e-10
2.0020191e-06
3.8662124e-10
2.001599e-06
4.2007117e-10
2.0011408e-06
4.5822774e-10
2.0006374e-06
5.0343348e-10
2.0000799e-06
5.5750093e-10
1.999452e-06
6.2789129e-10
1.9987385e-06
7.1351633e-10
1.9978881e-06
8.5033814e-10
1.9968931e-06
9.9499011e-10
1.9955165e-06
1.3766774e-09
1.9938921e-06
1.6243723e-09
1.9898482e-06
4.0439382e-09
1.9866737e-06
3.1744483e-09
1.0325126e-06
9.5416108e-07
6.88067e-08
9.6370593e-07
5.7266621e-08
1.1540079e-08
5.3373013e-08
3.8936088e-09
5.0722666e-08
2.6503468e-09
4.8732309e-08
1.9903565e-09
4.7090906e-08
1.6414029e-09
4.5686818e-08
1.4040888e-09
4.4473981e-08
1.2128364e-09
4.3416361e-08
1.0576199e-09
4.2482346e-08
9.3401512e-10
4.1648085e-08
8.3426116e-10
4.0896918e-08
7.5116732e-10
4.0216003e-08
6.80915e-10
3.9593644e-08
6.2235915e-10
3.9020488e-08
5.7315525e-10
3.8489937e-08
5.3055104e-10
3.7996317e-08
4.9362054e-10
3.753477e-08
4.6154671e-10
3.7101444e-08
4.3332602e-10
3.6693066e-08
4.0837793e-10
3.6306908e-08
3.8615845e-10
3.5940607e-08
3.6630061e-10
3.5592139e-08
3.4846773e-10
3.5259837e-08
3.3230249e-10
3.4942177e-08
3.1765959e-10
3.4637895e-08
3.0428236e-10
3.434594e-08
2.919544e-10
3.4065238e-08
2.8070244e-10
3.379484e-08
2.7039801e-10
3.3533975e-08
2.6086515e-10
3.3281871e-08
2.5210426e-10
3.3037798e-08
2.4407253e-10
3.2801183e-08
2.366147e-10
3.257153e-08
2.29653e-10
3.2348312e-08
2.2321829e-10
3.2131055e-08
2.1725717e-10
3.1919397e-08
2.1165797e-10
3.171299e-08
2.0640652e-10
3.1511452e-08
2.0153875e-10
3.1314439e-08
1.9701277e-10
3.1121691e-08
1.9274756e-10
3.0932959e-08
1.8873254e-10
3.0747958e-08
1.8500029e-10
3.0566421e-08
1.8153765e-10
3.0388144e-08
1.78277e-10
3.0212957e-08
1.7518677e-10
3.0040653e-08
1.7230423e-10
2.9871001e-08
1.6965156e-10
2.9703834e-08
1.6716745e-10
2.9539028e-08
1.6480616e-10
2.9376428e-08
1.6259978e-10
2.9215857e-08
1.6057095e-10
2.9057153e-08
1.5870425e-10
2.8900198e-08
1.5695514e-10
2.8744892e-08
1.553056e-10
2.8591103e-08
1.5378939e-10
2.8438672e-08
1.524301e-10
2.8287481e-08
1.511912e-10
2.8137446e-08
1.5003545e-10
2.7988466e-08
1.4897946e-10
2.7840418e-08
1.4804814e-10
2.769317e-08
1.4724768e-10
2.754663e-08
1.4654073e-10
2.7400728e-08
1.4590181e-10
2.7255366e-08
1.4536211e-10
2.711042e-08
1.4494542e-10
2.6965784e-08
1.4463666e-10
2.6821378e-08
1.4440599e-10
2.6677124e-08
1.4425373e-10
2.6532913e-08
1.4421113e-10
2.6388618e-08
1.4429515e-10
2.6244143e-08
1.44475e-10
2.6099415e-08
1.447273e-10
2.5954331e-08
1.4508468e-10
2.5808756e-08
1.4557443e-10
2.5662585e-08
1.4617129e-10
2.5515734e-08
1.4685068e-10
2.5368093e-08
1.4764094e-10
2.5219519e-08
1.4857483e-10
2.506988e-08
1.4963851e-10
2.491907e-08
1.5080987e-10
2.4766955e-08
1.5211483e-10
2.4613365e-08
1.5358994e-10
2.4458147e-08
1.5521818e-10
2.4301161e-08
1.5698642e-10
2.4142226e-08
1.5893516e-10
2.3981129e-08
1.6109625e-10
2.3817691e-08
1.6343821e-10
2.3651654e-08
1.6603749e-10
2.3489829e-08
1.6182509e-10
2.3335907e-08
1.5392162e-10
2.3189275e-08
1.4663167e-10
2.304935e-08
1.399254e-10
2.2915597e-08
1.3375306e-10
2.2787555e-08
1.2804204e-10
2.2664812e-08
1.2274282e-10
2.2546974e-08
1.1783772e-10
2.2433673e-08
1.1330081e-10
2.2324594e-08
1.0907944e-10
2.2219457e-08
1.0513662e-10
2.2117991e-08
1.0146654e-10
2.2019931e-08
9.8059879e-11
2.1925022e-08
9.4909001e-11
2.1833046e-08
9.1975709e-11
2.174373e-08
8.9316317e-11
2.1656902e-08
8.6828026e-11
2.1571948e-08
8.4953592e-11
2.1489042e-08
8.2906575e-11
2.1405943e-08
8.3099107e-11
2.1326021e-08
7.9921945e-11
2.1228205e-08
9.7816205e-11
6.1059803e-11
2.0344914e-06
7.2804717e-11
2.0343822e-06
2.1665362e-10
2.0342172e-06
3.2760941e-10
2.0340173e-06
3.9666192e-10
2.0337877e-06
4.5560889e-10
2.0335311e-06
5.092657e-10
2.0332488e-06
5.6020959e-10
2.032941e-06
6.1093796e-10
2.0326068e-06
6.6330151e-10
2.0322445e-06
7.1887038e-10
2.0318519e-06
7.7927147e-10
2.0314253e-06
8.4667559e-10
2.03096e-06
9.2356165e-10
2.0304487e-06
1.0146501e-09
2.0298827e-06
1.1235935e-09
2.0292451e-06
1.2654256e-09
2.0285207e-06
1.4379556e-09
2.0276574e-06
1.7136383e-09
2.0266473e-06
2.0051127e-09
2.0252498e-06
2.7741328e-09
2.0236008e-06
3.2733412e-09
2.0194968e-06
8.1479305e-09
2.0162697e-06
6.4015468e-09
1.1236345e-06
1.8467963e-06
2.0509057e-07
1.8822498e-06
1.7241866e-07
4.4211988e-08
1.6086387e-07
1.5448401e-08
1.5302466e-07
1.0489556e-08
1.4713279e-07
7.8822262e-09
1.4226905e-07
6.505143e-09
1.3810383e-07
5.569304e-09
1.3450191e-07
4.8147603e-09
1.3135785e-07
4.2016787e-09
1.2857885e-07
3.7130145e-09
1.2609473e-07
3.3183792e-09
1.2385643e-07
2.9894722e-09
1.2182611e-07
2.7112338e-09
1.1996933e-07
2.4791348e-09
1.1825846e-07
2.2840293e-09
1.1667395e-07
2.115065e-09
1.1519906e-07
1.968509e-09
1.1381942e-07
1.8411879e-09
1.1252361e-07
1.7291357e-09
1.1130194e-07
1.6300404e-09
1.1014634e-07
1.5417644e-09
1.0904979e-07
1.4628483e-09
1.080063e-07
1.391962e-09
1.070109e-07
1.3276964e-09
1.060591e-07
1.269463e-09
1.0514713e-07
1.2162552e-09
1.0427186e-07
1.1672152e-09
1.0343013e-07
1.1224406e-09
1.0261909e-07
1.0814336e-09
1.0183646e-07
1.0434946e-09
1.0107995e-07
1.0086199e-09
1.0034737e-07
9.7664426e-10
9.9637036e-08
9.4695268e-10
9.8947455e-08
9.1923437e-10
9.8277064e-08
8.9360914e-10
9.7624452e-08
8.6986934e-10
9.6988538e-08
8.4757118e-10
9.6368289e-08
8.2665575e-10
9.5762562e-08
8.0726628e-10
9.5170336e-08
7.8923875e-10
9.4590832e-08
7.7225108e-10
9.4023306e-08
7.5625878e-10
9.3466914e-08
7.4139236e-10
9.2920851e-08
7.2760061e-10
9.2384512e-08
7.1461534e-10
9.185739e-08
7.0230901e-10
9.1338864e-08
6.9082994e-10
9.0828249e-08
6.8026743e-10
9.0325037e-08
6.7037879e-10
8.9828863e-08
6.6098081e-10
8.9339263e-08
6.5219929e-10
8.8855707e-08
6.4412717e-10
8.8377709e-08
6.3670254e-10
8.7904915e-08
6.2974863e-10
8.7437028e-08
6.2319222e-10
8.697365e-08
6.1716801e-10
8.6514309e-08
6.1177106e-10
8.6058644e-08
6.0685638e-10
8.5606404e-08
6.0227498e-10
8.5157292e-08
5.9809169e-10
8.4710932e-08
5.9440763e-10
8.4266933e-08
5.9124732e-10
8.3825011e-08
5.8846247e-10
8.3384962e-08
5.8595046e-10
8.2946489e-08
5.8383524e-10
8.2509221e-08
5.8221333e-10
8.2072834e-08
5.8102447e-10
8.163709e-08
5.8014969e-10
8.1201754e-08
5.7958934e-10
8.0766496e-08
5.7946905e-10
8.0330934e-08
5.7985706e-10
7.9894779e-08
5.8063081e-10
7.945781e-08
5.8169623e-10
7.9019711e-08
5.8318359e-10
7.8580082e-08
5.8520298e-10
7.81386e-08
5.876539e-10
7.7695013e-08
5.9043759e-10
7.7248986e-08
5.9366722e-10
7.6800086e-08
5.9747488e-10
7.6347919e-08
6.0180571e-10
7.5892158e-08
6.0657105e-10
7.5432398e-08
6.1187461e-10
7.4968125e-08
6.1786355e-10
7.4498872e-08
6.2447047e-10
7.4024216e-08
6.3164263e-10
7.3543609e-08
6.3954239e-10
7.3056406e-08
6.4829882e-10
7.2562059e-08
6.5778565e-10
7.2059785e-08
6.6831092e-10
7.1570194e-08
6.5141694e-10
7.1104457e-08
6.1965782e-10
7.0660728e-08
5.9036102e-10
7.0237247e-08
5.634068e-10
6.9832404e-08
5.3859602e-10
6.9444808e-08
5.1563747e-10
6.9073219e-08
4.9433234e-10
6.8716447e-08
4.7460988e-10
6.8373381e-08
4.5636636e-10
6.804307e-08
4.3939059e-10
6.7724673e-08
4.2353377e-10
6.7417367e-08
4.0877265e-10
6.7120356e-08
3.9507024e-10
6.6832869e-08
3.8239602e-10
6.6554249e-08
3.7059641e-10
6.6283666e-08
3.5989882e-10
6.6020606e-08
3.4988757e-10
6.5763209e-08
3.4235097e-10
6.5512007e-08
3.3410838e-10
6.5260196e-08
3.3491082e-10
6.5018097e-08
3.220203e-10
6.4721226e-08
3.9468752e-10
2.4544359e-10
2.0946833e-06
1.1057257e-10
2.0945709e-06
3.2907873e-10
2.0944008e-06
4.97666e-10
2.0941949e-06
6.0261182e-10
2.0939583e-06
6.9219435e-10
2.0936938e-06
7.7372836e-10
2.0934029e-06
8.5113127e-10
2.0930857e-06
9.2819823e-10
2.0927412e-06
1.0077415e-09
2.0923679e-06
1.0921468e-09
2.0919633e-06
1.1838858e-09
2.0915237e-06
1.286256e-09
2.0910443e-06
1.4030229e-09
2.0905176e-06
1.5413558e-09
2.0899344e-06
1.7068022e-09
2.0892776e-06
1.9221936e-09
2.0885314e-06
2.1842029e-09
2.0876421e-06
2.6028626e-09
2.0866017e-06
3.0455048e-09
2.0851625e-06
4.2133364e-09
2.0834644e-06
4.971468e-09
2.0792388e-06
1.2373569e-08
2.0759151e-06
9.7252125e-09
1.2275258e-06
2.6951857e-06
3.3720896e-07
2.7725666e-06
2.8406297e-07
9.7357985e-08
2.6551892e-07
3.3992446e-08
2.5313591e-07
2.2872573e-08
2.4383796e-07
1.718017e-08
2.3615616e-07
1.4186949e-08
2.2956724e-07
1.215822e-08
2.2385893e-07
1.0523065e-08
2.1886733e-07
9.1932811e-09
2.1444788e-07
8.1324641e-09
2.1049117e-07
7.2750909e-09
2.0692081e-07
6.5598368e-09
2.0367788e-07
5.9541639e-09
2.0070847e-07
5.4485405e-09
1.9796921e-07
5.0232908e-09
1.9542949e-07
4.6547853e-09
1.9306307e-07
4.3349271e-09
1.9084733e-07
4.0569281e-09
1.8876431e-07
3.8121513e-09
1.8679878e-07
3.595573e-09
1.8493798e-07
3.4025639e-09
1.8317088e-07
3.2299517e-09
1.8148799e-07
3.0748472e-09
1.7988151e-07
2.9341808e-09
1.783443e-07
2.8066739e-09
1.7687042e-07
2.6901369e-09
1.7545494e-07
2.58269e-09
1.7409282e-07
2.4845599e-09
1.7277959e-07
2.3946709e-09
1.715116e-07
2.3114842e-09
1.7028522e-07
2.2350004e-09
1.6909699e-07
2.1648704e-09
1.679442e-07
2.0997397e-09
1.6682451e-07
2.038925e-09
1.6573542e-07
1.9826976e-09
1.6467469e-07
1.9306078e-09
1.6364058e-07
1.8816744e-09
1.6263147e-07
1.8357688e-09
1.6164552e-07
1.7932147e-09
1.6068111e-07
1.753654e-09
1.5973698e-07
1.7163735e-09
1.5881197e-07
1.6812753e-09
1.579047e-07
1.6486541e-09
1.5701391e-07
1.6183997e-09
1.561386e-07
1.5899182e-09
1.5527799e-07
1.5629258e-09
1.5443106e-07
1.5377551e-09
1.5359672e-07
1.514608e-09
1.5277415e-07
1.4929465e-09
1.5196277e-07
1.4723628e-09
1.5116183e-07
1.4531371e-09
1.5037048e-07
1.4354808e-09
1.4958793e-07
1.4192563e-09
1.488136e-07
1.4040711e-09
1.4804703e-07
1.3897617e-09
1.4728757e-07
1.37663e-09
1.4653445e-07
1.3648899e-09
1.4578709e-07
1.354219e-09
1.4504508e-07
1.3442854e-09
1.4430794e-07
1.3352334e-09
1.4357505e-07
1.3272913e-09
1.4284579e-07
1.3205142e-09
1.4211968e-07
1.3145722e-09
1.4139639e-07
1.3092359e-09
1.4067544e-07
1.3047826e-09
1.3995623e-07
1.3014301e-09
1.3923821e-07
1.299044e-09
1.38521e-07
1.297359e-09
1.3780421e-07
1.2963759e-09
1.370873e-07
1.2963769e-09
1.3636965e-07
1.2975157e-09
1.3565076e-07
1.2995189e-09
1.3493028e-07
1.3021761e-09
1.3420768e-07
1.3057797e-09
1.3348231e-07
1.3105775e-09
1.3275362e-07
1.3163453e-09
1.3202119e-07
1.3228623e-09
1.3128448e-07
1.3303827e-09
1.3054275e-07
1.3392039e-09
1.2979535e-07
1.349204e-09
1.2904173e-07
1.3601851e-09
1.2828123e-07
1.3723805e-09
1.2751297e-07
1.3861218e-09
1.2673618e-07
1.4012594e-09
1.2595015e-07
1.4176759e-09
1.2515395e-07
1.435737e-09
1.2434652e-07
1.4557348e-09
1.2352692e-07
1.4773871e-09
1.2269384e-07
1.501386e-09
1.2188148e-07
1.4637804e-09
1.211084e-07
1.3927359e-09
1.2037158e-07
1.3271809e-09
1.1966813e-07
1.2668513e-09
1.1899543e-07
1.2113055e-09
1.1835117e-07
1.159894e-09
1.1773333e-07
1.1121736e-09
1.1713995e-07
1.067989e-09
1.165692e-07
1.0271104e-09
1.1601953e-07
9.8906525e-10
1.1548954e-07
9.5352114e-10
1.1497789e-07
9.2042786e-10
1.1448325e-07
8.8970426e-10
1.1400437e-07
8.6128356e-10
1.1354014e-07
8.348211e-10
1.1308921e-07
8.1083193e-10
1.1265072e-07
7.8837745e-10
1.1222157e-07
7.7149913e-10
1.1180267e-07
7.5300605e-10
1.1138264e-07
7.5493872e-10
1.109788e-07
7.2586263e-10
1.1048314e-07
8.9034752e-10
5.5269335e-10
2.1860908e-06
1.499987e-10
2.1859734e-06
4.4647181e-10
2.1857958e-06
6.752876e-10
2.1855806e-06
8.1776888e-10
2.1853334e-06
9.3938436e-10
2.1850571e-06
1.0500589e-09
2.1847531e-06
1.1551118e-09
2.1844216e-06
1.2596951e-09
2.1840617e-06
1.3676261e-09
2.1836717e-06
1.4821429e-09
2.183249e-06
1.6065998e-09
2.1827898e-06
1.7454714e-09
2.182289e-06
1.9038662e-09
2.1817388e-06
2.0915105e-09
2.1811297e-06
2.3159296e-09
2.1804438e-06
2.6080951e-09
2.1796645e-06
2.9634927e-09
2.178736e-06
3.5313777e-09
2.1776497e-06
4.1317872e-09
2.1761472e-06
5.7158543e-09
2.1743745e-06
6.7441767e-09
2.1699642e-06
1.6783834e-08
2.1664939e-06
1.3195493e-08
1.3444386e-06
3.517241e-06
4.6338119e-07
3.6536241e-06
3.8889439e-07
1.7184479e-07
3.639248e-07
5.8962036e-08
3.4768104e-07
3.9116332e-08
3.3554726e-07
2.9313947e-08
3.2553837e-07
2.4195843e-08
3.1695325e-07
2.0743341e-08
3.0950994e-07
1.796638e-08
3.0299477e-07
1.5708443e-08
2.972203e-07
1.3906941e-08
2.9204489e-07
1.2450502e-08
2.8737002e-07
1.1234701e-08
2.8311981e-07
1.0204373e-08
2.7922446e-07
9.3438951e-09
2.7562773e-07
8.6200131e-09
2.7229015e-07
7.9923702e-09
2.6917775e-07
7.4473228e-09
2.662612e-07
6.9734853e-09
2.6351723e-07
6.5561161e-09
2.609261e-07
6.1867005e-09
2.5847128e-07
5.8573901e-09
2.5613843e-07
5.5628008e-09
2.5391525e-07
5.2980237e-09
2.5179161e-07
5.0578235e-09
2.4975823e-07
4.8400525e-09
2.4780739e-07
4.6409756e-09
2.4593272e-07
4.4573643e-09
2.4412763e-07
4.2896479e-09
2.423863e-07
4.1359982e-09
2.4070402e-07
3.9937644e-09
2.3907605e-07
3.8629767e-09
2.3749786e-07
3.7430616e-09
2.3596592e-07
3.6316798e-09
2.3447718e-07
3.5276582e-09
2.3302839e-07
3.4314882e-09
2.3161659e-07
3.3424046e-09
2.3023956e-07
3.2587061e-09
2.2889515e-07
3.1801786e-09
2.2758097e-07
3.1073993e-09
2.2629487e-07
3.0397533e-09
2.2503524e-07
2.9760027e-09
2.2380053e-07
2.915983e-09
2.2258897e-07
2.8602184e-09
2.2139885e-07
2.8085227e-09
2.202289e-07
2.7598637e-09
2.1907808e-07
2.7137491e-09
2.1794507e-07
2.6707667e-09
2.168284e-07
2.6312744e-09
2.1572701e-07
2.5943348e-09
2.1464014e-07
2.5592377e-09
2.135668e-07
2.5264769e-09
2.1250585e-07
2.4964275e-09
2.1145626e-07
2.46885e-09
2.1041727e-07
2.4430606e-09
2.0938825e-07
2.4187752e-09
2.0836836e-07
2.3965255e-09
2.0735656e-07
2.3766888e-09
2.0635208e-07
2.3587015e-09
2.0535438e-07
2.3419843e-09
2.0436282e-07
2.3267923e-09
2.0337658e-07
2.313529e-09
2.023948e-07
2.3022913e-09
2.0141687e-07
2.2925026e-09
2.0044235e-07
2.2837624e-09
1.9947057e-07
2.2765593e-09
1.9850072e-07
2.2712771e-09
1.9753209e-07
2.2676803e-09
1.9656414e-07
2.2653054e-09
1.9559636e-07
2.2641551e-09
1.9462801e-07
2.2647272e-09
1.9365823e-07
2.2672919e-09
1.9268638e-07
2.2713706e-09
1.9171196e-07
2.2765956e-09
1.9073426e-07
2.2834827e-09
1.8975237e-07
2.2924689e-09
1.8876555e-07
2.3031609e-09
1.8777324e-07
2.3151729e-09
1.8677467e-07
2.3289537e-09
1.8576885e-07
2.3450276e-09
1.8475487e-07
2.3631816e-09
1.8373198e-07
2.38307e-09
1.8269926e-07
2.4051061e-09
1.8165551e-07
2.4298751e-09
1.8059965e-07
2.4571156e-09
1.795307e-07
2.4866246e-09
1.7844739e-07
2.5190489e-09
1.7734822e-07
2.554906e-09
1.762319e-07
2.5937021e-09
1.7509664e-07
2.6366522e-09
1.7398901e-07
2.5714074e-09
1.729344e-07
2.4473442e-09
1.7192876e-07
2.3328262e-09
1.7096821e-07
2.2274008e-09
1.7004921e-07
2.1303061e-09
1.6916869e-07
2.0404102e-09
1.6832392e-07
1.9569434e-09
1.6751227e-07
1.8796419e-09
1.6673127e-07
1.8081086e-09
1.6597882e-07
1.7415175e-09
1.6525305e-07
1.6792888e-09
1.6455214e-07
1.6213402e-09
1.6387431e-07
1.5675333e-09
1.6321784e-07
1.517755e-09
1.6258126e-07
1.4714003e-09
1.619627e-07
1.429385e-09
1.6136103e-07
1.3900488e-09
1.6077198e-07
1.3605521e-09
1.6019683e-07
1.3281518e-09
1.5961988e-07
1.3318874e-09
1.5906504e-07
1.2807114e-09
1.5838372e-07
1.5716648e-09
9.7470513e-10
2.310076e-06
1.916736e-10
2.3099519e-06
5.7060088e-10
2.309764e-06
8.63165e-10
2.3095364e-06
1.0454069e-09
2.3092748e-06
1.2009491e-09
2.3089824e-06
1.3424765e-09
2.3086607e-06
1.4767939e-09
2.3083099e-06
1.6104901e-09
2.3079291e-06
1.7484467e-09
2.3075164e-06
1.894804e-09
2.3070692e-06
2.0538505e-09
2.3065833e-06
2.2313053e-09
2.3060535e-06
2.4336974e-09
2.3054716e-06
2.6734562e-09
2.3048273e-06
2.9601979e-09
2.3041019e-06
3.3334974e-09
2.3032778e-06
3.7875848e-09
2.302296e-06
4.5131696e-09
2.3011475e-06
5.2802986e-09
2.2995591e-06
7.3042305e-09
2.2976853e-06
8.6180379e-09
2.2930246e-06
2.144446e-08
2.2893554e-06
1.6864753e-08
1.4785295e-06
4.3280668e-06
5.8984629e-07
4.5423073e-06
4.9198487e-07
2.6970621e-07
4.6038023e-07
9.0566679e-08
4.4038776e-07
5.9108802e-08
4.2556963e-07
4.4132075e-08
4.1338783e-07
3.6377643e-08
4.0295349e-07
3.1177675e-08
3.9391078e-07
2.7009089e-08
3.85996e-07
2.3623226e-08
3.7897995e-07
2.0922991e-08
3.7269012e-07
1.8740339e-08
3.6700695e-07
1.6917867e-08
3.6183858e-07
1.5372744e-08
3.5710025e-07
1.4082228e-08
3.5272368e-07
1.2996579e-08
3.4866113e-07
1.2054923e-08
3.4487146e-07
1.1236992e-08
3.4131905e-07
1.0525888e-08
3.3797577e-07
9.8993969e-09
3.3481768e-07
9.3447914e-09
3.3182475e-07
8.8503273e-09
3.289796e-07
8.4079444e-09
3.2626734e-07
8.0102834e-09
3.236757e-07
7.6494701e-09
3.2119341e-07
7.3223355e-09
3.1881113e-07
7.0232583e-09
3.1652115e-07
6.7473479e-09
3.1431548e-07
6.4953139e-09
3.1218707e-07
6.2644103e-09
3.1013022e-07
6.0506124e-09
3.0813918e-07
5.8540149e-09
3.0620846e-07
5.6737871e-09
3.0433377e-07
5.5063704e-09
3.0251143e-07
5.3499929e-09
3.0073748e-07
5.2054382e-09
2.9900833e-07
5.071558e-09
2.9732128e-07
4.9457545e-09
2.9567374e-07
4.8277158e-09
2.940628e-07
4.7183468e-09
2.9248583e-07
4.6167157e-09
2.909409e-07
4.5209311e-09
2.8942613e-07
4.4307524e-09
2.8793935e-07
4.3469986e-09
2.8647849e-07
4.269392e-09
2.85042e-07
4.1963529e-09
2.8362861e-07
4.1271323e-09
2.8223674e-07
4.0626434e-09
2.8086457e-07
4.003443e-09
2.7951081e-07
3.9480922e-09
2.7817454e-07
3.8955052e-09
2.7685457e-07
3.8464489e-09
2.7554949e-07
3.8015061e-09
2.7425803e-07
3.7603091e-09
2.7297928e-07
3.7218103e-09
2.7171248e-07
3.685577e-09
2.7045657e-07
3.6524333e-09
2.692103e-07
3.622961e-09
2.6797271e-07
3.5962935e-09
2.6674315e-07
3.5715433e-09
2.6552083e-07
3.5491081e-09
2.6430475e-07
3.5296125e-09
2.6309384e-07
3.5132056e-09
2.6188734e-07
3.499001e-09
2.6068472e-07
3.4863859e-09
2.5948516e-07
3.4761171e-09
2.5828765e-07
3.4687866e-09
2.570913e-07
3.4640312e-09
2.5589546e-07
3.4611393e-09
2.546995e-07
3.4601187e-09
2.5350249e-07
3.4617391e-09
2.5230336e-07
3.4664163e-09
2.5110132e-07
3.4734134e-09
2.4989575e-07
3.4821676e-09
2.4868575e-07
3.4934784e-09
2.474702e-07
3.5080196e-09
2.4624818e-07
3.5251845e-09
2.4501897e-07
3.5443826e-09
2.4378161e-07
3.5663094e-09
2.4253487e-07
3.5917737e-09
2.412776e-07
3.6204474e-09
2.4000887e-07
3.6518016e-09
2.387275e-07
3.6864778e-09
2.3743199e-07
3.7253805e-09
2.36121e-07
3.7681075e-09
2.3479327e-07
3.8143505e-09
2.3344721e-07
3.8651126e-09
2.3208092e-07
3.9211954e-09
2.3069278e-07
3.98184e-09
2.2928052e-07
4.0489113e-09
2.279021e-07
3.949831e-09
2.2658914e-07
3.7603021e-09
2.2533667e-07
3.5853001e-09
2.2413992e-07
3.4241457e-09
2.2299454e-07
3.2756879e-09
2.2189675e-07
3.1381993e-09
2.2084319e-07
3.0105095e-09
2.198306e-07
2.8922269e-09
2.1885596e-07
2.7827507e-09
2.1791666e-07
2.6808158e-09
2.1701041e-07
2.5855378e-09
2.1613495e-07
2.4967998e-09
2.1528809e-07
2.414395e-09
2.1446769e-07
2.3381557e-09
2.1367194e-07
2.2671517e-09
2.1289852e-07
2.2028094e-09
2.1214601e-07
2.1425563e-09
2.1140906e-07
2.0975014e-09
2.1068934e-07
2.0478664e-09
2.0996705e-07
2.0541846e-09
2.0927225e-07
1.9755057e-09
2.0841897e-07
2.4249474e-09
1.5030168e-09
2.4684866e-06
2.3622215e-10
2.4683539e-06
7.0333987e-10
2.4681529e-06
1.0641549e-09
2.4679093e-06
1.2890061e-09
2.4676293e-06
1.4808992e-09
2.4673163e-06
1.6554709e-09
2.466972e-06
1.8211183e-09
2.4665965e-06
1.9859695e-09
2.4661889e-06
2.1560459e-09
2.4657473e-06
2.336454e-09
2.4652687e-06
2.5324818e-09
2.4647488e-06
2.7511802e-09
2.4641819e-06
3.0005973e-09
2.4635593e-06
3.2960523e-09
2.4628701e-06
3.6493963e-09
2.4620942e-06
4.1094005e-09
2.4612128e-06
4.6689516e-09
2.4601629e-06
5.5630631e-09
2.4589349e-06
6.5083508e-09
2.4572368e-06
9.0023342e-09
2.4552336e-06
1.0621177e-08
2.4502532e-06
2.6424904e-08
2.4463294e-06
2.0788509e-08
1.6350516e-06
5.1393447e-06
7.2467334e-07
5.4526856e-06
6.0044266e-07
3.939369e-07
5.6139388e-07
1.2961545e-07
5.3733422e-07
8.3168468e-08
5.1965672e-07
6.1809571e-08
5.0518335e-07
5.085101e-08
4.9281076e-07
4.3550272e-08
4.8209846e-07
3.7721381e-08
4.727272e-07
3.2994486e-08
4.6442247e-07
2.9227726e-08
4.5697841e-07
2.6184393e-08
4.5025293e-07
2.3643347e-08
4.441371e-07
2.1488574e-08
4.3853028e-07
1.9689055e-08
4.333514e-07
1.8175457e-08
4.2854398e-07
1.686234e-08
4.2405931e-07
1.5721662e-08
4.1985516e-07
1.4730042e-08
4.1589822e-07
1.3856332e-08
4.1216018e-07
1.3082833e-08
4.0861732e-07
1.2393185e-08
4.052491e-07
1.1776166e-08
4.0203788e-07
1.1221507e-08
3.9896915e-07
1.0718197e-08
3.960296e-07
1.0261891e-08
3.9320813e-07
9.8447221e-09
3.9049568e-07
9.4598033e-09
3.8788278e-07
9.1082062e-09
3.853611e-07
8.7860918e-09
3.8292393e-07
8.4877835e-09
3.8056447e-07
8.2134797e-09
3.7827619e-07
7.9620615e-09
3.7605406e-07
7.728503e-09
3.7389373e-07
7.5103183e-09
3.7179051e-07
7.3086626e-09
3.6974013e-07
7.121933e-09
3.6773944e-07
6.9464491e-09
3.6578537e-07
6.7817885e-09
3.6387445e-07
6.6292628e-09
3.6200361e-07
6.4875603e-09
3.6017054e-07
6.3540002e-09
3.5837303e-07
6.2282555e-09
3.5660852e-07
6.1115103e-09
3.5487454e-07
6.0033794e-09
3.5316927e-07
5.90162e-09
3.5149123e-07
5.8051757e-09
3.4983851e-07
5.7153605e-09
3.4820898e-07
5.6329745e-09
3.466011e-07
5.5559701e-09
3.450138e-07
5.4828081e-09
3.4344565e-07
5.4145926e-09
3.41895e-07
5.3521602e-09
3.4036032e-07
5.294987e-09
3.3884055e-07
5.2415852e-09
3.3733478e-07
5.1913448e-09
3.3584176e-07
5.1454474e-09
3.3436e-07
5.1047235e-09
3.3288836e-07
5.0679369e-09
3.3142607e-07
5.0338285e-09
3.2997221e-07
5.0029731e-09
3.2852556e-07
4.9762643e-09
3.2708485e-07
4.9539132e-09
3.2564919e-07
4.9346576e-09
3.2421795e-07
4.9176293e-09
3.2279015e-07
4.9039137e-09
3.2136458e-07
4.8943548e-09
3.1994018e-07
4.8884318e-09
3.1851619e-07
4.8851341e-09
3.1709183e-07
4.8844777e-09
3.15666e-07
4.8875628e-09
3.1423744e-07
4.8949807e-09
3.1280517e-07
4.9056794e-09
3.1136848e-07
4.9188623e-09
3.0992628e-07
4.9356759e-09
3.0847722e-07
4.9570795e-09
3.070202e-07
4.9822057e-09
3.0555437e-07
5.010218e-09
3.0407856e-07
5.0421132e-09
3.0259129e-07
5.079043e-09
3.010912e-07
5.1205382e-09
2.9957715e-07
5.1658495e-09
2.9804773e-07
5.2158972e-09
2.9650114e-07
5.271971e-09
2.9493575e-07
5.3334965e-09
2.9335007e-07
5.4000402e-09
2.9174214e-07
5.4730385e-09
2.901097e-07
5.5536351e-09
2.8845079e-07
5.6407503e-09
2.8676268e-07
5.7370241e-09
2.8511463e-07
5.5978736e-09
2.835445e-07
5.3304314e-09
2.8204638e-07
5.0834282e-09
2.806146e-07
4.8559182e-09
2.79244e-07
4.6462927e-09
2.7793008e-07
4.4521143e-09
2.7666886e-07
4.2717373e-09
2.7545646e-07
4.1046239e-09
2.7428928e-07
3.9499325e-09
2.7316422e-07
3.8058716e-09
2.7207856e-07
3.6711956e-09
2.7102961e-07
3.5457509e-09
2.7001476e-07
3.429251e-09
2.6903145e-07
3.3214655e-09
2.6807753e-07
3.2210729e-09
2.6715021e-07
3.1301233e-09
2.6624783e-07
3.0449353e-09
2.6536392e-07
2.9814167e-09
2.6450056e-07
2.9112281e-09
2.6363375e-07
2.9209859e-09
2.6279981e-07
2.8094487e-09
2.6177574e-07
3.4490195e-09
2.1369052e-09
2.6636833e-06
2.8431317e-10
2.6635399e-06
8.4669809e-10
2.6633228e-06
1.2813263e-09
2.6630595e-06
1.5523106e-09
2.6627568e-06
1.7835533e-09
2.6624184e-06
1.9938782e-09
2.6620461e-06
2.1934077e-09
2.6616401e-06
2.3919355e-09
2.6611995e-06
2.5967162e-09
2.660722e-06
2.8139016e-09
2.6602046e-06
3.0498602e-09
2.6596427e-06
3.3130819e-09
2.6590301e-06
3.6132555e-09
2.6583573e-06
3.9688207e-09
2.6576127e-06
4.3940412e-09
2.6567745e-06
4.9476144e-09
2.6558224e-06
5.6209765e-09
2.6546885e-06
6.6969565e-09
2.6533624e-06
7.8345004e-09
2.651529e-06
1.0835729e-08
2.6493665e-06
1.2783708e-08
2.643992e-06
3.1799375e-08
2.6397541e-06
2.5026367e-08
1.8190822e-06
5.9600166e-06
8.7495048e-07
6.3968173e-06
7.2033618e-07
5.485512e-07
6.7258229e-07
1.7736935e-07
6.4386109e-07
1.1188967e-07
6.2295127e-07
8.2719388e-08
6.0590542e-07
6.789686e-08
5.9136586e-07
5.8089833e-08
5.7879186e-07
5.029538e-08
5.6779971e-07
4.3986638e-08
5.5806314e-07
3.8964291e-08
5.4933842e-07
3.490912e-08
5.414578e-07
3.1523965e-08
5.342931e-07
2.8653268e-08
5.277258e-07
2.625636e-08
5.2166044e-07
2.4240816e-08
5.1603071e-07
2.249207e-08
5.1077939e-07
2.0972986e-08
5.0585682e-07
1.9652611e-08
5.0122393e-07
1.8489222e-08
4.9684748e-07
1.7459282e-08
4.9269964e-07
1.6541023e-08
4.8875631e-07
1.5719499e-08
4.8499679e-07
1.4981025e-08
4.814041e-07
1.4310891e-08
4.7796258e-07
1.3703404e-08
4.7465925e-07
1.3148054e-08
4.7148348e-07
1.2635578e-08
4.6842418e-07
1.2167499e-08
4.6547159e-07
1.1738689e-08
4.6261786e-07
1.1341508e-08
4.5985504e-07
1.0976301e-08
4.5717547e-07
1.064163e-08
4.5457325e-07
1.0330723e-08
4.5204332e-07
1.0040251e-08
4.4958015e-07
9.7718302e-09
4.4717876e-07
9.5233251e-09
4.4483544e-07
9.2897635e-09
4.4254664e-07
9.0705975e-09
4.4030826e-07
8.8676346e-09
4.3811671e-07
8.6791134e-09
4.359693e-07
8.5014107e-09
4.3386345e-07
8.3341022e-09
4.3179615e-07
8.1788158e-09
4.2976449e-07
8.0350408e-09
4.2776636e-07
7.899743e-09
4.2580004e-07
7.771501e-09
4.2386329e-07
7.6521138e-09
4.2195358e-07
7.5426752e-09
4.2006915e-07
7.4404088e-09
4.1820872e-07
7.343235e-09
4.1637064e-07
7.252667e-09
4.1455296e-07
7.1698466e-09
4.1275388e-07
7.0940623e-09
4.1097217e-07
7.0233007e-09
4.0920677e-07
6.9567424e-09
4.0745622e-07
6.8959997e-09
4.0571874e-07
6.8422003e-09
4.0399301e-07
6.7936641e-09
4.0227815e-07
6.7486898e-09
4.0057306e-07
6.7080677e-09
3.9887631e-07
6.673014e-09
3.9718641e-07
6.6438125e-09
3.9550232e-07
6.6187508e-09
3.9382329e-07
6.596658e-09
3.9214818e-07
6.5790155e-09
3.9047557e-07
6.5669668e-09
3.888042e-07
6.5598011e-09
3.8713319e-07
6.5561508e-09
3.8546162e-07
6.5560441e-09
3.8378821e-07
6.5609771e-09
3.8211144e-07
6.5717482e-09
3.8043019e-07
6.5869275e-09
3.7874361e-07
6.6054414e-09
3.7705043e-07
6.628854e-09
3.7534905e-07
6.658463e-09
3.7363817e-07
6.6930874e-09
3.7191679e-07
6.7315987e-09
3.7018355e-07
6.7753554e-09
3.6843667e-07
6.8259161e-09
3.6667457e-07
6.88264e-09
3.648959e-07
6.9445166e-09
3.63099e-07
7.0128005e-09
3.6128173e-07
7.0892386e-09
3.5944218e-07
7.173048e-09
3.5757857e-07
7.2636473e-09
3.5568862e-07
7.3629906e-09
3.5376963e-07
7.4726261e-09
3.5181929e-07
7.5910909e-09
3.4983438e-07
7.7219334e-09
3.4789635e-07
7.535906e-09
3.4604971e-07
7.1770733e-09
3.4428753e-07
6.8456034e-09
3.4260321e-07
6.5402403e-09
3.4099066e-07
6.2588425e-09
3.3944464e-07
5.9981382e-09
3.3796045e-07
5.7559251e-09
3.3653357e-07
5.5314987e-09
3.3515977e-07
5.3237362e-09
3.3383542e-07
5.1302247e-09
3.3255732e-07
4.9492952e-09
3.3132231e-07
4.7807566e-09
3.3012733e-07
4.6242296e-09
3.2896939e-07
4.4794118e-09
3.2784594e-07
4.3445185e-09
3.2675372e-07
4.2223474e-09
3.2569076e-07
4.1078916e-09
3.2464939e-07
4.0227885e-09
3.2363215e-07
3.9284616e-09
3.2261052e-07
3.9426203e-09
3.2162748e-07
3.7924847e-09
3.2042061e-07
4.6558979e-09
2.8838127e-09
2.8985749e-06
3.366696e-10
2.8984188e-06
1.0028521e-09
2.8981821e-06
1.518011e-09
2.897895e-06
1.8393922e-09
2.8975649e-06
2.1136117e-09
2.8971958e-06
2.3629649e-09
2.8967898e-06
2.599459e-09
2.896347e-06
2.8347066e-09
2.8958664e-06
3.0773086e-09
2.8953458e-06
3.334557e-09
2.8947816e-06
3.6139994e-09
2.894169e-06
3.9256936e-09
2.8935012e-06
4.2811159e-09
2.8927679e-06
4.7021039e-09
2.8919564e-06
5.2055484e-09
2.891043e-06
5.8609517e-09
2.8900058e-06
6.6581706e-09
2.8887707e-06
7.9320748e-09
2.8873264e-06
9.2788423e-09
2.88533e-06
1.2832069e-08
2.8829756e-06
1.5138201e-08
2.877127e-06
3.7647923e-08
2.8725103e-06
2.9643028e-08
2.0356638e-06
6.7968632e-06
1.0470662e-06
7.3854148e-06
8.5693944e-07
7.3867798e-07
7.9878077e-07
2.3552801e-07
7.6457134e-07
1.460991e-07
7.3990247e-07
1.0738826e-07
7.1988233e-07
8.7917e-08
7.0284548e-07
7.5126678e-08
6.8813016e-07
6.5010701e-08
6.7527627e-07
5.6840531e-08
6.6389697e-07
5.0343586e-08
6.537043e-07
4.5101795e-08
6.4450066e-07
4.0727607e-08
6.3613551e-07
3.701842e-08
6.2846962e-07
3.3922242e-08
6.2139092e-07
3.1319523e-08
6.1482169e-07
2.9061296e-08
6.0869489e-07
2.7099781e-08
6.0295232e-07
2.5395187e-08
5.9754822e-07
2.3893322e-08
5.9244369e-07
2.2563813e-08
5.8760615e-07
2.1378555e-08
5.8300741e-07
2.0318241e-08
5.7862326e-07
1.9365179e-08
5.7443384e-07
1.8500313e-08
5.7042083e-07
1.7716407e-08
5.6656904e-07
1.6999848e-08
5.6286606e-07
1.6338557e-08
5.5929895e-07
1.5734609e-08
5.5585628e-07
1.5181365e-08
5.5252893e-07
1.4668858e-08
5.493076e-07
1.4197631e-08
5.4618334e-07
1.3765889e-08
5.4314926e-07
1.3364801e-08
5.4019947e-07
1.2990042e-08
5.3732751e-07
1.2643789e-08
5.3452754e-07
1.2323289e-08
5.3179527e-07
1.2022036e-08
5.2912653e-07
1.1739339e-08
5.2651656e-07
1.1477602e-08
5.2396114e-07
1.1234537e-08
5.2145715e-07
1.1005401e-08
5.1900159e-07
1.078966e-08
5.1659093e-07
1.0589474e-08
5.1422178e-07
1.0404191e-08
5.1189169e-07
1.0229834e-08
5.0959864e-07
1.0064551e-08
5.0734003e-07
9.9107239e-09
5.0511291e-07
9.7697979e-09
5.0291519e-07
9.6381293e-09
5.0074542e-07
9.5129985e-09
4.9860168e-07
9.3964096e-09
4.9648166e-07
9.2898692e-09
4.9438328e-07
9.1924427e-09
4.9230509e-07
9.1014923e-09
4.9024588e-07
9.0159523e-09
4.8820393e-07
8.9379499e-09
4.8617716e-07
8.8689654e-09
4.8416404e-07
8.8067897e-09
4.8216353e-07
8.749198e-09
4.8017436e-07
8.6972403e-09
4.7819485e-07
8.6525167e-09
4.7622327e-07
8.6153961e-09
4.7425839e-07
8.5836305e-09
4.7229936e-07
8.5556915e-09
4.7034484e-07
8.5335338e-09
4.6839315e-07
8.5186558e-09
4.6644283e-07
8.5101179e-09
4.6449285e-07
8.5061297e-09
4.6254216e-07
8.5067362e-09
4.6058923e-07
8.5139036e-09
4.5863231e-07
8.5286736e-09
4.5667007e-07
8.5491664e-09
4.5470153e-07
8.5739812e-09
4.527252e-07
8.6051809e-09
4.507392e-07
8.6444625e-09
4.4874202e-07
8.690269e-09
4.4673249e-07
8.7411284e-09
4.4470902e-07
8.7988294e-09
4.4266952e-07
8.8654097e-09
4.4061214e-07
8.9400221e-09
4.3853531e-07
9.0213476e-09
4.3643707e-07
9.1110382e-09
4.3431493e-07
9.2113796e-09
4.3216664e-07