/*--------------------------------*- C++ -*----------------------------------*\
  =========                 |
  \\      /  F ield         | OpenFOAM: The Open Source CFD Toolbox
   \\    /   O peration     | Website:  https://openfoam.org
    \\  /    A nd           | Version:  12
     \\/     M anipulation  |
\*---------------------------------------------------------------------------*/
FoamFile
{
    format      ascii;
    class       surfaceScalarField;
    location    "1900";
    object      phi;
}
// * * * * * * * * * * * * * * * * * * * * * * * * * * * * * * * * * * * * * //

dimensions      [0 3 -1 0 0 0 0];

internalField   nonuniform List<scalar> 
14782
(
0.00078672429
7.063369e-06
-0.00079378766
0.00077721496
9.50933e-06
0.00076678168
1.0433289e-05
0.00075608928
1.0692392e-05
0.00074525551
1.0833774e-05
0.00073437905
1.0876456e-05
0.00072353595
1.0843099e-05
0.00071277483
1.0761126e-05
0.00070212165
1.0653175e-05
0.00069160094
1.0520711e-05
0.00068123235
1.0368591e-05
0.00067103376
1.0198593e-05
0.00066102889
1.0004864e-05
0.00065123894
9.789959e-06
0.00064169594
9.5429987e-06
0.00063244239
9.2535507e-06
0.00062353998
8.902411e-06
0.00061505835
8.4816297e-06
0.00060705681
8.0015304e-06
0.00059958618
7.4706366e-06
0.00059269095
6.8952328e-06
0.00058640578
6.2851614e-06
0.00058075481
5.6509757e-06
0.00057574709
5.0077142e-06
0.00057136574
4.3813593e-06
0.00056756139
3.8043469e-06
0.00056426024
3.3011454e-06
0.00056136979
2.8904538e-06
0.00055878592
2.5838695e-06
0.00055641125
2.3746671e-06
0.00055416739
2.243865e-06
0.00055200101
2.1663785e-06
0.00054987976
2.121247e-06
0.00054778785
2.0919108e-06
0.00054571719
2.0706614e-06
0.00054365868
2.0585064e-06
0.00054160265
2.0560317e-06
0.00053953976
2.0628904e-06
0.00053746443
2.0753318e-06
0.00053537831
2.0861226e-06
0.00053328841
2.089893e-06
0.00053120308
2.0853356e-06
0.00052912944
2.0736347e-06
0.00052707133
2.0581134e-06
0.00052503109
2.04024e-06
0.00052301058
2.0205111e-06
0.00052101144
1.9991399e-06
0.00051903502
1.9764171e-06
0.00051708278
1.9522471e-06
0.00051515583
1.92695e-06
0.00051325416
1.9016602e-06
0.00051137746
1.8767081e-06
0.00050952571
1.8517515e-06
0.00050769914
1.826567e-06
0.00050589733
1.8018097e-06
0.00050411966
1.7776652e-06
0.00050236576
1.7538991e-06
0.00050063532
1.7304491e-06
0.00049892757
1.7077453e-06
0.00049724206
1.6855068e-06
0.00049557838
1.6636857e-06
0.00049393583
1.642546e-06
0.00049231385
1.621984e-06
0.00049071203
1.6018129e-06
0.00048912988
1.5821533e-06
0.00048756687
1.5630133e-06
0.00048602262
1.5442463e-06
0.00048449662
1.5259993e-06
0.00048298839
1.5082365e-06
0.00048149751
1.4908744e-06
0.00048002349
1.4740208e-06
0.0004785659
1.4575897e-06
0.0004771243
1.4416051e-06
0.00047569825
1.4260502e-06
0.00047428737
1.4108791e-06
0.00047289123
1.3961316e-06
0.00047150947
1.3817638e-06
0.00047014169
1.3677805e-06
0.00046878752
1.3541661e-06
0.00046744661
1.3409101e-06
0.00046611861
1.328003e-06
0.00046480318
1.315436e-06
0.00046349997
1.3032017e-06
0.00046220868
1.2912953e-06
0.00046092897
1.2797122e-06
0.00045966051
1.2684545e-06
0.00045840299
1.2575201e-06
0.00045715606
1.2469327e-06
0.00045591938
1.2366814e-06
0.0004546925
1.2268772e-06
0.00045347509
1.2174095e-06
0.00045226629
1.2088007e-06
0.00045106603
1.2002645e-06
0.00044987152
1.1945071e-06
0.00044868501
1.1865106e-06
0.00044749375
1.1912604e-06
0.0004463143
1.1794485e-06
0.00044505695
1.2573519e-06
0.00044401089
1.0460588e-06
1.6099075e-06
0.00082514202
6.7837663e-06
-0.00082486241
0.00082537898
9.272363e-06
0.00082529777
1.05145e-05
0.00082488307
1.1107093e-05
0.00082407948
1.1637363e-05
0.00082284685
1.2109086e-05
0.00082117634
1.251361e-05
0.00081905984
1.2877632e-05
0.00081649347
1.3219543e-05
0.00081347542
1.3538761e-05
0.00081000775
1.383626e-05
0.00080609065
1.4115692e-05
0.00080172985
1.4365661e-05
0.00079692507
1.4594745e-05
0.00079167889
1.4789171e-05
0.00078598901
1.4943437e-05
0.00077985932
1.5032096e-05
0.00077332772
1.5013236e-05
0.00076645092
1.4878331e-05
0.0007592843
1.4637253e-05
0.00075189414
1.4285398e-05
0.00074436172
1.3817576e-05
0.00073677891
1.3233789e-05
0.00072924563
1.2540988e-05
0.00072187255
1.1754443e-05
0.00071478279
1.0894106e-05
0.0007080979
9.9860359e-06
0.00070190236
9.0859915e-06
0.00069622591
8.2603236e-06
0.00069104865
7.5519282e-06
0.00068631413
6.97838e-06
0.00068194501
6.5355029e-06
0.00067785902
6.2072377e-06
0.00067398825
5.9626797e-06
0.00067028574
5.7731651e-06
0.00066672188
5.6223736e-06
0.00066328072
5.4971865e-06
0.0006599523
5.3913095e-06
0.00065672711
5.3005218e-06
0.00065359492
5.2183156e-06
0.00065054424
5.1405725e-06
0.00064756303
5.0665506e-06
0.00064464129
4.9953701e-06
0.0006417723
4.927101e-06
0.0006389534
4.8591442e-06
0.0006361841
4.789809e-06
0.00063346384
4.7194043e-06
0.00063079096
4.6492936e-06
0.00062816369
4.5795179e-06
0.00062558077
4.5098683e-06
0.00062304106
4.4413727e-06
0.00062054357
4.3741935e-06
0.00061808755
4.3077779e-06
0.00061567228
4.2418302e-06
0.00061329664
4.1774521e-06
0.00061095943
4.1148726e-06
0.00060865974
4.0535888e-06
0.0006063968
3.9933971e-06
0.00060416939
3.9351512e-06
0.00060197644
3.8784551e-06
0.00059981709
3.8230325e-06
0.00059769038
3.7692597e-06
0.00059559536
3.7170002e-06
0.00059353123
3.6659449e-06
0.0005914971
3.616286e-06
0.00058949208
3.5680357e-06
0.0005875154
3.5209233e-06
0.00058556623
3.4751708e-06
0.00058364375
3.4307106e-06
0.00058174725
3.3873823e-06
0.00057987592
3.3453487e-06
0.00057802905
3.3044606e-06
0.00057620591
3.2647419e-06
0.00057440581
3.2261512e-06
0.00057262809
3.1885968e-06
0.00057087209
3.1521308e-06
0.00056913718
3.1166721e-06
0.00056742275
3.0822139e-06
0.0005657282
3.0487193e-06
0.00056405295
3.016159e-06
0.00056239645
2.9845064e-06
0.00056075815
2.9537358e-06
0.00055913752
2.9238262e-06
0.00055753406
2.8947604e-06
0.00055594724
2.8665248e-06
0.00055437658
2.8391154e-06
0.00055282157
2.8125302e-06
0.00055128171
2.7867987e-06
0.00054975645
2.7619336e-06
0.00054824526
2.7380721e-06
0.00054674746
2.7152042e-06
0.00054526237
2.6938982e-06
0.00054378887
2.6737574e-06
0.00054232586
2.6575232e-06
0.00054087078
2.6415932e-06
0.00053942033
2.6417081e-06
0.00053796424
2.6355327e-06
0.00053651107
2.7105282e-06
0.00053494556
2.6115666e-06
3.1183827e-06
0.00085292215
6.489237e-06
-0.00085262762
0.00085336284
8.8316667e-06
0.00085373963
1.0137715e-05
0.00085403331
1.0813414e-05
0.00085428286
1.138781e-05
0.00085448022
1.191173e-05
0.00085463347
1.2360361e-05
0.00085474601
1.2765089e-05
0.00085481725
1.3148306e-05
0.00085484155
1.3514458e-05
0.00085481332
1.3864494e-05
0.00085472399
1.4205016e-05
0.00085456332
1.452633e-05
0.00085431734
1.484073e-05
0.00085396783
1.5138683e-05
0.00085349183
1.5419439e-05
0.00085284737
1.5676548e-05
0.00085195894
1.5901665e-05
0.00085074509
1.6092181e-05
0.00084913388
1.6248468e-05
0.00084704979
1.6369483e-05
0.00084441241
1.6454963e-05
0.00084114104
1.6505151e-05
0.0008371605
1.6521532e-05
0.00083241017
1.6504774e-05
0.00082684659
1.645768e-05
0.00082050285
1.6329777e-05
0.00081350486
1.6083986e-05
0.00080603168
1.5733502e-05
0.00079831233
1.5271282e-05
0.00079059092
1.4699782e-05
0.0007830922
1.4034226e-05
0.00077599831
1.3301131e-05
0.00076942592
1.2535071e-05
0.00076340103
1.1798056e-05
0.00075787447
1.1148934e-05
0.00075276165
1.0609998e-05
0.00074797078
1.0182184e-05
0.00074342457
9.8467302e-06
0.00073907185
9.57104e-06
0.0007348836
9.3288144e-06
0.00073084365
9.1065017e-06
0.00072694102
8.8980076e-06
0.00072316478
8.7033344e-06
0.00071950371
8.5202167e-06
0.00071594636
8.347155e-06
0.00071248188
8.1838864e-06
0.00070910111
8.0300698e-06
0.00070579778
7.8828471e-06
0.00070256803
7.7396159e-06
0.00069940855
7.6008516e-06
0.00069631589
7.4668547e-06
0.0006932867
7.3369697e-06
0.00069031814
7.2103904e-06
0.0006874076
7.0879923e-06
0.0006845528
6.9696653e-06
0.00068175182
6.854577e-06
0.00067900285
6.7423616e-06
0.00067630389
6.634109e-06
0.00067365315
6.529197e-06
0.00067104909
6.4270948e-06
0.00066849011
6.3282383e-06
0.00066597469
6.2324213e-06
0.00066350146
6.1391703e-06
0.00066106906
6.0486894e-06
0.00065867614
5.9609616e-06
0.00065632148
5.8755764e-06
0.00065400387
5.7927849e-06
0.00065172211
5.7124653e-06
0.00064947513
5.6343656e-06
0.00064726181
5.5586711e-06
0.00064508111
5.4851627e-06
0.000642932
5.4138454e-06
0.00064081351
5.3446403e-06
0.00063872471
5.2774014e-06
0.00063666466
5.2121757e-06
0.0006346325
5.1488389e-06
0.00063262735
5.0873602e-06
0.0006306484
5.0276724e-06
0.00062869484
4.969719e-06
0.0006267659
4.9134473e-06
0.00062486082
4.8588074e-06
0.00062297889
4.8057566e-06
0.0006211194
4.7542584e-06
0.00061928164
4.7042834e-06
0.00061746494
4.655815e-06
0.00061566862
4.6088481e-06
0.00061389201
4.5634083e-06
0.0006121344
4.5195407e-06
0.0006103951
4.4773793e-06
0.00060867322
4.4370817e-06
0.00060696801
4.3991097e-06
0.00060527792
4.3638409e-06
0.00060360224
4.3332032e-06
0.00060193674
4.3070927e-06
0.00060028107
4.2973859e-06
0.00059861529
4.3013097e-06
0.00059698376
4.3420542e-06
0.00059511087
4.4844598e-06
4.690907e-06
0.00088146218
6.2580855e-06
-0.00088123103
0.0008818786
8.4152471e-06
0.00088226834
9.7479764e-06
0.00088257301
1.0508749e-05
0.00088283249
1.1128323e-05
0.00088305551
1.1688714e-05
0.00088324805
1.2167824e-05
0.0008834181
1.2595034e-05
0.00088357174
1.2994664e-05
0.0008837109
1.3375304e-05
0.00088383702
1.3738373e-05
0.00088395302
1.4089009e-05
0.00088405734
1.4422017e-05
0.00088415195
1.4746112e-05
0.00088423559
1.5055053e-05
0.00088430743
1.5347594e-05
0.00088436518
1.5618797e-05
0.00088440474
1.5862109e-05
0.00088442079
1.6076128e-05
0.00088440693
1.6262327e-05
0.00088435442
1.6421991e-05
0.00088425141
1.6557978e-05
0.00088408217
1.667439e-05
0.00088382544
1.6778264e-05
0.0008834498
1.688041e-05
0.00088291071
1.6996778e-05
0.000882106
1.7134481e-05
0.00088089104
1.7298947e-05
0.00087912653
1.7498016e-05
0.00087667126
1.7726546e-05
0.00087339976
1.7971288e-05
0.00086922506
1.8208922e-05
0.00086411306
1.841313e-05
0.00085814405
1.8504078e-05
0.00085152315
1.8418961e-05
0.00084450838
1.8163707e-05
0.00083737414
1.7744236e-05
0.00083037074
1.7185584e-05
0.00082369067
1.6526799e-05
0.00081743854
1.5823168e-05
0.00081162301
1.5144343e-05
0.00080619047
1.4539048e-05
0.00080106442
1.4024055e-05
0.00079617563
1.3592127e-05
0.00079147817
1.3217675e-05
0.0007869472
1.2878124e-05
0.00078256957
1.2561513e-05
0.00077833541
1.2264237e-05
0.00077423464
1.1983614e-05
0.00077025648
1.1717776e-05
0.00076638985
1.1467477e-05
0.00076262496
1.1231747e-05
0.00075895429
1.1007639e-05
0.0007553724
1.0792284e-05
0.00075187453
1.0585862e-05
0.00074845617
1.0388023e-05
0.00074511318
1.019757e-05
0.00074184191
1.0013628e-05
0.00073863899
9.8370322e-06
0.00073550153
9.6666565e-06
0.00073242692
9.5017036e-06
0.00072941254
9.3426159e-06
0.00072645597
9.1889914e-06
0.00072355507
9.0400732e-06
0.00072070776
8.8959959e-06
0.00071791207
8.756656e-06
0.00071516619
8.6214517e-06
0.00071246837
8.4906057e-06
0.00070981694
8.3639e-06
0.00070721035
8.240958e-06
0.00070464707
8.12195e-06
0.00070212567
8.0065626e-06
0.00069964476
7.8947562e-06
0.000697203
7.786394e-06
0.00069479915
7.6812584e-06
0.00069243195
7.5793722e-06
0.00069010023
7.4805542e-06
0.00068780286
7.3847347e-06
0.00068553873
7.2918039e-06
0.00068330678
7.2016658e-06
0.000681106
7.1142312e-06
0.00067893539
7.0294156e-06
0.000676794
6.9471453e-06
0.0006746809
6.8673554e-06
0.00067259519
6.7899926e-06
0.00067053599
6.7150196e-06
0.00066850242
6.6424217e-06
0.00066649361
6.572213e-06
0.00066450868
6.5044705e-06
0.00066254675
6.4393098e-06
0.00066060675
6.3770822e-06
0.00065868778
6.318076e-06
0.00065678801
6.2636118e-06
0.00065490678
6.2144337e-06
0.00065303899
6.1748818e-06
0.0006511856
6.1507799e-06
0.00064932138
6.1655312e-06
0.00064751155
6.1518803e-06
0.00064537751
6.6185032e-06
6.3704479e-06
0.0009109685
6.0740285e-06
-0.00091078445
0.00091133358
8.0501757e-06
0.00091170178
9.3797734e-06
0.00091200282
1.0207712e-05
0.00091226074
1.0870402e-05
0.00091249005
1.1459405e-05
0.00091269285
1.1965018e-05
0.00091287504
1.2412849e-05
0.00091304117
1.2828532e-05
0.00091319434
1.3222136e-05
0.00091333633
1.3596375e-05
0.00091346921
1.3956138e-05
0.0009135925
1.4298725e-05
0.00091370867
1.4629942e-05
0.00091381765
1.4946072e-05
0.0009139202
1.5245041e-05
0.00091401628
1.5522723e-05
0.00091410463
1.5773757e-05
0.00091418404
1.599672e-05
0.00091425359
1.619277e-05
0.00091431218
1.6363404e-05
0.00091435818
1.6511977e-05
0.00091438951
1.6643066e-05
0.00091440399
1.6763782e-05
0.00091439964
1.688476e-05
0.00091437528
1.7021138e-05
0.00091432717
1.7182585e-05
0.00091424851
1.7377613e-05
0.00091412975
1.761677e-05
0.00091395534
1.7900955e-05
0.00091370177
1.8224862e-05
0.00091333074
1.8579953e-05
0.00091278232
1.8961549e-05
0.00091192944
1.9356954e-05
0.00091059416
1.9754243e-05
0.00090860912
2.0148746e-05
0.00090582629
2.0527071e-05
0.00090214076
2.0871109e-05
0.00089752678
2.1140778e-05
0.00089209154
2.1258408e-05
0.00088605585
2.1180035e-05
0.00087968328
2.0911619e-05
0.00087323689
2.047045e-05
0.00086693478
1.9894236e-05
0.00086090944
1.9243015e-05
0.00085519844
1.8589122e-05
0.00084977671
1.798324e-05
0.00084459416
1.7446786e-05
0.00083960627
1.6971508e-05
0.00083478525
1.65388e-05
0.00083011645
1.6136273e-05
0.00082559115
1.5757043e-05
0.00082120139
1.5397401e-05
0.00081693827
1.5055402e-05
0.00081279217
1.4731965e-05
0.00080875429
1.4425902e-05
0.00080481763
1.4134234e-05
0.00080097667
1.3854586e-05
0.00079722638
1.3587322e-05
0.00079356218
1.3330856e-05
0.00078997987
1.308401e-05
0.00078647552
1.2846967e-05
0.00078304561
1.26189e-05
0.00077968703
1.2398661e-05
0.00077639677
1.218625e-05
0.00077317204
1.1981388e-05
0.00077001031
1.1783186e-05
0.00076690915
1.1591767e-05
0.00076386628
1.1406761e-05
0.00076087962
1.1227619e-05
0.00075794712
1.1054449e-05
0.00075506688
1.0886804e-05
0.00075223707
1.0724568e-05
0.00074945595
1.0567518e-05
0.00074672187
1.0415339e-05
0.00074403323
1.0268007e-05
0.00074138852
1.0125265e-05
0.00073878627
9.9869847e-06
0.00073622508
9.852998e-06
0.00073370359
9.7231551e-06
0.0007312205
9.5973166e-06
0.00072877457
9.4753515e-06
0.00072636457
9.3571433e-06
0.00072398934
9.2425882e-06
0.00072164773
9.1315991e-06
0.00071933864
9.0241085e-06
0.00071706098
8.9200845e-06
0.00071481367
8.8195211e-06
0.00071259562
8.7225232e-06
0.00071040575
8.6291767e-06
0.0007082428
8.5400367e-06
0.00070610569
8.4551834e-06
0.00070399234
8.3769628e-06
0.00070190202
8.3047466e-06
0.00069982907
8.247834e-06
0.00069777514
8.2047139e-06
0.0006957113
8.2293646e-06
0.00069371825
8.1449318e-06
0.00069133559
9.0011682e-06
8.1773238e-06
0.00094146861
5.926484e-06
-0.00094132106
0.00094178693
7.7318568e-06
0.0009421311
9.0356003e-06
0.00094242829
9.9105234e-06
0.00094268709
1.0611602e-05
0.00094291978
1.1226716e-05
0.00094312813
1.1756672e-05
0.00094331604
1.2224934e-05
0.00094348765
1.2656924e-05
0.0009436461
1.306368e-05
0.00094379345
1.3449033e-05
0.00094393182
1.3817763e-05
0.0009440616
1.4168947e-05
0.00094418465
1.4506888e-05
0.00094430137
1.4829353e-05
0.0009444123
1.5134111e-05
0.00094451741
1.5417616e-05
0.0009446159
1.5675265e-05
0.00094470704
1.590558e-05
0.00094479007
1.610974e-05
0.00094486408
1.628939e-05
0.00094492853
1.6447531e-05
0.00094498294
1.6588659e-05
0.00094502678
1.6719935e-05
0.00094506003
1.6851509e-05
0.00094508361
1.6997562e-05
0.00094509785
1.7168343e-05
0.00094510314
1.7372327e-05
0.00094510046
1.7619445e-05
0.0009450897
1.7911725e-05
0.00094506944
1.8245114e-05
0.00094503679
1.8612611e-05
0.00094498795
1.9010382e-05
0.00094491475
1.9430157e-05
0.00094480243
1.9866558e-05
0.00094463058
2.0320604e-05
0.00094436918
2.0788468e-05
0.00094397296
2.126733e-05
0.00094336017
2.1753564e-05
0.00094238391
2.2234674e-05
0.00094086475
2.2699193e-05
0.00093863866
2.3137713e-05
0.00093557558
2.3533527e-05
0.00093162088
2.3848935e-05
0.00092685204
2.4011855e-05
0.00092146049
2.3980675e-05
0.00091568569
2.3758042e-05
0.00090977373
2.3358744e-05
0.00090392276
2.2822474e-05
0.00089824543
2.221613e-05
0.00089277514
2.1606562e-05
0.00088749878
2.1033409e-05
0.00088239026
2.0505922e-05
0.00087742973
2.0015934e-05
0.00087260656
1.955513e-05
0.00086791528
1.9117184e-05
0.00086335098
1.8698534e-05
0.00085890741
1.829816e-05
0.00085457723
1.7917499e-05
0.00085035382
1.7554265e-05
0.00084623173
1.7206096e-05
0.00084220617
1.6872529e-05
0.00083827269
1.6552378e-05
0.00083442715
1.6244203e-05
0.00083066561
1.5947794e-05
0.00082698445
1.5662545e-05
0.00082338044
1.5387198e-05
0.00081985046
1.5121739e-05
0.00081639162
1.4865602e-05
0.00081300124
1.4618004e-05
0.00080967674
1.4378948e-05
0.00080641572
1.4147819e-05
0.0008032159
1.3924392e-05
0.00080007509
1.3708326e-05
0.00079699125
1.3499183e-05
0.00079396239
1.329687e-05
0.00079098662
1.3101031e-05
0.00078806214
1.2911462e-05
0.00078518722
1.272792e-05
0.00078236019
1.2550185e-05
0.00077957945
1.2378054e-05
0.00077684347
1.2211336e-05
0.00077415075
1.2049861e-05
0.00077149986
1.1893475e-05
0.00076888942
1.1742047e-05
0.00076631806
1.1595468e-05
0.00076378446
1.1453682e-05
0.00076128733
1.1316654e-05
0.00075882534
1.118451e-05
0.00075639722
1.1057299e-05
0.00075400147
1.0935781e-05
0.00075163685
1.0819809e-05
0.00074930102
1.0712796e-05
0.00074699313
1.0612638e-05
0.00074470705
1.0533908e-05
0.00074244487
1.0466893e-05
0.00074017466
1.0499577e-05
0.00073799022
1.0329368e-05
0.00073535864
1.1632751e-05
1.0126388e-05
0.00097299814
5.8059491e-06
-0.0009728776
0.00097327592
7.4540773e-06
0.00097359403
8.7174837e-06
0.00097388333
9.621223e-06
0.00097414154
1.0353396e-05
0.00097437645
1.0991801e-05
0.00097458913
1.1544002e-05
0.00097478203
1.2032028e-05
0.00097495879
1.2480166e-05
0.00097512234
1.2900132e-05
0.00097527472
1.3296653e-05
0.00097541789
1.3674586e-05
0.00097555259
1.4034248e-05
0.00097568036
1.4379121e-05
0.00097580181
1.4707906e-05
0.0009759174
1.5018515e-05
0.00097602714
1.5307881e-05
0.00097613036
1.5572044e-05
0.0009762264
1.5809544e-05
0.00097631471
1.602142e-05
0.00097639473
1.620938e-05
0.00097646592
1.6376334e-05
0.00097652787
1.6526713e-05
0.00097658034
1.6667462e-05
0.00097662342
1.6808427e-05
0.00097665815
1.6962839e-05
0.00097668569
1.7140796e-05
0.00097670728
1.7350737e-05
0.00097672479
1.7601939e-05
0.00097673952
1.7896998e-05
0.00097675199
1.8232642e-05
0.00097676204
1.8602561e-05
0.00097676943
1.9002993e-05
0.00097677283
1.9426751e-05
0.00097677015
1.9869243e-05
0.00097675901
2.0331743e-05
0.00097673574
2.0811739e-05
0.0009766956
2.1307469e-05
0.00097663173
2.1817427e-05
0.00097653054
2.2335871e-05
0.0009763701
2.285963e-05
0.00097611921
2.3388607e-05
0.00097573144
2.3921295e-05
0.00097512461
2.4455764e-05
0.00097415592
2.4980546e-05
0.00097265267
2.5483922e-05
0.0009704576
2.5953108e-05
0.00096744601
2.6370332e-05
0.00096359788
2.6670607e-05
0.00095902226
2.6791752e-05
0.00095390528
2.6723546e-05
0.00094847424
2.6464447e-05
0.00094294029
2.6039866e-05
0.00093744884
2.5507388e-05
0.00093206989
2.4934076e-05
0.00092682092
2.4366153e-05
0.00092169707
2.3822383e-05
0.00091669135
2.3303886e-05
0.00091180079
2.2808055e-05
0.00090702495
2.2330105e-05
0.00090236241
2.1868637e-05
0.00089780958
2.1425357e-05
0.00089336197
2.0999985e-05
0.0008890154
2.0590774e-05
0.00088476607
2.019713e-05
0.00088061035
1.9818261e-05
0.00087654478
1.9452769e-05
0.00087256591
1.910061e-05
0.0008686705
1.8761012e-05
0.00086485554
1.8432962e-05
0.00086111811
1.811638e-05
0.00085745544
1.7810489e-05
0.00085386488
1.7514949e-05
0.00085034391
1.7229292e-05
0.00084689014
1.6952954e-05
0.00084350125
1.668576e-05
0.00084017504
1.6427247e-05
0.00083690937
1.6177126e-05
0.00083370222
1.5935069e-05
0.00083055163
1.5700779e-05
0.0008274557
1.547398e-05
0.00082441263
1.5254413e-05
0.00082142065
1.5041843e-05
0.00081847806
1.483606e-05
0.00081558323
1.4636879e-05
0.00081273455
1.4444147e-05
0.00080993046
1.4257771e-05
0.00080716943
1.4077683e-05
0.00080444992
1.3904025e-05
0.00080177041
1.37368e-05
0.00079912922
1.3576975e-05
0.00079652487
1.3424164e-05
0.00079395479
1.3282868e-05
0.00079141798
1.3149451e-05
0.00078890792
1.3043969e-05
0.00078642696
1.2947853e-05
0.00078394048
1.2986062e-05
0.00078155434
1.2715505e-05
0.00077866707
1.4520024e-05
1.2230781e-05
0.0010055917
5.7057557e-06
-0.0010054915
0.001005834
7.2117486e-06
0.0010061249
8.4265227e-06
0.0010064025
9.3436615e-06
0.0010066576
1.0098348e-05
0.0010068932
1.0756174e-05
0.001007109
1.1328187e-05
0.0010073062
1.1834798e-05
0.0010074878
1.2298637e-05
0.0010076562
1.2731691e-05
0.0010078134
1.3139403e-05
0.0010079613
1.3526747e-05
0.0010081006
1.3894945e-05
0.0010082327
1.4246999e-05
0.0010083584
1.4582259e-05
0.001008478
1.4898909e-05
0.0010085915
1.5194304e-05
0.0010086985
1.5465052e-05
0.0010087983
1.5709769e-05
0.0010088904
1.5929357e-05
0.0010089742
1.612552e-05
0.0010090494
1.6301118e-05
0.0010091156
1.6460522e-05
0.0010091726
1.6610457e-05
0.0010092207
1.6760359e-05
0.0010092609
1.6922635e-05
0.0010092945
1.7107245e-05
0.0010093227
1.7322468e-05
0.0010093476
1.7577069e-05
0.0010093707
1.7873939e-05
0.0010093929
1.8210366e-05
0.0010094147
1.8580765e-05
0.0010094363
1.8981463e-05
0.001009457
1.940598e-05
0.0010094763
1.9849975e-05
0.0010094936
2.0314403e-05
0.0010095082
2.0797193e-05
0.001009519
2.1296664e-05
0.0010095249
2.1811486e-05
0.0010095237
2.2337087e-05
0.001009512
2.2871377e-05
0.0010094853
2.3415316e-05
0.0010094375
2.3969029e-05
0.0010093601
2.4533208e-05
0.0010092362
2.5104482e-05
0.0010090391
2.5680993e-05
0.0010087299
2.6262304e-05
0.0010082516
2.6848639e-05
0.0010074923
2.7429912e-05
0.0010062925
2.7991542e-05
0.0010044945
2.8521514e-05
0.0010019565
2.9002478e-05
0.00099861982
2.9376527e-05
0.0009945445
2.9582715e-05
0.00098987699
2.9601581e-05
0.00098481967
2.9423477e-05
0.00097957254
2.9069506e-05
0.00097428279
2.8593635e-05
0.00096903261
2.8058238e-05
0.00096385551
2.7507207e-05
0.00095876182
2.6962322e-05
0.00095375624
2.6430946e-05
0.00094884376
2.5912462e-05
0.0009440285
2.5406035e-05
0.00093931175
2.4913876e-05
0.00093469257
2.4437443e-05
0.00093016921
2.3976131e-05
0.00092573963
2.3530186e-05
0.00092140166
2.3098987e-05
0.00091715292
2.2681698e-05
0.00091299087
2.2278429e-05
0.00090891297
2.1888387e-05
0.00090491669
2.151123e-05
0.00090099952
2.1146459e-05
0.00089715903
2.0793449e-05
0.00089339279
2.0451996e-05
0.00088969848
2.0121562e-05
0.0008860738
1.9801804e-05
0.00088251654
1.9492328e-05
0.00087902455
1.9192774e-05
0.00087559572
1.8902803e-05
0.00087222804
1.8622095e-05
0.00086891953
1.8350359e-05
0.00086566826
1.8087324e-05
0.00086247238
1.7832758e-05
0.00085933007
1.7586458e-05
0.00085623954
1.7348298e-05
0.00085319905
1.7118173e-05
0.00085020684
1.6896239e-05
0.00084726118
1.6682455e-05
0.00084436017
1.6477988e-05
0.00084150212
1.6282215e-05
0.00083868425
1.6100734e-05
0.00083590535
1.5928351e-05
0.00083315857
1.579075e-05
0.00083044644
1.5659982e-05
0.00082773179
1.5700713e-05
0.00082513208
1.531522e-05
0.00082197856
1.7673542e-05
1.4503252e-05
0.0010392829
5.6211615e-06
-0.0010391983
0.0010394942
7.0004485e-06
0.0010397585
8.1622313e-06
0.0010400217
9.0804594e-06
0.0010402708
9.8492037e-06
0.0010405051
1.0521905e-05
0.0010407225
1.1110806e-05
0.001040923
1.1634298e-05
0.0010411086
1.2113003e-05
0.0010412815
1.2558783e-05
0.0010414434
1.2977562e-05
0.0010415957
1.33744e-05
0.0010417395
1.3751177e-05
0.0010418759
1.4110606e-05
0.0010420056
1.4452519e-05
0.0010421291
1.4775414e-05
0.0010422464
1.5077031e-05
0.0010423569
1.5354486e-05
0.0010424602
1.5606508e-05
0.0010425557
1.5833884e-05
0.0010426429
1.6038293e-05
0.0010427215
1.6222543e-05
0.0010427911
1.6390932e-05
0.0010428516
1.6549971e-05
0.0010429033
1.6708673e-05
0.0010429472
1.6878692e-05
0.0010429846
1.70698e-05
0.001043017
1.7290115e-05
0.0010430461
1.7547921e-05
0.0010430737
1.784634e-05
0.0010431009
1.8183208e-05
0.0010431281
1.8553567e-05
0.0010431557
1.8953866e-05
0.0010431834
1.9378265e-05
0.0010432108
1.9822589e-05
0.0010432378
2.0287392e-05
0.0010432641
2.0770887e-05
0.0010432894
2.1271386e-05
0.0010433133
2.1787561e-05
0.001043335
2.2315352e-05
0.0010433536
2.2852872e-05
0.0010433677
2.3401158e-05
0.0010433761
2.3960624e-05
0.0010433772
2.4532134e-05
0.001043368
2.5113658e-05
0.0010433442
2.5704816e-05
0.0010432995
2.6306989e-05
0.0010432261
2.6922077e-05
0.0010431092
2.7546732e-05
0.0010429235
2.8177295e-05
0.0010426311
2.8813856e-05
0.001042178
2.9455638e-05
0.0010414618
3.0092683e-05
0.0010403354
3.0709169e-05
0.0010386453
3.1291685e-05
0.0010362535
3.1815223e-05
0.0010331007
3.222238e-05
0.0010292339
3.2460367e-05
0.0010247852
3.2506934e-05
0.0010199406
3.2351802e-05
0.0010148815
3.2021478e-05
0.0010097408
3.1571584e-05
0.001004596
3.1057273e-05
0.00099948457
3.0517494e-05
0.00099442533
2.9973116e-05
0.00098943149
2.9431279e-05
0.00098451348
2.8894141e-05
0.00097967793
2.8365734e-05
0.00097492815
2.7848773e-05
0.00097026549
2.7344354e-05
0.00096569025
2.6853671e-05
0.00096120205
2.6376587e-05
0.00095679991
2.5913371e-05
0.00095248243
2.5463936e-05
0.00094824799
2.502789e-05
0.00094409476
2.4605225e-05
0.00094002081
2.4195511e-05
0.00093602413
2.3798485e-05
0.00093210267
2.3413793e-05
0.00092825435
2.3041091e-05
0.00092447711
2.2680043e-05
0.00092076889
2.2330316e-05
0.00091712765
2.1991597e-05
0.00091355138
2.1663593e-05
0.0009100381
2.1346041e-05
0.00090658585
2.1038709e-05
0.00090319269
2.0741454e-05
0.00089985672
2.0454143e-05
0.00089657601
2.0176955e-05
0.00089334865
1.9909811e-05
0.00089017255
1.9654086e-05
0.00088704584
1.9408929e-05
0.00088396554
1.9181035e-05
0.00088093023
1.8963658e-05
0.00087793277
1.8788209e-05
0.00087497583
1.8616926e-05
0.00087201975
1.8656787e-05
0.00086919342
1.8141553e-05
0.00086576068
2.110628e-05
1.695668e-05
0.0010741046
5.5483252e-06
-0.0010740318
0.0010742897
6.8153776e-06
0.0010745293
7.9226477e-06
0.001074777
8.8327393e-06
0.001075018
9.6081339e-06
0.0010752489
1.0291069e-05
0.0010754661
1.089359e-05
0.0010756686
1.1431818e-05
0.0010758574
1.1924164e-05
0.0010760342
1.2382023e-05
0.0010762002
1.2811547e-05
0.0010763568
1.3217797e-05
0.0010765049
1.3603116e-05
0.0010766454
1.3970037e-05
0.0010767792
1.431875e-05
0.0010769065
1.4648069e-05
0.0010770275
1.4956092e-05
0.0010771416
1.5240383e-05
0.0010772483
1.5499806e-05
0.0010773471
1.5735065e-05
0.0010774376
1.5947803e-05
0.0010775194
1.6140769e-05
0.0010775921
1.6318177e-05
0.0010776558
1.648632e-05
0.0010777106
1.6653798e-05
0.0010777578
1.6831571e-05
0.0010777984
1.7029172e-05
0.0010778339
1.7254556e-05
0.0010778663
1.7515579e-05
0.0010778971
1.7815538e-05
0.0010779275
1.815279e-05
0.0010779581
1.8522957e-05
0.0010779893
1.8922656e-05
0.001078021
1.9346597e-05
0.0010780528
1.9790795e-05
0.0010780847
2.0255453e-05
0.0010781167
2.0738957e-05
0.0010781484
2.123961e-05
0.0010781799
2.1756066e-05
0.0010782106
2.2284642e-05
0.00107824
2.2823505e-05
0.0010782676
2.3373587e-05
0.0010782928
2.3935378e-05
0.0010783153
2.4509686e-05
0.001078334
2.5094915e-05
0.0010783478
2.5690989e-05
0.0010783552
2.6299613e-05
0.0010783544
2.6922847e-05
0.0010783427
2.7558489e-05
0.0010783152
2.8204757e-05
0.0010782653
2.8863823e-05
0.0010781838
2.9537056e-05
0.0010780551
3.0221422e-05
0.0010778516
3.0912702e-05
0.0010775331
3.1610181e-05
0.0010770374
3.2310856e-05
0.0010762573
3.3002501e-05
0.0010750496
3.3668087e-05
0.001073264
3.4292581e-05
0.0010707826
3.4833185e-05
0.0010675701
3.5233937e-05
0.0010636852
3.5456539e-05
0.0010592678
3.5474676e-05
0.001054494
3.5291241e-05
0.0010495213
3.4945786e-05
0.0010444601
3.4492559e-05
0.0010393743
3.3979862e-05
0.0010342999
3.3440158e-05
0.0010292602
3.2888464e-05
0.0010242727
3.2331914e-05
0.0010193493
3.1777015e-05
0.0010144979
3.1228043e-05
0.001009723
3.0688274e-05
0.0010050275
3.0159429e-05
0.001000413
2.9642372e-05
0.00099588009
2.9138122e-05
0.00099142864
2.8646957e-05
0.000987058
2.8169135e-05
0.00098276712
2.770467e-05
0.00097855471
2.7253498e-05
0.00097441927
2.6815482e-05
0.00097035915
2.6390433e-05
0.00096637261
2.5978139e-05
0.00096245783
2.5578377e-05
0.00095861294
2.5190934e-05
0.00095483603
2.481561e-05
0.0009511252
2.445229e-05
0.00094747848
2.4100857e-05
0.0009438939
2.3761543e-05
0.00094036945
2.3434261e-05
0.00093690293
2.3120608e-05
0.00093349232
2.2819534e-05
0.00093013452
2.2538838e-05
0.00092682793
2.2270248e-05
0.00092356516
2.2050978e-05
0.00092034899
2.1833096e-05
0.00091713737
2.1868409e-05
0.00091407056
2.1208358e-05
0.00091034407
2.4832775e-05
1.9604264e-05
0.0011100911
5.4840871e-06
-0.0011100268
0.0011102545
6.6519518e-06
0.0011104721
7.7050164e-06
0.0011107045
8.6003255e-06
0.0011109363
9.3763298e-06
0.0011111622
1.0065247e-05
0.0011113776
1.0678102e-05
0.0011115808
1.1228691e-05
0.0011117718
1.1733152e-05
0.0011119516
1.2202174e-05
0.0011121213
1.2641907e-05
0.0011122818
1.3057312e-05
0.0011124338
1.345103e-05
0.0011125784
1.3825458e-05
0.0011127161
1.4181057e-05
0.0011128473
1.4516933e-05
0.0011129718
1.483151e-05
0.0011130895
1.5122749e-05
0.0011131996
1.5389665e-05
0.0011133018
1.5632899e-05
0.0011133955
1.5854051e-05
0.0011134805
1.6055813e-05
0.0011135564
1.62423e-05
0.0011136231
1.6419583e-05
0.001113681
1.6595859e-05
0.0011137312
1.6781449e-05
0.0011137747
1.6985608e-05
0.0011138132
1.7216116e-05
0.0011138483
1.7480456e-05
0.0011138818
1.7782052e-05
0.0011139148
1.8119749e-05
0.0011139481
1.848972e-05
0.0011139819
1.888878e-05
0.0011140164
1.9312133e-05
0.0011140512
1.9755996e-05
0.0011140864
2.0220282e-05
0.0011141218
2.070349e-05
0.0011141575
2.1203927e-05
0.0011141933
2.1720231e-05
0.001114229
2.2249033e-05
0.0011142639
2.2788541e-05
0.001114298
2.3339537e-05
0.0011143308
2.3902506e-05
0.0011143623
2.4478181e-05
0.001114392
2.5065216e-05
0.0011144194
2.5663608e-05
0.001114444
2.6275065e-05
0.0011144652
2.6901599e-05
0.0011144822
2.754148e-05
0.0011144936
2.819341e-05
0.0011144975
2.8859885e-05
0.0011144919
2.9542682e-05
0.0011144733
3.0240028e-05
0.0011144361
3.09499e-05
0.0011143723
3.1673975e-05
0.0011142705
3.2412656e-05
0.0011141106
3.3162429e-05
0.0011138596
3.3919044e-05
0.0011134707
3.4681523e-05
0.0011128629
3.5440961e-05
0.0011119151
3.6181678e-05
0.001110484
3.6887664e-05
0.0011084325
3.7526244e-05
0.0011056782