/*--------------------------------*- C++ -*----------------------------------*\
  =========                 |
  \\      /  F ield         | OpenFOAM: The Open Source CFD Toolbox
   \\    /   O peration     | Website:  https://openfoam.org
    \\  /    A nd           | Version:  12
     \\/     M anipulation  |
\*---------------------------------------------------------------------------*/
FoamFile
{
    format      ascii;
    class       volVectorField;
    location    "1900";
    object      U;
}
// * * * * * * * * * * * * * * * * * * * * * * * * * * * * * * * * * * * * * //

dimensions      [0 1 -1 0 0 0 0];

internalField   nonuniform List<vector> 
13056
(
(1 4.5088623e-10 2.0710654e-24)
(0.9999661 1.5223879e-09 0)
(0.99989508 2.6120363e-09 0)
(0.99980511 3.587631e-09 0)
(0.9996997 4.6732391e-09 0)
(0.99958044 5.9214731e-09 0)
(0.9994484 7.3799726e-09 0)
(0.99930389 9.1118351e-09 0)
(0.99914672 1.1189688e-08 0)
(0.99897629 1.3700415e-08 0)
(0.99879162 1.6752522e-08 0)
(0.99859131 2.049113e-08 0)
(0.9983733 2.5101135e-08 0)
(0.99813495 3.0871793e-08 0)
(0.99787191 3.8121307e-08 0)
(0.99757963 4.7642001e-08 0)
(0.9972466 5.9715124e-08 0)
(0.99686859 7.7925126e-08 0)
(0.99640027 9.8971255e-08 0)
(0.99587553 1.4711645e-07 0)
(0.9950331 1.8428603e-07 0)
(0.99424811 4.8061623e-07 0)
(0.99103082 3.8935493e-07 -1.3100272e-20)
(0.99103615 0.00012020867 1.8344034e-16)
(0.038872402 0.00012391098 0)
(0.029732175 1.1543496e-07 -3.6904036e-20)
(0.027392828 4.3297004e-08 0)
(0.025850132 3.5559887e-08 0)
(0.02474988 2.7561448e-08 0)
(0.023865277 2.3053443e-08 0)
(0.023112812 1.983006e-08 0)
(0.022464861 1.7139742e-08 0)
(0.021903108 1.4925187e-08 0)
(0.021409963 1.3142826e-08 0)
(0.020971479 1.1691864e-08 0)
(0.020577823 1.047519e-08 0)
(0.020222213 9.4411112e-09 0)
(0.019898609 8.5761092e-09 0)
(0.019601406 7.8438313e-09 0)
(0.019326882 7.2053457e-09 0)
(0.019072161 6.6506979e-09 0)
(0.018834477 6.1655215e-09 0)
(0.018611746 5.7361064e-09 0)
(0.018402208 5.3547579e-09 0)
(0.018204363 5.0129403e-09 0)
(0.018016986 4.7057622e-09 0)
(0.017838948 4.4282936e-09 0)
(0.01766936 4.1751717e-09 0)
(0.017507444 3.9447105e-09 0)
(0.017352464 3.7328671e-09 0)
(0.017203892 3.5366716e-09 0)
(0.017061207 3.3565464e-09 0)
(0.01692386 3.1902226e-09 0)
(0.016791453 3.035412e-09 0)
(0.016663615 2.8920426e-09 0)
(0.016539947 2.7591963e-09 0)
(0.01642012 2.6348563e-09 0)
(0.016303891 2.5179842e-09 0)
(0.016191008 2.4088461e-09 0)
(0.016081198 2.3065296e-09 0)
(0.015974261 2.2096963e-09 0)
(0.015870036 2.118124e-09 0)
(0.015768337 2.0320412e-09 0)
(0.015668968 1.950823e-09 0)
(0.015571783 1.8735275e-09 0)
(0.015476668 1.8000086e-09 0)
(0.015383489 1.7304429e-09 0)
(0.015292096 1.664583e-09 0)
(0.01520237 1.6016702e-09 0)
(0.01511423 1.5413801e-09 0)
(0.015027587 1.4839628e-09 0)
(0.014942321 1.4295103e-09 0)
(0.014858323 1.3773797e-09 0)
(0.014775535 1.3271359e-09 0)
(0.014693892 1.2790314e-09 0)
(0.014613305 1.2331101e-09 0)
(0.014533684 1.1892053e-09 0)
(0.014454959 1.1468898e-09 0)
(0.014377082 1.1060074e-09 0)
(0.014300001 1.066749e-09 0)
(0.014223637 1.029209e-09 0)
(0.014147911 9.9306446e-10 0)
(0.014072781 9.5802025e-10 0)
(0.013998207 9.2417443e-10 0)
(0.01392413 8.9160311e-10 0)
(0.013850483 8.603057e-10 0)
(0.013777203 8.2999439e-10 0)
(0.01370426 8.0049717e-10 0)
(0.013631616 7.7196725e-10 0)
(0.013559211 7.4446926e-10 0)
(0.01348698 7.178819e-10 0)
(0.013414881 6.9201119e-10 0)
(0.013342879 6.6684066e-10 0)
(0.013270929 6.4247534e-10 0)
(0.013198968 6.1894855e-10 0)
(0.013126932 5.960763e-10 0)
(0.013054788 5.7373573e-10 0)
(0.012982498 5.5203445e-10 0)
(0.012909994 5.310315e-10 0)
(0.012837212 5.1058979e-10 0)
(0.01276411 4.9059371e-10 0)
(0.012690646 4.711175e-10 0)
(0.012616751 4.5222514e-10 0)
(0.01254235 4.3383056e-10 0)
(0.012467389 4.1583636e-10 0)
(0.012391814 3.9828792e-10 0)
(0.012315545 3.8124182e-10 0)
(0.012238491 3.6461011e-10 0)
(0.01216059 3.4832839e-10 0)
(0.012081763 3.3245679e-10 0)
(0.012001908 3.1701446e-10 0)
(0.011920914 3.0189775e-10 0)
(0.011838711 2.8720814e-10 0)
(0.011756984 2.733129e-10 0)
(0.011678309 2.6039803e-10 0)
(0.01160342 2.4845588e-10 0)
(0.011532018 2.3745049e-10 0)
(0.011463819 2.2730372e-10 0)
(0.011398575 2.1789879e-10 0)
(0.011336074 2.0915779e-10 0)
(0.011276117 2.0105559e-10 0)
(0.01121851 1.9355224e-10 0)
(0.01116308 1.8656105e-10 0)
(0.011109684 1.8002248e-10 0)
(0.011058187 1.7393018e-10 0)
(0.011008453 1.6826986e-10 0)
(0.010960355 1.6303086e-10 0)
(0.010913764 1.5815089e-10 0)
(0.010868593 1.5372374e-10 0)
(0.010824655 1.4959083e-10 0)
(0.010781967 1.4647221e-10 0)
(0.010739897 1.4313189e-10 0)
(0.010699257 1.4344399e-10 0)
(0.01065698 6.863355e-10 0)
(0.010619578 1.665759e-10 2.3634179e-22)
(0.01055911 5.2643846e-10 0)
(1 1.3593252e-09 0)
(0.99996609 4.5911135e-09 0)
(0.99989505 7.8779648e-09 0)
(0.99980502 1.082115e-08 0)
(0.99969953 1.4096101e-08 0)
(0.99958019 1.7861453e-08 0)
(0.99944804 2.2260879e-08 0)
(0.99930342 2.7484652e-08 0)
(0.99914613 3.375177e-08 0)
(0.99897557 4.1324211e-08 0)
(0.99879078 5.0529135e-08 0)
(0.99859033 6.1804111e-08 0)
(0.99837219 7.5706611e-08 0)
(0.9981337 9.3108773e-08 0)
(0.99787052 1.1496999e-07 0)
(0.99757809 1.4367916e-07 0)
(0.99724492 1.8008425e-07 0)
(0.99686677 2.349922e-07 0)
(0.99639831 2.9845201e-07 0)
(0.99587342 4.4361041e-07 0)
(0.99503082 5.5567783e-07 0)
(0.99424573 1.4490545e-06 0)
(0.99102829 1.1746017e-06 4.6757687e-20)
(0.99103339 0.00035346265 -7.6785928e-20)
(0.1133396 0.00035881917 0)
(0.088160986 5.5733179e-06 0)
(0.081304585 1.9450381e-06 0)
(0.076810697 1.3268142e-06 0)
(0.073602781 9.9000099e-07 0)
(0.071021311 8.0997664e-07 0)
(0.068823069 6.8684286e-07 0)
(0.066927965 5.878194e-07 0)
(0.065283224 5.0766691e-07 0)
(0.063838046 4.4387788e-07 0)
(0.062552019 3.9241033e-07 0)
(0.061396615 3.4961288e-07 0)
(0.060352153 3.1350228e-07 0)
(0.059401117 2.8336912e-07 0)
(0.058527199 2.5800068e-07 0)
(0.057719553 2.3604655e-07 0)
(0.056969801 2.1699823e-07 0)
(0.056269895 2.0042071e-07 0)
(0.055613749 1.8581456e-07 0)
(0.054996227 1.7287597e-07 0)
(0.054412954 1.6132988e-07 0)
(0.053860351 1.5098377e-07 0)
(0.05333512 1.4166539e-07 0)
(0.05283466 1.3320141e-07 0)
(0.0523567 1.2550776e-07 0)
(0.051899084 1.1846193e-07 0)
(0.051460273 1.1196192e-07 0)
(0.051038736 1.060006e-07 0)
(0.050632873 1.0051397e-07 0)
(0.050241513 9.5423044e-08 0)
(0.049863567 9.0715062e-08 0)
(0.049497872 8.636252e-08 0)
(0.049143459 8.2300078e-08 0)
(0.048799617 7.849193e-08 0)
(0.048465604 7.494e-08 0)
(0.048140623 7.16183e-08 0)
(0.047824084 6.8483252e-08 0)
(0.047515516 6.5524325e-08 0)
(0.047214371 6.2746819e-08 0)
(0.046920075 6.013176e-08 0)
(0.0466322 5.7649451e-08 0)
(0.046350408 5.5292395e-08 0)
(0.046074304 5.3065692e-08 0)
(0.045803454 5.0960974e-08 0)
(0.045537502 4.8955353e-08 0)
(0.045276208 4.7037009e-08 0)
(0.045019314 4.5212805e-08 0)
(0.044766468 4.3484929e-08 0)
(0.044517346 4.1834379e-08 0)
(0.044271777 4.0247261e-08 0)
(0.044029569 3.8729086e-08 0)
(0.043790461 3.7282598e-08 0)
(0.043554191 3.5901403e-08 0)
(0.043320544 3.4573138e-08 0)
(0.043089388 3.3292053e-08 0)
(0.042860561 3.2063562e-08 0)
(0.042633833 3.0890313e-08 0)
(0.042408972 2.9762686e-08 0)
(0.042185854 2.8671728e-08 0)
(0.041964358 2.7619218e-08 0)
(0.041744311 2.660814e-08 0)
(0.041525515 2.5637679e-08 0)
(0.041307784 2.4699641e-08 0)
(0.041091027 2.3788549e-08 0)
(0.040875133 2.2908363e-08 0)
(0.04065992 2.2061339e-08 0)
(0.040445205 2.1243559e-08 0)
(0.040230852 2.044938e-08 0)
(0.040016765 1.9677862e-08 0)
(0.039802807 1.8932158e-08 0)
(0.039588789 1.8213028e-08 0)
(0.039374525 1.7515193e-08 0)
(0.039159915 1.6834847e-08 0)
(0.038944844 1.6174885e-08 0)
(0.038729114 1.553708e-08 0)
(0.038512529 1.4917415e-08 0)
(0.038294966 1.4312435e-08 0)
(0.038076302 1.3724071e-08 0)
(0.037856328 1.3154215e-08 0)
(0.037634824 1.2600344e-08 0)
(0.037411623 1.2059573e-08 0)
(0.03718657 1.1533078e-08 0)
(0.03695942 1.1022452e-08 0)
(0.036729907 1.0525181e-08 0)
(0.036497841 1.0039344e-08 0)
(0.036262991 9.5665252e-09 0)
(0.036025044 9.1073396e-09 0)
(0.035783678 8.6587119e-09 0)
(0.035538674 8.2234876e-09 0)
(0.035295059 7.8123773e-09 0)
(0.035060514 7.4311597e-09 0)
(0.034837227 7.0795178e-09 0)
(0.034624315 6.7560169e-09 0)
(0.034420932 6.458262e-09 0)
(0.034226342 6.1827523e-09 0)
(0.034039915 5.9271002e-09 0)
(0.033861059 5.6904512e-09 0)
(0.033689198 5.4715576e-09 0)
(0.033523816 5.2678845e-09 0)
(0.033364492 5.0776458e-09 0)
(0.033210822 4.9005594e-09 0)
(0.033062401 4.7361778e-09 0)
(0.032918852 4.5841335e-09 0)
(0.032779793 4.4425864e-09 0)
(0.03264496 4.3142498e-09 0)
(0.032513802 4.1941668e-09 0)
(0.032386366 4.1036895e-09 0)
(0.03226077 4.004885e-09 0)
(0.032139434 4.0141621e-09 0)
(0.032013216 3.8766011e-09 0)
(0.031901531 4.7278816e-09 -3.5779473e-22)
(0.031720957 2.9589635e-09 2.7456616e-23)
(1 2.2883205e-09 0)
(0.99996609 7.7297133e-09 0)
(0.999895 1.3264867e-08 0)
(0.99980491 1.8221933e-08 0)
(0.99969932 2.3737583e-08 0)
(0.99957986 3.0078843e-08 0)
(0.99944758 3.7487611e-08 0)
(0.99930282 4.6284218e-08 0)
(0.99914538 5.6837332e-08 0)
(0.99897467 6.9587961e-08 0)
(0.99878971 8.5086825e-08 0)
(0.9985891 1.040705e-07 0)
(0.99837078 1.2747736e-07 0)
(0.99813212 1.5677549e-07 0)
(0.99786877 1.9357979e-07 0)
(0.99757616 2.4191143e-07 0)
(0.99724282 3.031978e-07 0)
(0.99686448 3.9562932e-07 0)
(0.99639583 5.024573e-07 0)
(0.99587077 7.467967e-07 0)
(0.99502796 9.3544892e-07 0)
(0.99424273 2.4391051e-06 0)
(0.99102514 1.9784159e-06 -2.4726152e-20)
(0.99102999 0.00057059764 8.0765398e-54)
(0.18081029 0.00058325637 -9.5404914e-54)
(0.14098287 1.6307371e-05 0)
(0.13019161 5.6827304e-06 0)
(0.12329191 3.8226489e-06 0)
(0.11837575 2.8484559e-06 0)
(0.11441818 2.3304009e-06 0)
(0.11104355 1.9772564e-06 0)
(0.10812899 1.6935655e-06 0)
(0.10559482 1.4638144e-06 0)
(0.10336429 1.2808462e-06 0)
(0.10137618 1.1331227e-06 0)
(0.099587296 1.0101873e-06 0)
(0.097967945 9.0637235e-07 0)
(0.09649157 8.1967751e-07 0)
(0.095133285 7.466568e-07 0)
(0.093876589 6.8343178e-07 0)
(0.092708756 6.2853759e-07 0)
(0.091617482 5.8074476e-07 0)
(0.090593475 5.3861715e-07 0)
(0.089628889 5.0128129e-07 0)
(0.088717027 4.6795135e-07 0)
(0.087852412 4.3807356e-07 0)
(0.087029988 4.1115375e-07 0)
(0.086245768 3.8669437e-07 0)
(0.085496272 3.6445269e-07 0)
(0.08477818 3.4407798e-07 0)
(0.084089141 3.2527571e-07 0)
(0.083426802 3.0802549e-07 0)
(0.082788695 2.9214508e-07 0)
(0.08217302 2.7740576e-07 0)
(0.081578106 2.6377096e-07 0)
(0.08100215 2.5116287e-07 0)
(0.080443657 2.3939242e-07 0)
(0.079901532 2.2835592e-07 0)
(0.079374632 2.1805934e-07 0)
(0.07886172 2.0842843e-07 0)
(0.078361883 1.9933673e-07 0)
(0.077874397 1.9075364e-07 0)
(0.077398415 1.8269515e-07 0)
(0.07693304 1.7510669e-07 0)
(0.076477614 1.6790207e-07 0)
(0.076031611 1.6105939e-07 0)
(0.075594422 1.5459398e-07 0)
(0.075165365 1.4848181e-07 0)
(0.07474389 1.4265647e-07 0)
(0.074329626 1.3708347e-07 0)
(0.073922169 1.3178299e-07 0)
(0.073520973 1.267617e-07 0)
(0.073125527 1.2196447e-07 0)
(0.072735567 1.1735078e-07 0)
(0.072350797 1.1293661e-07 0)
(0.071970805 1.0873041e-07 0)
(0.071595181 1.0471349e-07 0)
(0.071223586 1.0084999e-07 0)
(0.070855817 9.7123057e-08 0)
(0.070491621 9.3548591e-08 0)
(0.070130631 9.0134452e-08 0)
(0.069772485 8.6852677e-08 0)
(0.069416988 8.367717e-08 0)
(0.069063946 8.0613046e-08 0)
(0.068713091 7.7669228e-08 0)
(0.068364108 7.4843318e-08 0)
(0.068016699 7.2111506e-08 0)
(0.067670725 6.9457777e-08 0)
(0.067326006 6.6893689e-08 0)
(0.066982256 6.4425955e-08 0)
(0.06663918 6.2043144e-08 0)
(0.066296565 5.9728816e-08 0)
(0.065954254 5.7480201e-08 0)
(0.065612033 5.5306568e-08 0)
(0.065269594 5.3210168e-08 0)
(0.064926643 5.117562e-08 0)
(0.064583019 4.9191802e-08 0)
(0.064238536 4.7267175e-08 0)
(0.063892876 4.5406972e-08 0)
(0.063545723 4.3599478e-08 0)
(0.06319688 4.1834598e-08 0)
(0.062846145 4.0117975e-08 0)
(0.062493183 3.8455173e-08 0)
(0.062137637 3.6838838e-08 0)
(0.061779239 3.5260547e-08 0)
(0.061417733 3.3723734e-08 0)
(0.061052723 3.223308e-08 0)
(0.060683779 3.0781253e-08 0)
(0.060310589 2.936264e-08 0)
(0.059932778 2.7981874e-08 0)
(0.059549837 2.6640783e-08 0)
(0.059161238 2.5330368e-08 0)
(0.058766627 2.4058926e-08 0)
(0.058374096 2.2857788e-08 0)
(0.057996029 2.1743913e-08 0)
(0.057635975 2.0716372e-08 0)
(0.057292528 1.9770957e-08 0)
(0.05696434 1.8900709e-08 0)
(0.056650237 1.8095404e-08 0)
(0.056349216 1.7348076e-08 0)
(0.056060334 1.6656244e-08 0)
(0.055782669 1.6016276e-08 0)
(0.055515399 1.5420769e-08 0)
(0.05525785 1.4864505e-08 0)
(0.055009377 1.4346666e-08 0)
(0.054769331 1.3865956e-08 0)
(0.05453711 1.342131e-08 0)
(0.054312099 1.3007341e-08 0)
(0.054093877 1.2632025e-08 0)
(0.053881556 1.2280779e-08 0)
(0.053675216 1.2016336e-08 0)
(0.05347181 1.1727108e-08 0)
(0.053275267 1.1755258e-08 0)
(0.05307076 1.1279821e-08 0)
(0.052889771 1.385765e-08 0)
(0.052597091 8.5931093e-09 0)
(1 3.251627e-09 4.2551218e-24)
(0.99996608 1.0984947e-08 0)
(0.99989495 1.8853428e-08 0)
(0.99980477 2.5901279e-08 0)
(0.99969907 3.3743025e-08 0)
(0.99957947 4.2758037e-08 0)
(0.99944703 5.3290095e-08 0)
(0.9993021 6.5794411e-08 0)
(0.99914447 8.0794848e-08 0)
(0.99897357 9.891804e-08 0)
(0.99878841 1.2094649e-07 0)
(0.99858759 1.4792677e-07 0)
(0.99836907 1.8119217e-07 0)
(0.99813019 2.228286e-07 0)
(0.99786663 2.7513052e-07 0)
(0.9975738 3.4381137e-07 0)
(0.99724024 4.3089898e-07 0)
(0.99686169 5.6223893e-07 0)
(0.99639281 7.1403336e-07 0)
(0.99586752 1.0612032e-06 0)
(0.99502445 1.3292826e-06 0)
(0.99423907 3.4655073e-06 0)
(0.99102133 2.8120042e-06 0)
(0.99102589 0.00077837216 -4.2028382e-54)
(0.23877927 0.00080432103 4.2383247e-54)
(0.18492579 3.2293295e-05 0)
(0.17080012 1.1113396e-05 0)
(0.16210294 7.376971e-06 0)
(0.15594891 5.4893353e-06 0)
(0.151007 4.4919663e-06 0)
(0.14679498 3.8147628e-06 0)
(0.14315503 3.271306e-06 0)
(0.13998721 2.8308893e-06 0)
(0.13719606 2.4798733e-06 0)
(0.13470557 2.1962324e-06 0)
(0.13246227 1.9599224e-06 0)
(0.13042958 1.7601279e-06 0)
(0.12857463 1.5931404e-06 0)
(0.12686646 1.4523998e-06 0)
(0.12528465 1.3304319e-06 0)
(0.12381348 1.2244462e-06 0)
(0.12243762 1.1321157e-06 0)
(0.12114557 1.0506736e-06 0)
(0.11992757 9.7844672e-07 0)
(0.11877531 9.1393048e-07 0)
(0.11768197 8.5606244e-07 0)
(0.11664127 8.0389387e-07 0)
(0.11564826 7.5646608e-07 0)
(0.1146986 7.1331586e-07 0)
(0.11378814 6.7376738e-07 0)
(0.11291398 6.3724951e-07 0)
(0.11207319 6.0372944e-07 0)
(0.11126268 5.7285737e-07 0)
(0.11048021 5.4418797e-07 0)
(0.10972371 5.1765487e-07 0)
(0.10899091 4.9311102e-07 0)
(0.10827994 4.7018737e-07 0)
(0.10758945 4.4868263e-07 0)
(0.106918 4.2861199e-07 0)
(0.10626404 4.0983249e-07 0)
(0.10562643 3.9209619e-07 0)
(0.10500428 3.7534457e-07 0)
(0.1043965 3.5961163e-07 0)
(0.10380199 3.4479146e-07 0)
(0.10321991 3.3071486e-07 0)
(0.10264961 3.1733975e-07 0)
(0.10209032 3.0469814e-07 0)
(0.10154118 2.9274372e-07 0)
(0.1010015 2.8134597e-07 0)
(0.10047082 2.7043722e-07 0)
(0.099948635 2.6005861e-07 0)
(0.099434242 2.5022425e-07 0)
(0.098927001 2.4082553e-07 0)
(0.098426583 2.3178263e-07 0)
(0.097932614 2.231278e-07 0)
(0.097444573 2.148787e-07 0)
(0.096961935 2.0699862e-07 0)
(0.096484273 1.9941681e-07 0)
(0.096011332 1.9210018e-07 0)
(0.095542792 1.8508082e-07 0)
(0.095078185 1.7837477e-07 0)
(0.094617044 1.7192675e-07 0)
(0.094159125 1.656852e-07 0)
(0.093704183 1.5966057e-07 0)
(0.093251873 1.5387104e-07 0)
(0.09280179 1.48312e-07 0)
(0.092353552 1.4293634e-07 0)
(0.091906981 1.377124e-07 0)
(0.091461848 1.3266341e-07 0)
(0.091017782 1.2780298e-07 0)
(0.090574402 1.2310848e-07 0)
(0.090131432 1.1854736e-07 0)
(0.089688672 1.1411422e-07 0)
(0.089245843 1.0982775e-07 0)
(0.088802545 1.0569254e-07 0)
(0.088358394 1.0167807e-07 0)
(0.087913183 9.7762292e-08 0)
(0.087466667 9.3962216e-08 0)
(0.087018431 9.0288406e-08 0)
(0.08656806 8.6717565e-08 0)
(0.086115298 8.3229661e-08 0)
(0.085659878 7.9836048e-08 0)
(0.085201359 7.654792e-08 0)
(0.084739272 7.3350667e-08 0)
(0.084273263 7.0227552e-08 0)
(0.083802992 6.7185514e-08 0)
(0.083327939 6.4233973e-08 0)
(0.082847533 6.1358337e-08 0)
(0.082361359 5.8547454e-08 0)
(0.081868922 5.5810646e-08 0)
(0.081369544 5.3151631e-08 0)
(0.080862525 5.0552447e-08 0)
(0.080347391 4.8029615e-08 0)
(0.079834699 4.5645553e-08 0)
(0.07934064 4.3433998e-08 0)
(0.078869881 4.139311e-08 0)
(0.078420617 3.9514709e-08 0)
(0.077991115 3.7785088e-08 0)
(0.077579861 3.6184054e-08 0)
(0.077185567 3.4697832e-08 0)
(0.076807017 3.3321625e-08 0)
(0.076443019 3.20483e-08 0)
(0.076092514 3.0863149e-08 0)
(0.075754632 2.9755828e-08 0)
(0.075428539 2.8724798e-08 0)
(0.075113396 2.7767549e-08 0)
(0.074808421 2.6882022e-08 0)
(0.074512817 2.6057476e-08 0)
(0.074226041 2.5310017e-08 0)
(0.073946928 2.4610328e-08 0)
(0.073675598 2.4084706e-08 0)
(0.073408026 2.3508414e-08 0)
(0.073149427 2.3570233e-08 0)
(0.072880183 2.2655748e-08 0)
(0.072641901 2.7804494e-08 0)
(0.072256469 1.7245968e-08 0)
(1 4.2636776e-09 0)
(0.99996607 1.4405898e-08 0)
(0.99989488 2.4728318e-08 0)
(0.9998046 3.3975948e-08 0)
(0.99969877 4.4264841e-08 0)
(0.999579 5.6092333e-08 0)
(0.99944637 6.9909281e-08 0)
(0.99930123 8.6312627e-08 0)
(0.99914338 1.0598928e-07 0)
(0.99897224 1.2976088e-07 0)
(0.99878684 1.5865339e-07 0)
(0.99858578 1.9403903e-07 0)
(0.998367 2.3766588e-07 0)
(0.99812788 2.922688e-07 0)
(0.99786406 3.60856e-07 0)
(0.99757098 4.5091852e-07 0)
(0.99723715 5.6511449e-07 0)
(0.99685833 7.3733077e-07 0)
(0.99638918 9.3636306e-07 0)
(0.99586363 1.3915504e-06 0)
(0.99502025 1.7430371e-06 0)
(0.99423468 4.5436273e-06 0)
(0.9910168 3.6879084e-06 0)
(0.99102106 0.0009816283 0)
(0.28886994 0.0010247046 0)
(0.22151646 5.3620203e-05 0)
(0.20435259 1.8056623e-05 0)
(0.19418167 1.1798582e-05 0)
(0.18705559 8.753208e-06 0)
(0.18135839 7.1569727e-06 0)
(0.17651237 6.0788881e-06 0)
(0.17232734 5.2158899e-06 0)
(0.16868568 4.5168219e-06 0)
(0.16547676 3.9596427e-06 0)
(0.16261285 3.5093031e-06 0)
(0.16003242 3.1338821e-06 0)
(0.15769358 2.8162319e-06 0)
(0.15555867 2.550632e-06 0)
(0.153592 2.3267095e-06 0)
(0.15177021 2.1325341e-06 0)
(0.15007532 1.9637151e-06 0)
(0.14848971 1.8165964e-06 0)
(0.14700018 1.6867664e-06 0)
(0.14559557 1.5715762e-06 0)
(0.14426633 1.4686414e-06 0)
(0.14300466 1.3762775e-06 0)
(0.14180335 1.2929783e-06 0)
(0.14065671 1.2172164e-06 0)
(0.13955979 1.1482644e-06 0)
(0.13850781 1.0850448e-06 0)
(0.13749745 1.0266422e-06 0)
(0.13652537 9.7301579e-07 0)
(0.13558799 9.2360939e-07 0)
(0.13468278 8.7770702e-07 0)
(0.13380735 8.3521086e-07 0)
(0.1329591 7.9589158e-07 0)
(0.13213587 7.5915418e-07 0)
(0.13133613 7.2467657e-07 0)
(0.13055822 6.9248972e-07 0)
(0.12980036 6.6236591e-07 0)
(0.12906122 6.3390399e-07 0)
(0.12833981 6.0701213e-07 0)
(0.12763487 5.8174975e-07 0)
(0.12694512 5.5794693e-07 0)
(0.12626961 5.3532963e-07 0)
(0.12560759 5.1383157e-07 0)
(0.12495818 4.9350783e-07 0)
(0.12432038 4.7428469e-07 0)
(0.12369339 4.559504e-07 0)
(0.1230767 4.3839582e-07 0)
(0.12246971 4.2169011e-07 0)
(0.12187163 4.0585784e-07 0)
(0.1212817 3.9072223e-07 0)
(0.12069955 3.761538e-07 0)
(0.12012476 3.6220661e-07 0)
(0.11955671 3.4891078e-07 0)
(0.1189948 3.3620677e-07 0)
(0.11843854 3.2397957e-07 0)
(0.11788763 3.1217574e-07 0)
(0.1173417 3.0084875e-07 0)
(0.11680021 2.9002548e-07 0)
(0.11626262 2.7961577e-07 0)
(0.11572864 2.6953573e-07 0)
(0.11519799 2.5980312e-07 0)
(0.11467027 2.5044837e-07 0)
(0.11414501 2.414642e-07 0)
(0.11362176 2.3277372e-07 0)
(0.11310031 2.2432542e-07 0)
(0.1125804 2.1615791e-07 0)
(0.11206159 2.0829389e-07 0)
(0.11154344 2.0069634e-07 0)
(0.11102563 1.9331215e-07 0)
(0.11050791 1.8613282e-07 0)
(0.10998997 1.7918935e-07 0)
(0.10947133 1.7248945e-07 0)
(0.10895153 1.6598314e-07 0)
(0.10843035 1.5963449e-07 0)
(0.10790748 1.5347176e-07 0)
(0.10738244 1.4751246e-07 0)
(0.10685474 1.4171838e-07 0)
(0.10632407 1.3605681e-07 0)
(0.10579012 1.3054664e-07 0)
(0.10525236 1.2520638e-07 0)
(0.10471024 1.2001207e-07 0)
(0.10416334 1.1493637e-07 0)
(0.10361125 1.0999085e-07 0)
(0.10305336 1.0519111e-07 0)
(0.10248898 1.0051319e-07 0)
(0.10191763 9.5938881e-08 0)
(0.1013387 9.1483655e-08 0)
(0.10075139 8.7153706e-08 0)
(0.10015486 8.2919509e-08 0)
(0.099548551 7.8808081e-08 0)
(0.098944876 7.4921656e-08 0)
(0.098362909 7.1315299e-08 0)
(0.097808174 6.798595e-08 0)
(0.097278571 6.4920554e-08 0)
(0.096772083 6.2097057e-08 0)
(0.096286949 5.9482591e-08 0)
(0.095821665 5.7054818e-08 0)
(0.095374817 5.4806166e-08 0)
(0.094945013 5.2725139e-08 0)
(0.094531014 5.0787701e-08 0)
(0.094131809 4.8977016e-08 0)
(0.093746423 4.7290755e-08 0)
(0.093373874 4.5724932e-08 0)
(0.093013247 4.4276301e-08 0)
(0.092663606 4.2927233e-08 0)
(0.09232432 4.1704552e-08 0)
(0.091994009 4.0559731e-08 0)
(0.091672832 3.970219e-08 0)
(0.091355987 3.875918e-08 0)
(0.09104974 3.8872294e-08 0)
(0.090730639 3.7381142e-08 0)
(0.090448295 4.5879233e-08 -3.2242212e-22)
(0.08999152 2.844482e-08 2.4786261e-23)
(1 5.3396475e-09 0)
(0.99996605 1.8044195e-08 0)
(0.99989481 3.097877e-08 0)
(0.99980441 4.2569181e-08 0)
(0.99969841 5.5464039e-08 0)
(0.99957844 7.0286014e-08 0)
(0.99944559 8.7599851e-08 0)
(0.9993002 1.081532e-07 0)
(0.99914209 1.3280632e-07 0)
(0.99897068 1.6258813e-07 0)
(0.99878499 1.9878342e-07 0)
(0.99858364 2.4311051e-07 0)
(0.99836457 2.9775838e-07 0)
(0.99812514 3.6615167e-07 0)
(0.99786101 4.5205713e-07 0)
(0.99756763 5.6485525e-07 0)
(0.99723349 7.0787371e-07 0)
(0.99685437 9.2354677e-07 0)
(0.99638489 1.1727958e-06 0)
(0.99585904 1.7428005e-06 0)
(0.99501529 2.1829434e-06 0)
(0.99422948 5.689512e-06 0)
(0.99101147 4.6194278e-06 0)
(0.99101548 0.0011837535 0)
(0.33355367 0.0012481501 0)
(0.25324656 8.1136955e-05 0)
(0.23314872 2.6692519e-05 0)
(0.22164295 1.7146334e-05 0)
(0.21366923 1.2666672e-05 0)
(0.20732708 1.0339457e-05 0)
(0.20194662 8.7773625e-06 0)
(0.19730568 7.5314033e-06 0)
(0.19326988 6.5233949e-06 0)
(0.18971498 5.7204248e-06 0)
(0.18654291 5.0715898e-06 0)
(0.18368507 4.5306121e-06 0)
(0.18109501 4.0727208e-06 0)
(0.17873093 3.6898376e-06 0)
(0.17655311 3.3670339e-06 0)
(0.17453566 3.0870187e-06 0)
(0.1726587 2.8435135e-06 0)
(0.17090266 2.6312906e-06 0)
(0.16925291 2.4439632e-06 0)
(0.16769712 2.2777248e-06 -3.9951739e-33)
(0.16622468 2.1291448e-06 0)
(0.16482698 1.9957989e-06 0)
(0.163496 1.8755169e-06 0)
(0.16222547 1.7660923e-06 0)
(0.16100991 1.6664896e-06 0)
(0.15984402 1.5751513e-06 0)
(0.15872412 1.4907471e-06 0)
(0.15764653 1.413233e-06 0)
(0.15660729 1.3418059e-06 0)
(0.15560358 1.2754235e-06 0)
(0.15463279 1.2139557e-06 0)
(0.15369202 1.1570779e-06 0)
(0.1527789 1.1039224e-06 0)
(0.15189172 1.0540226e-06 0)
(0.15102866 1.0074326e-06 0)
(0.15018773 9.6382361e-07 0)
(0.14936748 9.2260881e-07 0)
(0.14856679 8.8365778e-07 0)
(0.14778431 8.4706312e-07 0)
(0.14701858 8.1257794e-07 0)
(0.14626855 7.798012e-07 0)
(0.14553342 7.4863858e-07 0)
(0.14481221 7.1917486e-07 0)
(0.1441038 6.9130371e-07 0)
(0.14340731 6.6471476e-07 0)
(0.14272216 6.3924918e-07 0)
(0.14204772 6.1501151e-07 0)
(0.14138308 5.9203972e-07 0)
(0.14072742 5.70074e-07 0)
(0.14008032 5.4892485e-07 0)
(0.13944132 5.2867394e-07 0)
(0.13880974 5.0936709e-07 0)
(0.1381849 4.9091706e-07 0)
(0.13756625 4.7315511e-07 0)
(0.13695348 4.5600351e-07 0)
(0.13634617 4.395424e-07 0)
(0.13574372 4.2381213e-07 0)
(0.13514552 4.0867993e-07 0)
(0.13455127 3.940228e-07 0)
(0.13396064 3.7986801e-07 0)
(0.13337319 3.6626119e-07 0)
(0.1327884 3.5319186e-07 0)
(0.13220576 3.4054685e-07 0)
(0.13162505 3.2825074e-07 0)
(0.13104597 3.1636134e-07 0)
(0.13046803 3.0491246e-07 0)
(0.12989074 2.9384951e-07 0)
(0.12931374 2.8309447e-07 0)
(0.12873677 2.7263531e-07 0)
(0.12815945 2.6251823e-07 0)
(0.12758127 2.5275475e-07 0)
(0.12700171 2.4327115e-07 0)
(0.12642051 2.3401476e-07 0)
(0.12583735 2.2502786e-07 0)
(0.12525166 2.163364e-07 0)
(0.1246629 2.0788396e-07 0)
(0.12407074 1.9962252e-07 0)
(0.12347481 1.9158032e-07 0)
(0.12287453 1.8378477e-07 0)
(0.12226927 1.7620054e-07 0)
(0.12165856 1.6878741e-07 0)
(0.12104195 1.6156276e-07 0)
(0.12041873 1.5454974e-07 0)
(0.11978814 1.4771294e-07 0)
(0.11914963 1.4102563e-07 0)
(0.11850252 1.3451089e-07 0)
(0.1178459 1.2817792e-07 0)
(0.11717884 1.2198311e-07 0)
(0.11650068 1.1596605e-07 0)
(0.11582532 1.102771e-07 0)
(0.1151741 1.0499697e-07 0)
(0.11455321 1.0012096e-07 0)
(0.11396032 9.5630245e-08 0)
(0.11339319 9.149294e-08 0)
(0.11284986 8.7660916e-08 0)
(0.11232865 8.4101623e-08 0)
(0.11182801 8.0804294e-08 0)
(0.11134637 7.7752254e-08 0)
(0.11088236 7.4910199e-08 0)
(0.11043485 7.2253523e-08 0)
(0.11000276 6.9779067e-08 0)
(0.109585 6.7481119e-08 0)
(0.10918053 6.5355068e-08 0)
(0.10878832 6.3374926e-08 0)
(0.10840766 6.1580759e-08 0)
(0.10803701 5.9900454e-08 0)
(0.10767656 5.8645558e-08 0)
(0.10732086 5.7261278e-08 0)
(0.10697707 5.7444735e-08 0)
(0.10661857 5.5248213e-08 0)
(0.10630148 6.7822162e-08 0)
(0.1057885 4.2028962e-08 -1.186243e-23)
(1 6.4956811e-09 0)
(0.99996604 2.1954836e-08 0)
(0.99989472 3.7700018e-08 0)
(0.99980418 5.1812694e-08 0)
(0.99969799 6.751284e-08 0)
(0.9995778 8.5557676e-08 0)
(0.99944468 1.0663436e-07 0)
(0.999299 1.3165251e-07 0)
(0.99914058 1.6165862e-07 0)
(0.99896885 1.9790431e-07 0)
(0.99878283 2.4195237e-07 0)
(0.99858113 2.9589289e-07 0)
(0.99836171 3.623884e-07 0)
(0.99812193 4.4560446e-07 0)
(0.99785745 5.5012246e-07 0)
(0.99756371 6.8735241e-07 0)
(0.99722921 8.6134072e-07 0)
(0.99684973 1.1237026e-06 0)
(0.99637987 1.4268996e-06 0)
(0.99585365 2.1202364e-06 0)
(0.99500948 2.6555745e-06 0)
(0.99422341 6.9202737e-06 0)
(0.99100527 5.6206968e-06 0)
(0.99100907 0.0013872489 0)
(0.37466685 0.0014790145 0)
(0.28188992 0.00011510744 0)
(0.25886298 3.730117e-05 0)
(0.24607535 2.3550445e-05 0)
(0.23731399 1.7310819e-05 0)
(0.23038292 1.4099895e-05 0)
(0.22451961 1.1958902e-05 0)
(0.21946937 1.0258319e-05 0)
(0.2150813 8.8848421e-06 0)
(0.21121824 7.7916675e-06 0)
(0.20777247 6.908786e-06 0)
(0.20466884 6.1727422e-06 0)
(0.20185667 5.5496645e-06 0)
(0.19929038 5.0287163e-06 0)
(0.19692656 4.5895792e-06 0)
(0.19473704 4.2085855e-06 0)
(0.19270021 3.8772442e-06 0)
(0.19079472 3.5884834e-06 0)
(0.18900467 3.3335712e-06 0)
(0.18731662 3.1073391e-06 3.600345e-33)
(0.18571906 2.9051247e-06 0)
(0.18420262 2.7236321e-06 0)
(0.18275857 2.5599077e-06 0)
(0.18138011 2.4109428e-06 0)
(0.18006129 2.2753453e-06 0)
(0.17879632 2.1509908e-06 0)
(0.17758123 2.0360547e-06 0)
(0.17641201 1.9304942e-06 0)
(0.17528436 1.8332144e-06 0)
(0.17419524 1.7427848e-06 0)
(0.17314182 1.659042e-06 0)
(0.17212093 1.581552e-06 0)
(0.17113 1.5091222e-06 0)
(0.17016718 1.4411155e-06 0)
(0.16923051 1.3776169e-06 0)
(0.16831781 1.3181789e-06 0)
(0.16742752 1.2619928e-06 0)
(0.16655842 1.2088837e-06 0)
(0.16570904 1.158986e-06 0)
(0.1648778 1.1119615e-06 0)
(0.16406356 1.0672576e-06 0)
(0.16326546 1.0247475e-06 0)
(0.16248242 9.8455315e-07 0)
(0.16171324 9.4653001e-07 0)
(0.16095696 9.1024974e-07 0)
(0.16021296 8.7549461e-07 0)
(0.15948055 8.4241279e-07 0)
(0.15875875 8.1105901e-07 0)
(0.15804664 7.8107384e-07 0)
(0.15734379 7.5219628e-07 0)
(0.1566497 7.2454215e-07 0)
(0.15596363 6.981766e-07 0)
(0.15528484 6.7297919e-07 0)
(0.15461274 6.4871705e-07 0)
(0.15394698 6.2528374e-07 0)
(0.15328712 6.0279203e-07 0)
(0.15263249 5.8129857e-07 0)
(0.15198243 5.6061944e-07 0)
(0.15133662 5.405851e-07 0)
(0.15069471 5.2123475e-07 0)
(0.15005622 5.0263251e-07 0)
(0.14942057 4.8476407e-07 0)
(0.14878721 4.6747282e-07 0)
(0.1481559 4.5065498e-07 0)
(0.14752633 4.3439176e-07 0)
(0.14689796 4.1873038e-07 0)
(0.14627024 4.0359509e-07 0)
(0.14564278 3.8887818e-07 0)
(0.14501531 3.7456364e-07 0)
(0.14438743 3.6071608e-07 0)
(0.14375855 3.4735157e-07 0)
(0.14312812 3.3436791e-07 0)
(0.14249585 3.2169259e-07 0)
(0.1418614 3.0938495e-07 0)
(0.14122414 2.9748108e-07 0)
(0.1405835 2.8590261e-07 0)
(0.13993908 2.7458339e-07 0)
(0.13929052 2.6356302e-07 0)
(0.13863716 2.5287959e-07 0)
(0.13797831 2.4248403e-07 0)
(0.13731347 2.3232088e-07 0)
(0.13664214 2.2241461e-07 0)
(0.13596355 2.1279738e-07 0)
(0.13527686 2.0342005e-07 0)
(0.13458146 1.9424579e-07 0)
(0.13387663 1.8530689e-07 0)
(0.13316136 1.7661613e-07 0)
(0.13243463 1.6811302e-07 0)
(0.13169571 1.5985198e-07 0)
(0.13095976 1.5204038e-07 0)
(0.13025002 1.4478918e-07 0)
(0.12957325 1.3809149e-07 0)
(0.12892693 1.3192182e-07 0)
(0.12830862 1.2623673e-07 0)
(0.12771619 1.2097011e-07 0)
(0.12714782 1.1607742e-07 0)
(0.12660182 1.1154423e-07 0)
(0.12607649 1.0734781e-07 0)
(0.12557033 1.0343949e-07 0)
(0.12508213 9.9785521e-08 0)
(0.1246107 9.6381891e-08 0)
(0.12415485 9.3220875e-08 0)
(0.12371348 9.0296299e-08 0)
(0.12328544 8.7572228e-08 0)
(0.12286997 8.5104688e-08 0)
(0.12246537 8.2793241e-08 0)
(0.12207187 8.1071973e-08 0)
(0.12168348 7.9167329e-08 0)
(0.12130811 7.9441974e-08 0)
(0.12091639 7.641256e-08 -2.9387091e-23)
(0.1205701 9.3810294e-08 0)
(0.12000987 5.811327e-08 0)
(1 7.7491447e-09 0)
(0.99996602 2.6197098e-08 0)
(0.99989462 4.4994917e-08 0)
(0.99980392 6.184897e-08 0)
(0.99969751 8.0597705e-08 0)
(0.99957704 1.0214408e-07 0)
(0.99944362 1.2730807e-07 0)
(0.99929761 1.5717492e-07 0)
(0.99913883 1.9299309e-07 0)
(0.99896672 2.362556e-07 0)
(0.99878031 2.8882662e-07 0)
(0.99857822 3.5319924e-07 0)
(0.9983584 4.3254924e-07 0)
(0.99811821 5.3184527e-07 0)
(0.99785332 6.5655166e-07 0)
(0.99755916 8.2027826e-07 0)
(0.99722424 1.02785e-06 0)
(0.99684433 1.3408337e-06 0)
(0.99637404 1.7025193e-06 0)
(0.9958474 2.5295453e-06 0)
(0.99500274 3.1680808e-06 0)
(0.99421635 8.2542076e-06 0)
(0.99099812 6.7069567e-06 0)
(0.99100178 0.0015940356 -1.0933569e-53)
(0.41343717 0.0017199584 6.9093617e-54)
(0.3085914 0.00015755296 -7.0387655e-20)
(0.28257427 5.0243885e-05 0)
(0.26851021 3.1184547e-05 0)
(0.25898813 2.2795253e-05 0)
(0.25149716 1.8521156e-05 0)
(0.24517912 1.5691029e-05 0)
(0.23974548 1.3453278e-05 0)
(0.2350286 1.16495e-05 0)
(0.23087876 1.0215293e-05 0)
(0.22717888 9.057752e-06 0)
(0.22384746 8.0929818e-06 0)
(0.22082979 7.2762886e-06 0)
(0.21807672 6.5936048e-06 0)
(0.21554134 6.0182727e-06 0)
(0.21319329 5.5190842e-06 0)
(0.21100934 5.0849592e-06 0)
(0.20896646 4.7066709e-06 0)
(0.20704755 4.3727196e-06 0)
(0.20523815 4.0763407e-06 0)
(0.20352589 3.8114278e-06 0)