/*--------------------------------*- C++ -*----------------------------------*\
  =========                 |
  \\      /  F ield         | OpenFOAM: The Open Source CFD Toolbox
   \\    /   O peration     | Website:  https://openfoam.org
    \\  /    A nd           | Version:  12
     \\/     M anipulation  |
\*---------------------------------------------------------------------------*/
FoamFile
{
    format      ascii;
    class       volScalarField;
    location    "1900";
    object      yPlus;
}
// * * * * * * * * * * * * * * * * * * * * * * * * * * * * * * * * * * * * * //

dimensions      [];

internalField   uniform 0;

boundaryField
{
    inlet
    {
        type            calculated;
        value           uniform 0;
    }
    top
    {
        type            calculated;
        value           uniform 0;
    }
    outlet
    {
        type            calculated;
        value           uniform 0;
    }
    slipsurface
    {
        type            calculated;
        value           uniform 0;
    }
    bottom
    {
        type            calculated;
        value           nonuniform List<scalar> 
100
(
116.35478
115.20615
113.93435
112.58471
111.19797
109.80202
108.40714
107.01785
105.63839
104.27233
102.92258
101.59153
100.28178
98.996282
97.738521
96.513141
95.326933
94.189818
93.110245
92.095609
91.152497
90.286476
89.501604
88.800708
88.183844
87.646741
87.181207
86.776155
86.418218
86.09362
85.79046
85.500075
85.217047
84.938457
84.662979
84.389647
84.117198
83.844252
83.56972
83.293308
83.015677
82.737986
82.461373
82.186559
81.913884
81.643579
81.375896
81.111062
80.849257
80.590651
80.335332
80.083275
79.83444
79.588847
79.346508
79.107352
78.871297
78.63831
78.408323
78.181261
77.95706
77.735655
77.516962
77.300916
77.087463
76.876537
76.668078
76.462031
76.25833
76.056917
75.857733
75.660719
75.465818
75.272971
75.082127
74.893234
74.706239
74.521091
74.337743
74.156147
73.976255
73.798025
73.621411
73.44637
73.272861
73.10084
72.930266
72.761092
72.59328
72.426765
72.261526
72.097416
71.934538
71.772325
71.611626
71.449784
71.291363
71.122667
70.983901
70.720946
)
;
    }
    frontandback
    {
        type            empty;
    }
}


// ************************************************************************* //
