/*--------------------------------*- C++ -*----------------------------------*\
  =========                 |
  \\      /  F ield         | OpenFOAM: The Open Source CFD Toolbox
   \\    /   O peration     | Website:  https://openfoam.org
    \\  /    A nd           | Version:  12
     \\/     M anipulation  |
\*---------------------------------------------------------------------------*/
FoamFile
{
    format      ascii;
    class       volScalarField;
    location    "400";
    object      k;
}
// * * * * * * * * * * * * * * * * * * * * * * * * * * * * * * * * * * * * * //

dimensions      [0 2 -2 0 0 0 0];

internalField   nonuniform List<scalar> 
7480
(
0.00019046471
0.00027690009
0.000407646
0.00059241325
0.00084510072
0.0011797167
0.001606791
0.0021294231
0.0027397487
0.0034165583
0.0041256864
0.004825942
0.0054758678
0.006040729
0.006497048
0.0068364051
0.0070529116
0.0072040973
0.0072000779
0.0071604147
0.0070708956
0.0069460306
0.0067994297
0.0066427311
0.0064856799
0.0063363835
0.0062015032
0.0060861984
0.0059940578
0.0059265986
0.0058824914
0.0058572995
0.005844105
0.0058352346
0.0058244323
0.005808243
0.0057860671
0.0057591927
0.005729454
0.0056982224
0.005666093
0.0056331275
0.0055992995
0.00556479
0.0055299846
0.0054952919
0.00546098
0.0054271465
0.0053937954
0.0053609211
0.0053285334
0.0052966369
0.0052652325
0.0052343103
0.0052038565
0.00517386
0.0051443116
0.005115198
0.0050865048
0.0050582282
0.0050303567
0.0050028717
0.0049757583
0.0049490056
0.0049226042
0.004896546
0.0048708229
0.004845426
0.0048203472
0.0047955785
0.0047711116
0.004746939
0.0047230543
0.00469945
0.0046761188
0.0046530545
0.0046302509
0.004607702
0.0045854017
0.0045633445
0.0045415248
0.004519937
0.0044985762
0.004477437
0.0044565145
0.0044358036
0.0044152994
0.0043949968
0.0043748905
0.0043549745
0.0043352441
0.0043156894
0.0042963113
0.0042770747
0.0042580286
0.0042389794
0.004220324
0.0042008037
0.0041841728
0.0041537849
0.00014375363
0.00014626307
0.00015024011
0.0001560307
0.00016437436
0.00017649819
0.00019416371
0.00021962913
0.00025533578
0.00030373612
0.00036740219
0.00044707099
0.00054114113
0.00064615947
0.00075762335
0.00087145832
0.00098337449
0.0010959285
0.0012066254
0.001322857
0.0014550511
0.0016234812
0.0018369176
0.0020748359
0.0023374587
0.0026282596
0.0029473228
0.0032911221
0.0036506915
0.0040094982
0.0043454841
0.0046366431
0.0048664889
0.0050302262
0.00513572
0.0051983955
0.0052348858
0.0052580326
0.0052745234
0.0052859629
0.0052917531
0.0052915309
0.0052862284
0.0052776635
0.0052675272
0.0052567491
0.0052455116
0.0052336681
0.0052211493
0.0052080513
0.0051944992
0.0051805529
0.0051662066
0.0051514596
0.0051363414
0.0051208854
0.0051051087
0.0050890211
0.0050726488
0.005056045
0.0050392022
0.0050221204
0.0050048163
0.0049873127
0.004969632
0.0049517944
0.0049338168
0.0049157158
0.0048975067
0.0048792037
0.0048608211
0.0048423728
0.0048238698
0.0048053249
0.0047867506
0.0047681578
0.0047495565
0.0047309554
0.004712363
0.004693787
0.0046752347
0.0046567128
0.0046382276
0.0046197847
0.0046013892
0.0045830456
0.004564758
0.0045465301
0.0045283649
0.0045102641
0.0044922303
0.0044742667
0.0044563711
0.0044385494
0.004420783
0.0044031031
0.0043854419
0.0043676268
0.0043516285
0.0043235317
0.00014260678
0.0001427983
0.00014313335
0.00014359634
0.00014418098
0.00014488941
0.00014572714
0.00014669851
0.00014780058
0.00014902277
0.00015036878
0.0001518473
0.00015345643
0.00015518829
0.00015703776
0.00015901412
0.00016114046
0.00016352128
0.00016630487
0.00016981969
0.00017456862
0.00018182994
0.00019241997
0.0002122189
0.00024485759
0.00029350595
0.00036242308
0.00045677465
0.00058442581
0.00075730145
0.0010043162
0.0013071762
0.0016527991
0.0020256781
0.0024058386
0.0027701025
0.0030961996
0.0033686694
0.0035828849
0.0037445097
0.003865711
0.0039600251
0.0040382347
0.0041063945
0.0041665712
0.0042189469
0.0042636804
0.004301694
0.0043343561
0.0043628528
0.0043878727
0.0044097413
0.0044286966
0.0044450226
0.0044590113
0.0044708939
0.0044808408
0.0044889981
0.0044955024
0.0045004603
0.0045039974
0.0045062209
0.0045072263
0.0045071002
0.0045059215
0.004503763
0.0045006913
0.0044967685
0.0044920518
0.0044865946
0.0044804474
0.0044736581
0.0044662707
0.0044583271
0.0044498669
0.0044409274
0.0044315432
0.0044217465
0.0044115676
0.0044010349
0.0043901749
0.0043790129
0.0043675721
0.0043558746
0.0043439408
0.0043317897
0.0043194391
0.0043069056
0.0042942046
0.0042813519
0.0042683598
0.0042552423
0.004242005
0.0042286733
0.0042152189
0.0042017413
0.0041880577
0.0041743698
0.0041617004
0.0041396821
0.00014252788
0.00014249451
0.0001424953
0.00014252565
0.0001425787
0.00014264698
0.00014272276
0.00014279784
0.00014286292
0.00014290736
0.00014292054
0.00014289218
0.00014281136
0.00014266601
0.00014244404
0.00014213051
0.00014171104
0.00014117625
0.00014052331
0.00013975506
0.00013887655
0.00013791788
0.00013689549
0.00013591731
0.00013514714
0.00013480651
0.000135234
0.00013674441
0.00014013302
0.00014638466
0.00015824364
0.00017839594
0.00021613099
0.00027949079
0.0003761285
0.00051394796
0.00071212273
0.00097151245
0.0012702443
0.0015895468
0.0019093664
0.0022093921
0.0024739537
0.0026959267
0.0028770668
0.0030252471
0.003150115
0.0032593761
0.0033572459
0.0034452391
0.0035238624
0.0035938541
0.0036563876
0.0037126621
0.0037635493
0.0038095998
0.0038512365
0.0038888707
0.0039228894
0.0039536106
0.0039813044
0.0040062121
0.0040285528
0.0040485217
0.0040662929
0.0040820236
0.0040958573
0.0041079243
0.0041183441
0.0041272267
0.004134674
0.004140781
0.0041456352
0.0041493184
0.0041519069
0.0041534721
0.0041540802
0.0041537934
0.0041526695
0.0041507627
0.0041481238
0.0041448003
0.0041408368
0.004136275
0.0041311539
0.0041255099
0.0041193772
0.0041127878
0.0041057716
0.0040983576
0.0040905714
0.0040824401
0.0040739803
0.0040652316
0.0040561706
0.004046927
0.0040372829
0.0040276267
0.0040183425
0.004002145
0.00014255809
0.00014248291
0.0001424165
0.00014236024
0.00014231274
0.00014227107
0.0001422315
0.00014218983
0.00014214156
0.0001420819
0.00014200601
0.0001419091
0.00014178645
0.00014163333
0.00014144559
0.00014121843
0.00014094611
0.00014062301
0.00014024092
0.00013979529
0.00013928298
0.00013870334
0.00013805693
0.00013735045
0.0001365988
0.00013582482
0.00013505722
0.00013431831
0.000133637
0.0001330863
0.00013259407
0.00013267636
0.00013321621
0.00013489758
0.00013847554
0.00014497104
0.00015692694
0.00017760068
0.00021677473
0.00028282117
0.00038356152
0.00052989714
0.00073325186
0.00097525792
0.0012398326
0.0015094582
0.0017669531
0.0019996975
0.0022023429
0.0023762969
0.0025270255
0.0026605508
0.0027810455
0.0028905185
0.0029898414
0.0030798156
0.0031614983
0.0032359618
0.0033040444
0.0033663496
0.0034233798
0.0034756042
0.0035234476
0.0035672759
0.0036074065
0.0036441237
0.0036776842
0.0037083182
0.0037362335
0.0037616198
0.0037846502
0.0038054838
0.0038242666
0.0038411334
0.0038562088
0.0038696084
0.0038814398
0.0038918025
0.0039007896
0.0039084877
0.0039149776
0.0039203349
0.0039246302
0.0039279294
0.0039302942
0.0039317821
0.0039324471
0.0039323399
0.0039315076
0.0039299956
0.0039278448
0.0039250972
0.0039217831
0.0039179555
0.0039136033
0.0039088725
0.0039035402
0.0038981193
0.0038924379
0.0038822733
0.00014260782
0.0001425254
0.00014244272
0.00014236182
0.00014228365
0.00014220787
0.0001421332
0.00014205784
0.00014197959
0.00014189599
0.00014180442
0.00014170224
0.00014158679
0.00014145547
0.00014130519
0.00014113331
0.0001409379
0.00014071642
0.00014046568
0.00014018259
0.0001398643
0.0001395084
0.00013911286
0.00013867635
0.00013819864
0.00013768106
0.00013712643
0.00013653733
0.00013591892
0.00013529325
0.00013466263
0.00013406489
0.00013351094
0.00013305448
0.00013269819
0.00013262601
0.00013284349
0.00013355522
0.00013526735
0.00013873313
0.00014496445
0.00015596882
0.00017499904
0.0002104207
0.00027049362
0.00036263937
0.00049984685
0.00068080334
0.00089221212
0.0011204576
0.0013504824
0.0015692393
0.0017687777
0.0019469415
0.00210592
0.0022494358
0.0023804656
0.0025006105
0.0026107122
0.0027115666
0.0028041083
0.002889228
0.0029676387
0.0030399129
0.0031065598
0.003168047
0.0032247902
0.0032771545
0.0033254665
0.0033700229
0.0034110919
0.003448917
0.0034837208
0.0035157068
0.003545062
0.0035719588
0.0035965566
0.0036190027
0.003639434
0.0036579774
0.0036747511
0.0036898651
0.0037034221
0.0037155175
0.0037262406
0.0037356747
0.0037438976
0.0037509825
0.0037569973
0.0037620069
0.0037660707
0.0037692476
0.003771585
0.0037731501
0.0037739485
0.003774138
0.0037735027
0.0037726634
0.0037708923
0.0037671779
0.00014266722
0.00014258448
0.00014249898
0.00014241182
0.0001423239
0.00014223563
0.00014214695
0.00014205739
0.0001419661
0.0001418719
0.00014177341
0.00014166907
0.00014155726
0.00014143629
0.00014130441
0.00014115982
0.00014100091
0.00014082607
0.00014063361
0.00014042172
0.00014018859
0.00013993245
0.00013965161
0.00013934451
0.00013900983
0.00013864663
0.00013825446
0.00013783324
0.000137383
0.00013690695
0.00013640755
0.00013589044
0.00013535951
0.00013482383
0.00013429523
0.00013380314
0.0001333579
0.0001329893
0.00013267454
0.00013264236
0.0001328138
0.00013340639
0.00013463578
0.00013707972
0.00014161292
0.00014948569
0.00016316913
0.00018729338
0.00022996909
0.00029852837
0.00040254386
0.00054695497
0.00072199552
0.00091719742
0.0011200518
0.001318863
0.0015056619
0.0016772501
0.0018341872
0.00197849
0.0021118465
0.0022351989
0.002349183
0.0024545069
0.002551943
0.0026421855
0.0027258124
0.0028033308
0.0028752089
0.002941873
0.0030037045
0.0030610482
0.0031142188
0.0031635035
0.0032091651
0.0032514448
0.0032905649
0.0033267304
0.003360131
0.0033909425
0.0034193278
0.0034454385
0.0034694152
0.0034913892
0.0035114825
0.0035298092
0.0035464755
0.0035615812
0.0035752191
0.003587477
0.003598436
0.0036081753
0.0036167618
0.0036242793
0.0036307534
0.0036363534
0.0036408748
0.0036450482
0.003647556
0.0036508357
0.00014273569
0.00014265364
0.00014256843
0.00014248058
0.00014239052
0.00014229856
0.00014220485
0.00014210939
0.00014201197
0.00014191217
0.00014180937
0.00014170275
0.00014159138
0.00014147421
0.00014135011
0.00014121789
0.00014107636
0.00014092432
0.00014076057
0.00014058388
0.00014039299
0.00014018662
0.0001399635
0.00013972236
0.00013946201
0.00013918133
0.00013887939
0.00013855541
0.0001382087
0.00013783923
0.00013744725
0.00013703383
0.00013660025
0.00013614862
0.00013568202
0.00013520733
0.00013473045
0.00013426009
0.00013379461
0.00013337452
0.00013300328
0.00013271831
0.00013246722
0.00013249254
0.00013269766
0.00013332189
0.00013457403
0.00013683791
0.00014093824
0.00014804403
0.00016023517
0.00018120161
0.00021817607
0.00027790171
0.0003697768
0.00049590326
0.00064989449
0.00082313794
0.001005018
0.0011855512
0.0013578993
0.0015192381
0.0016695637
0.0018097935
0.001940646
0.0020625739
0.002176052
0.0022816593
0.0023799782
0.0024715271
0.0025567725
0.0026361517
0.0027100708
0.0027789014
0.0028429849
0.0029026366
0.0029581473
0.003009786
0.0030578014
0.0031024242
0.0031438683
0.0031823322
0.0032180009
0.003251046
0.0032816277
0.0033098955
0.0033359885
0.0033600373
0.0033821634
0.0034024812
0.0034210972
0.0034381137
0.0034536203
0.0034677198
0.003480461
0.0034920262
0.0035022235
0.0035119033
0.0035191085
0.0035300201
0.00014281276
0.00014273153
0.00014264719
0.00014256006
0.00014247031
0.00014237806
0.00014228335
0.00014218621
0.00014208661
0.00014198442
0.0001418794
0.00014177119
0.00014165931
0.00014154317
0.00014142209
0.00014129533
0.00014116206
0.00014102142
0.00014087252
0.00014071444
0.00014054626
0.000140367
0.00014017569
0.00013997132
0.0001397529
0.00013951947
0.00013927008
0.00013900388
0.00013872005
0.00013841792
0.00013809701
0.00013775711
0.00013739824
0.00013702074
0.00013662528
0.00013621362
0.00013578801
0.00013535189
0.00013490629
0.00013445957
0.00013401695
0.00013359085
0.00013317417
0.00013280922
0.00013249927
0.00013227273
0.00013214547
0.00013222489
0.00013255675
0.00013333049
0.00013479335
0.00013730919
0.00014173734
0.00014930488
0.00016216287
0.00018429393
0.00022210428
0.00028221284
0.00037323219
0.000492792
0.00063640699
0.00079631853
0.00096310282
0.0011285561
0.0012876276
0.0014384036
0.0015806798
0.0017146507
0.0018404818
0.0019584082
0.002068802
0.0021720942
0.0022687029
0.0023590262
0.0024434497
0.0025223412
0.0025960459
0.0026648876
0.0027291695
0.0027891752
0.0028451692
0.0028973988
0.0029460944
0.0029914714
0.0030337309
0.0030730606
0.0031096364
0.0031436225
0.0031751727
0.0032044313
0.0032315329
0.003256606
0.0032797658
0.0033011369
0.0033207935
0.003338934
0.0033553787
0.0033711111
0.0033834765
0.0034027366
0.00014289757
0.00014281724
0.00014273391
0.00014264783
0.00014255907
0.00014246765
0.00014237352
0.00014227666
0.00014217701
0.00014207449
0.000141969
0.00014186036
0.00014174832
0.0001416326
0.00014151281
0.00014138851
0.00014125919
0.00014112428
0.00014098316
0.00014083516
0.00014067958
0.0001405157
0.00014034274
0.00014015992
0.00013996644
0.00013976147
0.00013954421
0.00013931386
0.00013906962
0.00013881077
0.00013853662
0.00013824658
0.0001379402
0.00013761717
0.00013727733
0.00013692088
0.00013654837
0.00013616096
0.00013575944
0.00013534608
0.00013492326
0.00013449579
0.00013406398
0.00013363669
0.00013322049
0.00013282324
0.00013245661
0.00013214156
0.00013189644
0.00013171088
0.0001317332
0.00013194543
0.00013248696
0.00013356122
0.0001354463
0.00013864462
0.00014411918
0.00015333858
0.0001687874
0.0001954836
0.00023904738
0.00030740318
0.00040255324
0.0005226128
0.0006624551
0.00081418012
0.00096962801
0.0011227682
0.0012704489
0.0014114957
0.0015455147
0.0016723308
0.001791941
0.0019045227
0.0020103528
0.0021097385
0.0022029989
0.0022904591
0.0023724401
0.002449252
0.0025211925
0.0025885448
0.0026515777
0.0027105447
0.0027656853
0.0028172245
0.0028653743
0.0029103337
0.0029522897
0.0029914182
0.0030278841
0.0030618438
0.0030934406
0.0031228227
0.0031500922
0.003175466
0.0031987756
0.0032211529
0.0032391817
0.0032675762
0.00014298916
0.00014290983
0.00014282759
0.00014274266
0.00014265509
0.00014256484
0.00014247185
0.00014237603
0.00014227731
0.00014217558
0.00014207075
0.00014196268
0.00014185124
0.00014173623
0.00014161746
0.00014149467
0.00014136755
0.00014123576
0.00014109888
0.00014095647
0.00014080804
0.00014065304
0.0001404909
0.00014032101
0.00014014273
0.00013995539
0.00013975832
0.00013955082
0.00013933219
0.00013910174
0.00013885879
0.00013860269
0.00013833283
0.00013804867
0.00013774973
0.00013743569
0.00013710637
0.00013676191
0.00013640248
0.0001360287
0.00013564138
0.00013524232
0.00013483253
0.00013441457
0.00013399164
0.00013356739
0.00013314635
0.00013273546
0.00013234384
0.00013197274
0.00013165413
0.00013139964
0.00013120432
0.00013118594
0.00013134207
0.00013178111
0.00013266847
0.0001342539
0.00013688557
0.00014135322
0.00014882277
0.00016130932
0.00018242193
0.00021723525
0.00027249865
0.0003519536
0.00045544383
0.00057976259
0.00071842154
0.00086384419
0.0010098462
0.00115271
0.0012906369
0.0014227591
0.0015485994
0.0016679516
0.0017808289
0.0018873727
0.001987788
0.0020823177
0.0021712266
0.0022547881
0.002333275
0.0024069557
0.0024760908
0.0025409309
0.0026017156
0.0026586733
0.0027120206
0.0027619629
0.0028086944
0.0028523996
0.0028932497
0.0029314179
0.0029670348
0.0030003381
0.0030311691
0.0030608227
0.0030850531
0.0031234295
0.00014308658
0.00014300832
0.00014292725
0.00014284355
0.00014275725
0.00014266831
0.00014257665
0.00014248216
0.00014238476
0.00014228432
0.00014218074
0.00014207389
0.00014196363
0.00014184984
0.00014173236
0.00014161102
0.00014148563
0.00014135599
0.00014122182
0.00014108284
0.00014093871
0.00014078907
0.00014063349
0.00014047153
0.00014030268
0.00014012643
0.00013994224
0.00013974952
0.00013954768
0.00013933613
0.00013911423
0.00013888138
0.00013863696
0.00013838038
0.00013811106
0.0001378285
0.00013753224
0.00013722198
0.00013689747
0.00013655868
0.0001362057
0.000135839
0.0001354591
0.00013506686
0.0001346636
0.00013425104
0.00013383127
0.00013340711
0.0001329829
0.00013256052
0.00013214868
0.00013175612
0.00013138567
0.00013106501
0.00013080444
0.00013062148
0.00013057274
0.00013070986
0.00013110829
0.00013192483
0.00013338008
0.00013581289
0.00013985527
0.0001465525
0.00015765302
0.00017618244
0.00020665616
0.00025525027
0.00032550557
0.00041849124
0.00053209231
0.00066078245
0.0007976394
0.00093676095
0.0010743409
0.0012082848
0.0013374255
0.0014610756
0.0015788832
0.0016907384
0.0017966773
0.0018968224
0.0019913524
0.0020804796
0.0021644348
0.0022434568
0.0023177864
0.0023876616
0.0024533144
0.0025149698
0.0025728436
0.0026271438
0.0026780663
0.0027258069
0.0027705236
0.0028124755
0.0028515102
0.0028891002
0.0029200976
0.0029693543
0.00014318889
0.00014311179
0.00014303194
0.00014294953
0.00014286457
0.000142777
0.00014268675
0.00014259372
0.0001424978
0.00014239888
0.00014229682
0.00014219151
0.00014208281
0.00014197059
0.00014185472
0.00014173505
0.00014161145
0.00014148376
0.0001413518
0.00014121538
0.00014107428
0.00014092823
0.00014077695
0.00014062012
0.00014045736
0.00014028829
0.00014011248
0.00013992947
0.00013973878
0.00013953991
0.00013933232
0.00013911548
0.00013888882
0.00013865178
0.00013840378
0.00013814429
0.00013787276
0.00013758871
0.00013729172
0.00013698143
0.00013665758
0.00013632008
0.00013596895
0.00013560435
0.0001352267
0.00013483665
0.00013443511
0.0001340233
0.0001336032
0.00013317629
0.00013274555
0.00013231536
0.0001318883
0.00013147299
0.00013107655
0.00013070918
0.00013038582
0.0001301257
0.00012993791
0.00012990147
0.00013004392
0.00013045746
0.00013127979
0.00013273255
0.00013514897
0.00013911637
0.00014562898
0.00015636006
0.0001741253
0.00020310528
0.00024883659
0.00031458378
0.00040191827
0.00050903506
0.00063086968
0.0007610788
0.00089425232
0.0010267821
0.0011565187
0.0012821628
0.0014029226
0.0015183653
0.001628303
0.0017327013
0.001831625
0.0019252047
0.002013612
0.0020970432
0.0021757086
0.002249825
0.00231961
0.0023852796
0.0024470436
0.0025051127
0.0025596664
0.0026109818
0.0026589077
0.0027051062
0.0027434489
0.0028045196
0.00014329523
0.00014321933
0.00014314075
0.00014305967
0.00014297609
0.00014288996
0.00014280119
0.00014270967
0.00014261532
0.000142518
0.0001424176
0.00014231399
0.00014220704
0.00014209661
0.00014198256
0.00014186478
0.00014174313
0.00014161748
0.00014148768
0.00014135359
0.00014121504
0.00014107185
0.00014092382
0.00014077069
0.00014061222
0.0001404481
0.00014027802
0.00014010163
0.00013991854
0.00013972834
0.00013953061
0.00013932489
0.00013911069
0.00013888752
0.00013865485
0.00013841216
0.00013815892
0.00013789461
0.00013761873
0.00013733082
0.00013703045
0.00013671727
0.000136391
0.00013605146
0.00013569859
0.00013533247
0.00013495336
0.00013456166
0.00013415818
0.00013374373
0.00013331955
0.0001328876
0.00013244962
0.00013200895
0.0001315694
0.00013113581
0.00013071461
0.0001303141
0.00012994334
0.00012962173
0.00012936649
0.00012920294
0.00012917733
0.00012935306
0.00012981792
0.00013071117
0.00013225857
0.00013481613
0.00013898818
0.00014579126
0.000156888
0.00017515323
0.00020471329
0.00025024384
0.00031501037
0.00040041368
0.00050438082
0.00062193866
0.00074726634
0.0008755444
0.0010035131
0.0011291217
0.00125107
0.0013685538
0.0014811165
0.0015885341
0.0016907347
0.0017877488
0.0018796749
0.0019666558
0.002048863
0.0021264849
0.0021997188
0.0022687707
0.0023338269
0.0023951722
0.0024526459
0.0025081087
0.0025543651
0.0026281932
0.00014340474
0.00014333009
0.00014325281
0.00014317311
0.00014309095
0.00014300628
0.00014291902
0.00014282908
0.00014273633
0.00014264068
0.00014254201
0.00014244018
0.00014233506
0.00014222652
0.00014211444
0.00014199868
0.00014187912
0.00014175562
0.00014162806
0.00014149631
0.00014136023
0.00014121967
0.00014107447
0.00014092444
0.00014076939
0.00014060909
0.0001404433
0.00014027175
0.00014009414
0.00013991016
0.00013971945
0.00013952165
0.00013931635
0.00013910313
0.00013888154
0.00013865111
0.00013841137
0.0001381618
0.00013790193
0.00013763126
0.00013734931
0.00013705562
0.00013674979
0.00013643145
0.00013610029
0.0001357561
0.00013539874
0.00013502821
0.00013464467
0.0001342484
0.00013383986
0.00013341985
0.00013298929
0.00013254963
0.00013210275
0.00013165112
0.00013119789
0.00013074709
0.00013030341
0.0001298747
0.00012946926
0.00012910157
0.00012878422
0.00012854074
0.00012840276
0.00012841799
0.0001286533
0.00012920781
0.00013023571
0.00013198524
0.00013483911
0.00013947673
0.00014700773
0.00015921356
0.00017912465
0.00021088332
0.00025845698
0.00032503761
0.00041127949
0.00051448224
0.00062963073
0.00075143408
0.00087570583
0.0009995972
0.0011212467
0.0012394466
0.0013534442
0.0014628019
0.0015672934
0.0016668359
0.0017614448
0.0018512016
0.0019362323
0.002016695
0.0020927502
0.0021646674
0.0022322552
0.0022975739
0.0023522672
0.0024397629
0.00014351665
0.00014344327
0.00014336733
0.00014328902
0.0001432083
0.00014312513
0.00014303941
0.00014295106
0.00014285996
0.00014276601
0.00014266909
0.00014256908
0.00014246585
0.00014235927
0.00014224922
0.00014213555
0.00014201816
0.0001418969
0.00014177166
0.00014164231
0.00014150873
0.00014137077
0.00014122829
0.00014108115
0.00014092917
0.00014077218
0.00014060999
0.00014044236
0.00014026908
0.00014008989
0.00013990452
0.00013971265
0.00013951397
0.00013930812
0.00013909473
0.0001388734
0.00013864371
0.00013840521
0.00013815745
0.00013789997
0.00013763228
0.00013735393
0.00013706446
0.00013676342
0.0001364504
0.00013612502
0.00013578697
0.00013543599
0.0001350719
0.00013469463
0.00013430422
0.00013390086
0.00013348489
0.00013305688
0.00013261768
0.00013216847
0.00013171082
0.00013124677
0.0001307788
0.00013031062
0.00012984648
0.00012939304
0.00012895715
0.00012854948
0.00012818458
0.00012787916
0.00012765757
0.00012755965
0.00012763687
0.00012796659
0.0001286599
0.00012989778
0.00013196788
0.00013531266
0.00014072922
0.00014946
0.00016361155
0.00018642671
0.00022177794
0.00027351206
0.00034411879
0.0004331475
0.00053711049
0.00065102749
0.00077020309
0.00089109274
0.001011269
0.0011291096
0.0012435549
0.0013539418
0.0014598802
0.0015611669
0.0016577288
0.0017495831
0.0018367958
0.0019195717
0.0019976478
0.0020732704
0.0021368209
0.0022387903
0.00014363022
0.00014355813
0.00014348355
0.00014340664
0.00014332739
0.00014324572
0.00014316156
0.00014307481
0.00014298538
0.00014289315
0.00014279801
0.00014269984
0.00014259853
0.00014249393
0.00014238593
0.0001422744
0.00014215921
0.00014204025
0.00014191738
0.00014179048
0.00014165943
0.00014152409
0.00014138435
0.00014124004
0.00014109103
0.00014093715
0.00014077825
0.00014061413
0.00014044461
0.00014026947
0.00014008849
0.00013990142
0.000139708
0.00013950792
0.00013930089
0.00013908656
0.00013886457
0.00013863455
0.00013839608
0.00013814877
0.00013789216
0.00013762582
0.00013734929
0.00013706213
0.00013676389
0.00013645413
0.00013613245
0.00013579845
0.00013545181
0.00013509224
0.00013471952
0.00013433353
0.00013393422
0.0001335217
0.00013309621
0.00013265822
0.00013220843
0.00013174778
0.00013127756
0.00013079958
0.00013031607
0.00012983029
0.00012934607
0.00012886853
0.00012840487
0.0001279633
0.00012755763
0.00012720094
0.0001269155
0.00012673088
0.00012669178
0.00012685867
0.00012732505
0.00012822274
0.00012977394
0.0001323131
0.0001364054
0.00014299822
0.00015359861
0.00017067506
0.0001976145
0.00023828428
0.00029612219
0.00037240923
0.00046535191
0.000570822
0.00068407823
0.00080109705
0.0009189471
0.0010356082
0.001149721
0.0012603981
0.0013670858
0.0014694601
0.0015673476
0.0016607846
0.0017493563
0.0018354527
0.0019080771
0.0020251089
0.00014374477
0.000143674
0.00014360077
0.00014352528
0.00014344748
0.00014336733
0.00014328474
0.0001431996
0.00014311184
0.00014302134
0.00014292799
0.00014283167
0.00014273228
0.00014262967
0.00014252374
0.00014241436
0.0001423014
0.00014218474
0.00014206426
0.00014193983
0.00014181134
0.00014167865
0.00014154164
0.00014140017
0.0001412541
0.00014110328
0.00014094756
0.00014078678
0.00014062076
0.00014044932
0.00014027227
0.00014008939
0.00013990046
0.00013970523
0.00013950344
0.00013929481
0.00013907902
0.00013885576
0.00013862467
0.00013838539
0.00013813753
0.0001378807
0.00013761448
0.00013733845
0.00013705216
0.00013675518
0.00013644707
0.0001361274
0.00013579576
0.00013545177
0.00013509507
0.00013472535
0.00013434236
0.00013394593
0.00013353596
0.0001331125
0.0001326757
0.00013222594
0.00013176373
0.00013128991
0.0001308056
0.00013031238
0.00012981232
0.00012930809
0.00012880339
0.00012830263
0.00012781251
0.00012734044
0.00012689645
0.00012649653
0.00012615725
0.00012590304
0.00012577447
0.00012582148
0.00012611958
0.0001267791
0.00012797118
0.0001299707
0.00013320413
0.00013839401
0.0001466913
0.00016003417
0.00018124721
0.00021393181
0.00026184345
0.00032739365
0.00041027857
0.0005074558
0.00061450666
0.00072718266
0.00084216166
0.00095706976
0.0010702721
0.001180671
0.001287546
0.0013905468
0.0014889441
0.0015851716
0.0016667124
0.0017989849
0.00014385971
0.00014379024
0.00014371837
0.00014364429
0.00014356796
0.00014348931
0.00014340828
0.00014332476
0.00014323866
0.00014314988
0.00014305832
0.00014296385
0.00014286638
0.00014276576
0.0001426619
0.00014255466
0.00014244392
0.00014232956
0.00014221147
0.00014208952
0.00014196359
0.00014183355
0.00014169928
0.00014156064
0.0001414175
0.00014126971
0.00014111714
0.00014095962
0.00014079699
0.00014062909
0.00014045574
0.00014027676
0.00014009193
0.00013990105
0.00013970389
0.00013950019
0.0001392897
0.00013907212
0.00013884716
0.00013861451
0.00013837382
0.00013812474
0.0001378669
0.00013759992
0.00013732337
0.00013703687
0.00013673996
0.00013643224
0.00013611327
0.00013578262
0.00013543988
0.00013508466
0.00013471659
0.00013433533
0.00013394063
0.00013353225
0.00013311007
0.00013267408
0.00013222435
0.00013176117
0.00013128496
0.00013079643
0.0001302966
0.00012978682
0.000129269
0.00012874552
0.00012821982
0.00012769608
0.00012717955
0.00012667813
0.00012620074
0.00012576131
0.00012537471
0.00012506433
0.00012486181
0.00012481469
0.00012498528
0.00012546892
0.00012640537
0.00012802118
0.0001306587
0.00013490087
0.0001416712
0.00015252238
0.00016981564
0.00019679687
0.00023721066
0.0002941045
0.00036831301
0.00045786488
0.00055887457
0.0006670893
0.00077893149
0.00089174142
0.0010036339
0.0011134215
0.0012197276
0.0013248119
0.0014144355
0.0015613911
0.00014397447
0.0001439063
0.00014383579
0.0001437631
0.00014368822
0.00014361108
0.00014353159
0.00014344967
0.00014336523
0.00014327816
0.00014318837
0.00014309574
0.00014300017
0.00014290153
0.00014279972
0.0001426946
0.00014258607
0.00014247401
0.00014235829
0.0001422388
0.00014211541
0.00014198801
0.00014185646
0.00014172064
0.00014158041
0.00014143563
0.00014128617
0.00014113187
0.00014097259
0.00014080815
0.0001406384
0.00014046316
0.00014028224
0.00014009544
0.00013990257
0.00013970338
0.00013949766
0.00013928514
0.00013906557
0.00013883865
0.0001386041
0.0001383616
0.00013811082
0.00013785141
0.00013758301
0.00013730524
0.0001370177
0.00013671998
0.00013641168
0.00013609237
0.00013576161
0.00013541899
0.0001350641
0.00013469652
0.00013431589
0.00013392186
0.00013351413
0.00013309245
0.00013265666
0.00013220668
0.00013174256
0.00013126448
0.00013077281
0.00013026816
0.00012975142
0.0001292238
0.00012868706
0.0001281435
0.00012759598
0.00012704863
0.00012650641
0.00012597652
0.00012546728
0.00012499007
0.00012456171
0.00012420168
0.00012393797
0.00012381415
0.00012388492
0.0001242338
0.00012498074
0.00012631572
0.00012853112
0.00013211032
0.00013783296
0.00014698158
0.00016156795
0.00018449364
0.00021934824
0.00026948065
0.00033651795
0.00041940824
0.00051486636
0.00061878921
0.00072745469
0.00083810316
0.00094808584
0.0010590474
0.0011546967
0.0013144672
0.00014408856
0.00014402168
0.00014395251
0.00014388121
0.00014380776
0.00014373209
0.00014365414
0.0001435738
0.00014349099
0.00014340562
0.00014331758
0.00014322677
0.00014313308
0.0001430364
0.00014293661
0.0001428336
0.00014272725
0.00014261745
0.00014250407
0.00014238701
0.00014226614
0.00014214134
0.00014201248
0.00014187945
0.0001417421
0.00014160031
0.00014145393
0.00014130281
0.00014114682
0.00014098579
0.00014081957
0.00014064798
0.00014047085
0.000140288
0.00014009922
0.00013990432
0.00013970307
0.00013949525
0.00013928061
0.0001390589
0.00013882986
0.00013859319
0.00013834861
0.00013809579
0.00013783442
0.00013756415
0.00013728462
0.00013699545
0.00013669626
0.00013638664
0.00013606618
0.00013573446
0.00013539106
0.00013503555
0.00013466752
0.00013428655
0.00013389227
0.00013348431
0.00013306234
0.00013262611
0.00013217542
0.00013171013
0.00013123026
0.00013073593
0.00013022744
0.00012970532
0.00012917035
0.00012862371
0.00012806692
0.00012750214
0.00012693212
0.00012636072
0.00012579271
0.00012523419
0.00012469391
0.00012418237
0.00012371524
0.00012331038
0.0001229939
0.00012280529
0.00012279507
0.00012303645
0.00012363782
0.00012476577
0.00012667774
0.0001297898
0.00013477812
0.00014274311
0.00015544447
0.00017549299
0.00020628364
0.0002512682
0.00031258694
0.00038991062
0.00048049827
0.00058060495
0.00068583003
0.00079656658
0.00089395486
0.0010623233
0.00014420154
0.00014413594
0.00014406809
0.00014399815
0.00014392611
0.00014385191
0.00014377546
0.00014369668
0.00014361548
0.00014353178
0.00014344546
0.00014335644
0.0001432646
0.00014316984
0.00014307205
0.0001429711
0.0001428669
0.00014275932
0.00014264825
0.00014253358
0.00014241519
0.00014229295
0.00014216675
0.00014203646
0.00014190195
0.00014176309
0.00014161974
0.00014147177
0.00014131902
0.00014116134
0.00014099858
0.00014083058
0.00014065716
0.00014047815
0.00014029336
0.0001401026
0.00013990565
0.00013970231
0.00013949234
0.00013927551
0.00013905158
0.00013882029
0.00013858136
0.00013833451
0.00013807944
0.00013781583
0.00013754337
0.0001372617
0.00013697047
0.0001366693
0.00013635781
0.00013603559
0.00013570225
0.00013535735
0.00013500047
0.0001346312
0.0001342491
0.00013385376
0.00013344479
0.00013302182
0.00013258451
0.00013213256
0.00013166574
0.00013118392
0.00013068703
0.00013017517