/*--------------------------------*- C++ -*----------------------------------*\
  =========                 |
  \\      /  F ield         | OpenFOAM: The Open Source CFD Toolbox
   \\    /   O peration     | Website:  https://openfoam.org
    \\  /    A nd           | Version:  12
     \\/     M anipulation  |
\*---------------------------------------------------------------------------*/
FoamFile
{
    format      ascii;
    class       volScalarField;
    location    "400";
    object      nut;
}
// * * * * * * * * * * * * * * * * * * * * * * * * * * * * * * * * * * * * * //

dimensions      [0 2 -1 0 0 0 0];

internalField   nonuniform List<scalar> 
7480
(
1.2419117e-06
1.4974075e-06
1.8168355e-06
2.1901926e-06
2.6158942e-06
3.0906566e-06
3.6069283e-06
4.1522621e-06
4.7098303e-06
5.2594531e-06
5.7795069e-06
6.2507264e-06
6.6582943e-06
6.9932426e-06
7.2525333e-06
7.4394995e-06
7.5563598e-06
7.6368901e-06
7.6347525e-06
7.6136829e-06
7.5659321e-06
7.4988257e-06
7.4192665e-06
7.3332753e-06
7.2460682e-06
7.1621838e-06
7.0855465e-06
7.0193693e-06
6.9660356e-06
6.9267286e-06
6.900908e-06
6.8861175e-06
6.8783584e-06
6.8731369e-06
6.8667723e-06
6.8572224e-06
6.8441195e-06
6.8282068e-06
6.8105546e-06
6.7919671e-06
6.7727921e-06
6.7530614e-06
6.7327544e-06
6.7119751e-06
6.6909523e-06
6.6699315e-06
6.6490762e-06
6.6284472e-06
6.6080495e-06
6.5878816e-06
6.5679516e-06
6.5482646e-06
6.5288233e-06
6.5096238e-06
6.4906596e-06
6.4719259e-06
6.4534189e-06
6.4351321e-06
6.4170585e-06
6.3991973e-06
6.381543e-06
6.3640857e-06
6.3468173e-06
6.3297325e-06
6.3128267e-06
6.2960961e-06
6.279537e-06
6.263145e-06
6.246916e-06
6.2308463e-06
6.2149316e-06
6.1991682e-06
6.1835531e-06
6.1680824e-06
6.1527526e-06
6.1375605e-06
6.1225032e-06
6.1075774e-06
6.0927803e-06
6.0781091e-06
6.0635609e-06
6.049133e-06
6.0348227e-06
6.0206275e-06
6.0065448e-06
5.992572e-06
5.9787065e-06
5.9649455e-06
5.9512863e-06
5.9377254e-06
5.9242603e-06
5.9108849e-06
5.8976004e-06
5.8843832e-06
5.8712676e-06
5.8581205e-06
5.8452168e-06
5.8316841e-06
5.8201305e-06
5.7989587e-06
2.1346626e-05
1.1272972e-05
7.0845987e-06
4.7634771e-06
3.3094426e-06
2.3664776e-06
1.7640527e-06
1.3974482e-06
1.1938799e-06
1.1055868e-06
1.1062235e-06
1.1699514e-06
1.2763596e-06
1.4154588e-06
1.5792559e-06
1.7609388e-06
1.9567932e-06
2.1641852e-06
2.3887571e-06
2.6395777e-06
2.9327917e-06
3.3015804e-06
3.770704e-06
4.3074691e-06
4.9092785e-06
5.5804608e-06
6.3192653e-06
7.1253276e-06
7.9846203e-06
8.863381e-06
9.7177541e-06
1.0503476e-05
1.1184455e-05
1.1747425e-05
1.2205344e-05
1.2584764e-05
1.2912726e-05
1.3207354e-05
1.3474841e-05
1.3713544e-05
1.392101e-05
1.4098659e-05
1.4252362e-05
1.438956e-05
1.451587e-05
1.4633905e-05
1.474401e-05
1.4845896e-05
1.494001e-05
1.502743e-05
1.5109132e-05
1.5185674e-05
1.5257268e-05
1.5324112e-05
1.5386527e-05
1.5444839e-05
1.5499269e-05
1.5549973e-05
1.559716e-05
1.5641138e-05
1.5681925e-05
1.5719598e-05
1.5754295e-05
1.5786158e-05
1.5815325e-05
1.5841925e-05
1.5866066e-05
1.5887858e-05
1.5907405e-05
1.5924799e-05
1.5940138e-05
1.5953516e-05
1.5965009e-05
1.5974708e-05
1.5982698e-05
1.598906e-05
1.599387e-05
1.5997199e-05
1.5999115e-05
1.5999683e-05
1.5998968e-05
1.5997029e-05
1.5993925e-05
1.5989712e-05
1.5984442e-05
1.5978166e-05
1.5970931e-05
1.5962784e-05
1.5953768e-05
1.5943922e-05
1.5933287e-05
1.5921914e-05
1.5909813e-05
1.5897092e-05
1.5883605e-05
1.5869834e-05
1.5854811e-05
1.5840128e-05
1.5825766e-05
1.579756e-05
6.9411774e-05
5.1152461e-05
3.7736035e-05
2.843792e-05
2.1711308e-05
1.6641007e-05
1.2743914e-05
9.7490404e-06
7.4737569e-06
5.7684937e-06
4.5031105e-06
3.5640694e-06
2.862416e-06
2.3354567e-06
1.9387469e-06
1.639217e-06
1.4141261e-06
1.2442301e-06
1.1177689e-06
1.0257774e-06
9.6178078e-07
9.2408882e-07
9.0608218e-07
9.4807231e-07
1.0618301e-06
1.2522184e-06
1.5322468e-06
1.8927294e-06
2.3500813e-06
2.9501238e-06
3.7808886e-06
4.8179576e-06
6.0093309e-06
7.3012321e-06
8.6449968e-06
9.9694822e-06
1.1205253e-05
1.2306823e-05
1.3261389e-05
1.4085405e-05
1.4811971e-05
1.547415e-05
1.6093204e-05
1.6675624e-05
1.721892e-05
1.7719762e-05
1.8179449e-05
1.8604242e-05
1.9001252e-05
1.9375276e-05
1.972832e-05
2.006121e-05
2.0375116e-05
2.06718e-05
2.095298e-05
2.1219867e-05
2.1473286e-05
2.1713991e-05
2.1942729e-05
2.2160019e-05
2.2366582e-05
2.2563022e-05
2.2749864e-05
2.2927579e-05
2.3096587e-05
2.3257273e-05
2.3409991e-05
2.355507e-05
2.3692824e-05
2.3823542e-05
2.3947504e-05
2.4064978e-05
2.4176215e-05
2.4281458e-05
2.4380944e-05
2.4474898e-05
2.4563538e-05
2.4647069e-05
2.4725692e-05
2.4799598e-05
2.4868972e-05
2.4933993e-05
2.4994833e-05
2.5051656e-05
2.5104623e-05
2.5153885e-05
2.519959e-05
2.5241879e-05
2.5280886e-05
2.531676e-05
2.5349618e-05
2.5379594e-05
2.540676e-05
2.5431362e-05
2.5453195e-05
2.5473199e-05
2.5489542e-05
2.5506701e-05
2.5515965e-05
2.5532233e-05
8.4305796e-05
7.8393804e-05
7.0338693e-05
6.1874357e-05
5.3872012e-05
4.6610128e-05
4.0123425e-05
3.4382718e-05
2.935454e-05
2.5005619e-05
2.1293519e-05
1.8158351e-05
1.5527729e-05
1.3328947e-05
1.1495934e-05
9.9692327e-06
8.6988993e-06
7.6396909e-06
6.7542749e-06
6.0101153e-06
5.3793623e-06
4.836542e-06
4.3589217e-06
3.9298126e-06
3.5368601e-06
3.1714708e-06
2.8314721e-06
2.509706e-06
2.2131812e-06
1.9553952e-06
1.751769e-06
1.6294791e-06
1.6911364e-06
1.9697992e-06
2.4291375e-06
3.1046383e-06
4.0768137e-06
5.3598969e-06
6.8352327e-06
8.42008e-06
1.0030665e-05
1.1575771e-05
1.2993011e-05
1.4260418e-05
1.5392954e-05
1.6425622e-05
1.7392129e-05
1.8311258e-05
1.9185994e-05
2.0012299e-05
2.0788363e-05
2.1517988e-05
2.2207914e-05
2.286372e-05
2.3488259e-05
2.4082899e-05
2.4649199e-05
2.5189254e-05
2.570507e-05
2.619808e-05
2.6669461e-05
2.7120369e-05
2.7551932e-05
2.7965147e-05
2.8360881e-05
2.8739924e-05
2.9103009e-05
2.945081e-05
2.9783948e-05
3.0103002e-05
3.0408519e-05
3.0701015e-05
3.0980975e-05
3.124886e-05
3.1505111e-05
3.175015e-05
3.1984379e-05
3.2208186e-05
3.2421941e-05
3.2626002e-05
3.2820714e-05
3.300641e-05
3.3183412e-05
3.3352028e-05
3.3512558e-05
3.3665289e-05
3.38105e-05
3.3948459e-05
3.4079426e-05
3.4203663e-05
3.4321407e-05
3.4432916e-05
3.4538359e-05
3.4638126e-05
3.4732017e-05
3.4821369e-05
3.4903509e-05
3.4986542e-05
3.5047565e-05
3.5157268e-05
8.6820163e-05
8.5547904e-05
8.3098899e-05
7.9555606e-05
7.5217412e-05
7.0405207e-05
6.5372824e-05
6.029989e-05
5.5313509e-05
5.0508267e-05
4.5956305e-05
4.1708736e-05
3.7795121e-05
3.4226181e-05
3.0998973e-05
2.8100161e-05
2.5510421e-05
2.3205899e-05
2.11599e-05
1.9345634e-05
1.7736768e-05
1.6306566e-05
1.5029076e-05
1.387917e-05
1.2833162e-05
1.1868224e-05
1.0962741e-05
1.0094912e-05
9.2411022e-06
8.3919236e-06
7.506777e-06
6.6269552e-06
5.7284357e-06
4.8790027e-06
4.1013158e-06
3.4388373e-06
2.9262808e-06
2.5878299e-06
2.5859747e-06
2.8815076e-06
3.470241e-06
4.4052979e-06
5.7363623e-06
7.320245e-06
9.0560438e-06
1.083711e-05
1.2562703e-05
1.4170874e-05
1.5645928e-05
1.70077e-05
1.8288599e-05
1.9512712e-05
2.0687854e-05
2.1811433e-05
2.2880729e-05
2.3898147e-05
2.486942e-05
2.5799544e-05
2.6691204e-05
2.7545933e-05
2.8365538e-05
2.9152181e-05
2.9907803e-05
3.0633943e-05
3.133195e-05
3.2003131e-05
3.2648698e-05
3.3269734e-05
3.3867227e-05
3.4442101e-05
3.4995219e-05
3.5527387e-05
3.6039357e-05
3.6531842e-05
3.7005513e-05
3.7461012e-05
3.7898948e-05
3.8319905e-05
3.8724445e-05
3.9113106e-05
3.9486408e-05
3.9844852e-05
4.0188923e-05
4.0519088e-05
4.0835798e-05
4.1139491e-05
4.1430589e-05
4.1709505e-05
4.1976634e-05
4.2232371e-05
4.2477087e-05
4.2711173e-05
4.2934916e-05
4.3148856e-05
4.3352826e-05
4.354857e-05
4.3732399e-05
4.391727e-05
4.4059769e-05
4.4314976e-05
8.762958e-05
8.7260648e-05
8.6585773e-05
8.5466552e-05
8.3835194e-05
8.1698294e-05
7.9112698e-05
7.6158681e-05
7.2922603e-05
6.9488451e-05
6.5934595e-05
6.2332677e-05
5.8745832e-05
5.5227105e-05
5.1818554e-05
4.8552269e-05
4.5451561e-05
4.2530956e-05
3.9797738e-05
3.725319e-05
3.4893986e-05
3.271278e-05
3.0699148e-05
2.8839976e-05
2.7120049e-05
2.5522792e-05
2.4029867e-05
2.2621752e-05
2.1277463e-05
1.9980717e-05
1.8705887e-05
1.7431569e-05
1.6131076e-05
1.4795943e-05
1.3401255e-05
1.1975348e-05
1.0501088e-05
9.0100718e-06
7.5860729e-06
6.2910781e-06
5.1848472e-06
4.3326853e-06
3.7407943e-06
3.5955196e-06
3.8310484e-06
4.4568022e-06
5.5366402e-06
7.0195764e-06
8.7546842e-06
1.0635449e-05
1.2539971e-05
1.4379625e-05
1.6113521e-05
1.7744161e-05
1.9295544e-05
2.0788982e-05
2.2231788e-05
2.362146e-05
2.4955545e-05
2.6236238e-05
2.74682e-05
2.8655062e-05
2.979877e-05
3.0900888e-05
3.1963344e-05
3.2988115e-05
3.3976859e-05
3.4931e-05
3.5851898e-05
3.6740841e-05
3.7599012e-05
3.84275e-05
3.9227331e-05
3.9999468e-05
4.0744814e-05
4.1464229e-05
4.2158527e-05
4.2828488e-05
4.3474856e-05
4.4098349e-05
4.4699656e-05
4.5279442e-05
4.5838352e-05
4.6377004e-05
4.6896003e-05
4.7395929e-05
4.7877351e-05
4.8340818e-05
4.8786867e-05
4.9216025e-05
4.9628795e-05
5.0025704e-05
5.040716e-05
5.0773855e-05
5.1125661e-05
5.1464761e-05
5.1786219e-05
5.2109127e-05
5.2363526e-05
5.2816821e-05
8.838055e-05
8.8139723e-05
8.7837859e-05
8.7420384e-05
8.682509e-05
8.5998987e-05
8.4907529e-05
8.3536661e-05
8.1889858e-05
7.9984358e-05
7.7847858e-05
7.5514922e-05
7.3024164e-05
7.0415778e-05
6.7729308e-05
6.500204e-05
6.2267935e-05
5.9556754e-05
5.6893667e-05
5.4299073e-05
5.1788809e-05
4.9374428e-05
4.706357e-05
4.4860287e-05
4.2765243e-05
4.0775099e-05
3.8884316e-05
3.708493e-05
3.5366244e-05
3.371648e-05
3.2121115e-05
3.0562832e-05
2.9020412e-05
2.747425e-05
2.5903249e-05
2.4292967e-05
2.2626399e-05
2.0886559e-05
1.9050342e-05
1.716373e-05
1.5197932e-05
1.3218834e-05
1.1260604e-05
9.4339446e-06
7.7945238e-06
6.4391996e-06
5.4110074e-06
4.8139787e-06
4.7467367e-06
5.136942e-06
6.0383203e-06
7.4360873e-06
9.1618319e-06
1.110369e-05
1.3128785e-05
1.5134002e-05
1.706537e-05
1.891514e-05
2.0698998e-05
2.2430996e-05
2.4113523e-05
2.5742762e-05
2.7317055e-05
2.8838756e-05
3.0311143e-05
3.1736274e-05
3.3115466e-05
3.4450235e-05
3.5742294e-05
3.699319e-05
3.8204277e-05
3.9376849e-05
4.0512149e-05
4.1611336e-05
4.26755e-05
4.3705676e-05
4.4702852e-05
4.5667967e-05
4.6601925e-05
4.7505592e-05
4.8379802e-05
4.9225362e-05
5.0043051e-05
5.0833622e-05
5.1597808e-05
5.2336321e-05
5.3049853e-05
5.3739082e-05
5.4404665e-05
5.5047253e-05
5.5667471e-05
5.6265968e-05
5.684327e-05
5.7400205e-05
5.7936685e-05
5.8455355e-05
5.8949817e-05
5.9446455e-05
5.9843296e-05
6.0546878e-05
8.9257361e-05
8.9028346e-05
8.8784568e-05
8.8516201e-05
8.8202226e-05
8.7815229e-05
8.7325867e-05
8.6706913e-05
8.5936135e-05
8.4997939e-05
8.3884095e-05
8.2593661e-05
8.113238e-05
7.951176e-05
7.7747887e-05
7.5860167e-05
7.3870094e-05
7.1800101e-05
6.9672577e-05
6.7508987e-05
6.5329252e-05
6.3151334e-05
6.0990975e-05
5.8861509e-05
5.677376e-05
5.4735701e-05
5.2752655e-05
5.082742e-05
4.8960209e-05
4.7148936e-05
4.5389274e-05
4.3674573e-05
4.1995343e-05
4.034018e-05
3.869596e-05
3.7049412e-05
3.5372699e-05
3.3647786e-05
3.1854217e-05
2.9985669e-05
2.8019773e-05
2.5958794e-05
2.3770836e-05
2.153432e-05
1.9192424e-05
1.6826903e-05
1.4478364e-05
1.2228952e-05
1.0188739e-05
8.4428012e-06
7.0790305e-06
6.1836075e-06
5.9150815e-06
6.1803033e-06
7.0423073e-06
8.4381269e-06
1.0213624e-05
1.2240635e-05
1.4381105e-05
1.6527754e-05
1.862637e-05
2.0667794e-05
2.2660642e-05
2.4609318e-05
2.651026e-05
2.8359139e-05
3.015544e-05
3.1900921e-05
3.3597029e-05
3.5244615e-05
3.6844684e-05
3.8398504e-05
3.9907301e-05
4.1372205e-05
4.2794326e-05
4.4174759e-05
4.5514556e-05
4.6814728e-05
4.807626e-05
4.9300101e-05
5.0487174e-05
5.1638372e-05
5.2754564e-05
5.3836595e-05
5.4885288e-05
5.5901448e-05
5.6885863e-05
5.7839304e-05
5.8762527e-05
5.9656278e-05
6.0521281e-05
6.1358286e-05
6.2167916e-05
6.295112e-05
6.3707834e-05
6.4441177e-05
6.5143099e-05
6.5848275e-05
6.6417808e-05
6.7423046e-05
9.0265005e-05
9.0035474e-05
8.9797599e-05
8.9553107e-05
8.9297789e-05
8.9023282e-05
8.8717728e-05
8.8366666e-05
8.7954237e-05
8.7464503e-05
8.6882722e-05
8.6196407e-05
8.5396125e-05
8.4475994e-05
8.3433874e-05
8.2271302e-05
8.0993184e-05
7.9607343e-05
7.8123962e-05
7.6554948e-05
7.4913306e-05
7.3212582e-05
7.1466373e-05
6.9687877e-05
6.7889518e-05
6.6082569e-05
6.4276875e-05
6.2480679e-05
6.070045e-05
5.8940799e-05
5.7204468e-05
5.5492338e-05
5.380323e-05
5.2133998e-05
5.0479504e-05
4.8833764e-05
4.7185388e-05
4.5521443e-05
4.382732e-05
4.2090465e-05
4.0296425e-05
3.8426944e-05
3.6452454e-05
3.4376608e-05
3.218011e-05
2.9859544e-05
2.7409145e-05
2.4866057e-05
2.2232637e-05
1.9561083e-05
1.6911127e-05
1.4359025e-05
1.2036821e-05
1.0045251e-05
8.4726353e-06
7.4834986e-06
7.1603361e-06
7.4666038e-06
8.4518625e-06
9.9575843e-06
1.186828e-05
1.4033154e-05
1.6308947e-05
1.8598399e-05
2.0859933e-05
2.3086639e-05
2.5278545e-05
2.7430631e-05
2.9536303e-05
3.1592366e-05
3.3598539e-05
3.5555024e-05
3.7461853e-05
3.9319364e-05
4.1128242e-05
4.288926e-05
4.4603209e-05
4.6270936e-05
4.7893314e-05
4.9471221e-05
5.1005531e-05
5.2497118e-05
5.3946844e-05
5.5355564e-05
5.6724121e-05
5.8053352e-05
5.9344081e-05
6.0597126e-05
6.1813291e-05
6.2993381e-05
6.4138177e-05
6.5248497e-05
6.6325032e-05
6.7368817e-05
6.8379794e-05
6.936155e-05
7.030422e-05
7.1251617e-05
7.2023489e-05
7.3380616e-05
9.139701e-05
9.1166217e-05
9.0927683e-05
9.0685226e-05
9.0438855e-05
9.0186779e-05
8.992561e-05
8.9650275e-05
8.9354026e-05
8.9028649e-05
8.8664855e-05
8.8252811e-05
8.7782723e-05
8.7245439e-05
8.6632983e-05
8.5939e-05
8.5159068e-05
8.4290874e-05
8.3334256e-05
8.2291108e-05
8.1165189e-05
7.9961859e-05
7.8687787e-05
7.7350616e-05
7.5958616e-05
7.4520342e-05
7.30443e-05
7.1538646e-05
7.0010914e-05
6.8467778e-05
6.6914888e-05
6.5356769e-05
6.3796672e-05
6.2236505e-05
6.0676694e-05
5.9116551e-05
5.755321e-05
5.5981605e-05
5.4394512e-05
5.2783631e-05
5.1139543e-05
4.9451122e-05
4.770123e-05
4.5877886e-05
4.3967033e-05
4.1956895e-05
3.9830518e-05
3.7572175e-05
3.5173898e-05
3.2614041e-05
2.9944185e-05
2.7147402e-05
2.4264655e-05
2.1352099e-05
1.8460102e-05
1.5703926e-05
1.3211994e-05
1.1119712e-05
9.5105136e-06
8.6592803e-06
8.4785174e-06
9.0436255e-06
1.0268665e-05
1.2019915e-05
1.4151797e-05
1.6499741e-05
1.8933514e-05
2.1381905e-05
2.3819199e-05
2.6236244e-05
2.8623703e-05
3.0972095e-05
3.3275639e-05
3.5531862e-05
3.7739378e-05
3.9897167e-05
4.2004779e-05
4.4062226e-05
4.6069737e-05
4.8027693e-05
4.9936605e-05
5.1797066e-05
5.3609728e-05
5.5375284e-05
5.7094458e-05
5.8767995e-05
6.0396659e-05
6.1981222e-05
6.3522465e-05
6.502118e-05
6.6478149e-05
6.7894199e-05
6.9270048e-05
7.0606765e-05
7.1904271e-05
7.316659e-05
7.4381909e-05
7.5603885e-05
7.6606876e-05
7.836473e-05
9.2647967e-05
9.2415839e-05
9.2175971e-05
9.1932476e-05
9.1686138e-05
9.1436742e-05
9.1183498e-05
9.0924996e-05
9.0659061e-05
9.0382631e-05
9.0091705e-05
8.9781383e-05
8.9445998e-05
8.9079326e-05
8.8674861e-05
8.8226131e-05
8.7727018e-05
8.7172061e-05
8.6556721e-05
8.5877576e-05
8.5132453e-05
8.4320483e-05
8.3442093e-05
8.2498936e-05
8.1493757e-05
8.0430225e-05
7.9312727e-05
7.8146151e-05
7.6935651e-05
7.5686419e-05
7.4403484e-05
7.3091551e-05
7.1754837e-05
7.0396956e-05
6.9020765e-05
6.7628363e-05
6.6220811e-05
6.4797855e-05
6.3357669e-05
6.1896991e-05
6.0411224e-05
5.8894573e-05
5.7338358e-05
5.5733132e-05
5.406827e-05
5.2333004e-05
5.0514773e-05
4.8598688e-05
4.6571457e-05
4.4416294e-05
4.2135824e-05
3.9701786e-05
3.7090225e-05
3.4347852e-05
3.1442165e-05
2.8413408e-05
2.5305011e-05
2.2185547e-05
1.9111335e-05
1.6258127e-05
1.3751464e-05
1.1706552e-05
1.0374079e-05
9.8031156e-06
1.002864e-05
1.1011245e-05
1.2622795e-05
1.4721249e-05
1.7125591e-05
1.9682448e-05
2.2298635e-05
2.4931875e-05
2.7562399e-05
3.0174859e-05
3.2756356e-05
3.5298609e-05
3.7796958e-05
4.0248315e-05
4.2650506e-05
4.5002213e-05
4.7302716e-05
4.9551662e-05
5.1748977e-05
5.3894799e-05
5.5989421e-05
5.803325e-05
6.0026781e-05
6.1970578e-05
6.3865256e-05
6.5711474e-05
6.7509917e-05
6.9261333e-05
7.0966388e-05
7.2626119e-05
7.4240372e-05
7.5813558e-05
7.7331794e-05
7.8859173e-05
8.0120939e-05
8.2326689e-05
9.4012918e-05
9.3779318e-05
9.3537944e-05
9.3292961e-05
9.304526e-05
9.2794916e-05
9.2541734e-05
9.2285331e-05
9.202508e-05
9.1760027e-05
9.1488792e-05
9.1209496e-05
9.0919702e-05
9.061641e-05
9.0296079e-05
8.9954714e-05
8.9587988e-05
8.9191395e-05
8.8760439e-05
8.8290818e-05
8.7778607e-05
8.722042e-05
8.6613543e-05
8.595603e-05
8.524675e-05
8.4485393e-05
8.3672437e-05
8.2809074e-05
8.1897109e-05
8.0938829e-05
7.9936873e-05
7.8894104e-05
7.7813479e-05
7.6697934e-05
7.5550269e-05
7.4373038e-05
7.3168415e-05
7.1937999e-05
7.0682579e-05
6.9402001e-05
6.8095076e-05
6.6759648e-05
6.5392047e-05
6.3987273e-05
6.2538994e-05
6.1039864e-05
5.9481379e-05
5.7853245e-05
5.6144444e-05
5.4341259e-05
5.2435297e-05
5.0411412e-05
4.8250293e-05
4.5949465e-05
4.3494148e-05
4.086387e-05
3.8058523e-05
3.5082848e-05
3.1942713e-05
2.86917e-05
2.5392778e-05
2.2100241e-05
1.896446e-05
1.614616e-05
1.3779919e-05
1.2110696e-05
1.1254961e-05
1.1250679e-05
1.206901e-05
1.3604302e-05
1.5708209e-05
1.8185299e-05
2.0867731e-05
2.3648871e-05
2.6474252e-05
2.9314304e-05
3.2147445e-05
3.4957396e-05
3.7733561e-05
4.0469219e-05
4.3159675e-05
4.5801642e-05
4.8392941e-05
5.0932136e-05
5.3418316e-05
5.5850966e-05
5.8229863e-05
6.0555005e-05
6.2826557e-05
6.5044818e-05
6.7210187e-05
6.9323175e-05
7.1384269e-05
7.3394353e-05
7.535312e-05
7.7265278e-05
7.9114741e-05
8.0976544e-05
8.2523326e-05
8.5222151e-05
9.5486964e-05
9.5251723e-05
9.5008671e-05
9.476201e-05
9.4512643e-05
9.4260687e-05
9.4006055e-05
9.3748586e-05
9.348806e-05
9.3224164e-05
9.2956454e-05
9.26843e-05
9.2406835e-05
9.2122894e-05
9.1830975e-05
9.1529208e-05
9.121535e-05
9.0886811e-05
9.0540699e-05
9.0173901e-05
8.9783177e-05
8.9365274e-05
8.8917043e-05
8.8435551e-05
8.7918187e-05
8.7362745e-05
8.6767482e-05
8.6131154e-05
8.5453029e-05
8.4732859e-05
8.397085e-05
8.3167614e-05
8.2324107e-05
8.1441568e-05
8.052145e-05
7.9565338e-05
7.857485e-05
7.7551523e-05
7.6496649e-05
7.5411127e-05
7.4295321e-05
7.3149002e-05
7.1971133e-05
7.0759755e-05
6.9511876e-05
6.822348e-05
6.6889539e-05
6.550374e-05
6.4058719e-05
6.2545149e-05
6.0954186e-05
5.9275457e-05
5.7495146e-05
5.5602374e-05
5.3584538e-05
5.1427543e-05
4.9115402e-05
4.6635537e-05
4.3969084e-05
4.1127856e-05
3.8089383e-05
3.4865972e-05
3.149038e-05
2.8037327e-05
2.4570111e-05
2.1227755e-05
1.8189861e-05
1.5598302e-05
1.3732412e-05
1.2707561e-05
1.2593662e-05
1.3352932e-05
1.4906423e-05
1.7082527e-05
1.9672832e-05
2.2503069e-05
2.5461199e-05
2.8485324e-05
3.1538208e-05
3.4593169e-05
3.7631253e-05
4.0639942e-05
4.3610765e-05
4.6537707e-05
4.941654e-05
5.2244317e-05
5.5018981e-05
5.773913e-05
6.0403846e-05
6.3012577e-05
6.5565049e-05
6.806123e-05
7.0501186e-05
7.2885443e-05
7.5213378e-05
7.7489859e-05
7.9696428e-05
8.1919475e-05
8.3775713e-05
8.7010368e-05
9.7065182e-05
9.6828116e-05
9.6583198e-05
9.6334673e-05
9.608345e-05
9.582965e-05
9.5573201e-05
9.5313985e-05
9.5051865e-05
9.4786685e-05
9.4518262e-05
9.4246371e-05
9.3970713e-05
9.3690886e-05
9.3406351e-05
9.3116385e-05
9.2820054e-05
9.2516178e-05
9.2203319e-05
9.1879779e-05
9.1543616e-05
9.1192678e-05
9.0824655e-05
9.0437136e-05
9.0027684e-05
8.9593905e-05
8.9133516e-05
8.8644415e-05
8.8124728e-05
8.757285e-05
8.6987473e-05
8.6367606e-05
8.5712573e-05
8.5022015e-05
8.4295873e-05
8.3534359e-05
8.2737912e-05
8.1907131e-05
8.104269e-05
8.0145237e-05
7.9215285e-05
7.825312e-05
7.7258686e-05
7.6231454e-05
7.5170294e-05
7.4073377e-05
7.2938124e-05
7.1761063e-05
7.0537845e-05
6.9262818e-05
6.7929575e-05
6.653086e-05
6.5057506e-05
6.349987e-05
6.1847345e-05
6.0088277e-05
5.8209061e-05
5.6195094e-05
5.4032425e-05
5.1707946e-05
4.9203491e-05
4.6503295e-05
4.3607695e-05
4.0502444e-05
3.7192273e-05
3.3707766e-05
3.0121222e-05
2.6504638e-05
2.3011398e-05
1.9822495e-05
1.7099988e-05
1.5171418e-05
1.4104961e-05
1.400452e-05
1.4836084e-05
1.6515775e-05
1.8841911e-05
2.1597425e-05
2.4608948e-05
2.7765539e-05
3.1001936e-05
3.427595e-05
3.7557752e-05
4.0826789e-05
4.4069163e-05
4.7275133e-05
5.0437742e-05
5.3552026e-05
5.6614424e-05
5.9622385e-05
6.2574102e-05
6.5468345e-05
6.830425e-05
7.1081585e-05
7.3799108e-05
7.6461586e-05
7.9047934e-05
8.1656214e-05
8.3843997e-05
8.7654169e-05
9.8742594e-05
9.8503509e-05
9.8256524e-05
9.8005937e-05
9.7752665e-05
9.749683e-05
9.7238362e-05
9.697715e-05
9.6713071e-05
9.6446003e-05
9.6175823e-05
9.5902408e-05
9.5625627e-05
9.5345331e-05
9.5061332e-05
9.4773381e-05
9.4481146e-05
9.4184178e-05
9.3881889e-05
9.3573526e-05
9.3258154e-05
9.2934645e-05
9.2601685e-05
9.225778e-05
9.1901282e-05
9.1530415e-05
9.1143317e-05
9.0738077e-05
9.0312787e-05
8.986558e-05
8.9394676e-05
8.8898425e-05
8.8375337e-05
8.7824119e-05
8.7243696e-05
8.6633223e-05
8.5992083e-05
8.531987e-05
8.4616359e-05
8.3881457e-05
8.3115145e-05
8.2317418e-05
8.1488212e-05
8.0627312e-05
7.9734253e-05
7.8808218e-05
7.7847954e-05
7.6851668e-05
7.5816971e-05
7.474067e-05
7.3618784e-05
7.2446599e-05
7.1218268e-05
6.9927001e-05
6.8565006e-05
6.7123508e-05
6.559236e-05
6.39598e-05
6.2213308e-05
6.0339859e-05
5.8323483e-05
5.6149784e-05
5.3801709e-05
5.1261219e-05
4.8511889e-05
4.554673e-05
4.2366981e-05
3.8961706e-05
3.5367178e-05
3.1654156e-05
2.7906467e-05
2.4313028e-05
2.1035514e-05
1.829984e-05
1.6411105e-05
1.5446102e-05
1.5494701e-05
1.6545401e-05
1.8458786e-05
2.1011818e-05
2.3985898e-05
2.7215836e-05
3.059639e-05
3.406199e-05
3.7568319e-05
4.108452e-05
4.458947e-05
4.8068498e-05
5.1511148e-05
5.4909901e-05
5.8259314e-05
6.1555426e-05
6.4795314e-05
6.7977136e-05
7.1098388e-05
7.4163237e-05
7.714752e-05
8.016113e-05
8.2699336e-05
8.7120617e-05
0.00010051415
0.00010027284
0.00010002358
9.9770725e-05
9.9515201e-05
9.9257133e-05
9.8996454e-05
9.8733052e-05
9.8466808e-05
9.8197606e-05
9.7925336e-05
9.7649895e-05
9.7371195e-05
9.708915e-05
9.6803679e-05
9.651469e-05
9.6222072e-05
9.5925675e-05
9.5625293e-05
9.5320645e-05
9.5011354e-05
9.4696928e-05
9.4376749e-05
9.4050058e-05
9.3715948e-05
9.3373369e-05
9.3021127e-05
9.2657902e-05
9.2282266e-05
9.1892704e-05
9.1487645e-05
9.1065499e-05
9.0624687e-05
9.0163681e-05
8.9681037e-05
8.9175428e-05
8.8645658e-05
8.8090683e-05
8.7509603e-05
8.6901663e-05
8.6266232e-05
8.5602779e-05
8.4910843e-05
8.4189983e-05
8.3439715e-05
8.2659445e-05
8.1848398e-05
8.1005536e-05
8.0129493e-05
7.9218453e-05
7.8270071e-05
7.7281448e-05
7.6248974e-05
7.5168268e-05
7.4034114e-05
7.2840428e-05
7.1580118e-05
7.0244789e-05
6.8824905e-05
6.7310027e-05
6.5687799e-05
6.3945075e-05
6.2066877e-05
6.0037149e-05
5.7838345e-05
5.5450588e-05
5.2858409e-05
5.0044566e-05
4.699623e-05
4.3723719e-05
4.0205543e-05
3.6494623e-05
3.2657726e-05
2.8806602e-05
2.5150963e-05
2.1855594e-05
1.9242334e-05
1.7501382e-05
1.6779972e-05
1.7143222e-05
1.8545018e-05
2.0789481e-05
2.3638587e-05
2.6880806e-05
3.0365301e-05
3.3995373e-05
3.7707594e-05
4.1458307e-05
4.5217414e-05
4.8964077e-05
5.2683541e-05
5.6365194e-05
6.0001305e-05
6.3586445e-05
6.7115404e-05
7.0590698e-05
7.3984192e-05
7.7417481e-05
8.0320349e-05
8.5382514e-05
0.00010237472
0.00010213098
0.00010187922
0.00010162388
0.00010136589
0.00010110539
0.00010084229
0.00010057651
0.00010030791
0.00010003638
9.9761814e-05
9.9484116e-05
9.9203202e-05
9.8919e-05
9.8631453e-05
9.8340512e-05
9.804613e-05
9.7748257e-05
9.7446828e-05
9.714175e-05
9.6832894e-05
9.6520076e-05
9.6203047e-05
9.5881478e-05
9.5554945e-05
9.5222917e-05
9.4884751e-05
9.4539681e-05
9.4186821e-05
9.3825167e-05
9.3453608e-05
9.3070944e-05
9.2675901e-05
9.2267163e-05
9.1843398e-05
9.1403279e-05
9.0945515e-05
9.0468867e-05
8.9972161e-05
8.9454303e-05
8.8914287e-05
8.835119e-05
8.7764176e-05
8.7152477e-05
8.6515364e-05
8.5852116e-05
8.5161978e-05
8.4444107e-05
8.3697525e-05
8.292104e-05
8.2113177e-05
8.127212e-05
8.0395625e-05
7.9480937e-05
7.8524713e-05
7.7522953e-05
7.6470923e-05
7.5362966e-05
7.4192438e-05
7.2951769e-05
7.1632064e-05
7.0223257e-05
6.8713797e-05
6.709066e-05
6.5339312e-05
6.3442304e-05
6.1384815e-05
5.9144425e-05
5.6700339e-05
5.4039142e-05
5.1138223e-05
4.7986723e-05
4.4592425e-05
4.0947516e-05
3.7110954e-05
3.3149457e-05
2.9237744e-05
2.556108e-05
2.2373853e-05
1.9981508e-05
1.8547935e-05
1.8227577e-05
1.9071638e-05
2.0936599e-05
2.358996e-05
2.6789282e-05
3.0340051e-05
3.4109624e-05
3.8011002e-05
4.1985145e-05
4.5991334e-05
5.0001386e-05
5.3995445e-05
5.7959495e-05
6.188213e-05
6.5761781e-05
6.9564433e-05
7.3422592e-05
7.6697167e-05
8.2421191e-05
0.00010431908
0.00010407269
0.00010381822
0.00010356017
0.0001032995
0.00010303634
0.00010277063
0.00010250225
0.00010223109
0.00010195705
0.00010168
0.00010139985
0.00010111653
0.00010082995
0.00010054007
0.00010024684
9.9950234e-05
9.9650224e-05
9.9346784e-05
9.9039888e-05
9.8729494e-05
9.8415542e-05
9.8097943e-05
9.7776569e-05
9.7451245e-05
9.7121733e-05
9.6787722e-05
9.6448818e-05
9.6104537e-05
9.5754294e-05
9.5397407e-05
9.5033097e-05
9.4660492e-05
9.4278645e-05
9.3886545e-05
9.3483131e-05
9.3067312e-05
9.2637975e-05
9.2194004e-05
9.1734291e-05
9.1257751e-05
9.0763333e-05
9.0250029e-05
8.9716879e-05
8.9162968e-05
8.858741e-05
8.7989339e-05
8.7367885e-05
8.6722138e-05
8.6051116e-05
8.535371e-05
8.4628645e-05
8.387441e-05
8.3089203e-05
8.2270854e-05
8.1416766e-05
8.052384e-05
7.9588365e-05
7.8605912e-05
7.7571311e-05
7.6478451e-05
7.5320228e-05
7.4088373e-05
7.2773313e-05
7.1364162e-05
6.9847831e-05
6.8210838e-05
6.6436536e-05
6.4505539e-05
6.2402086e-05
6.0101524e-05
5.7580091e-05
5.4825147e-05
5.1812638e-05
4.8534323e-05
4.4992563e-05
4.1206713e-05
3.7229298e-05
3.3169867e-05
2.9233119e-05
2.5629178e-05
2.2703644e-05
2.0645821e-05
1.9695066e-05
1.9979101e-05
2.1429607e-05
2.384012e-05
2.6954006e-05
3.0540093e-05
3.4428729e-05
3.8506064e-05
4.2695307e-05
4.6943664e-05
5.121483e-05
5.5482067e-05
5.9733608e-05
6.3925097e-05
6.8197525e-05
7.1838902e-05
7.8231511e-05
0.00010634195
0.00010609268
0.00010583527
0.00010557428
0.00010531071
0.00010504467
0.00010477612
0.00010450494
0.00010423103
0.00010395426
0.00010367453
0.00010339174
0.00010310582
0.00010281668
0.00010252427
0.00010222856
0.00010192949
0.00010162707
0.00010132126
0.00010101205
0.00010069944
0.00010038339
0.00010006388
9.9740864e-05
9.9414267e-05
9.9083986e-05
9.8749879e-05
9.8411751e-05
9.8069353e-05
9.7722364e-05
9.7370397e-05
9.7012986e-05
9.6649592e-05
9.6279605e-05
9.5902346e-05
9.5517078e-05
9.5123006e-05
9.4719286e-05
9.430503e-05
9.3879315e-05
9.3441193e-05
9.29897e-05
9.252387e-05
9.2042745e-05
9.1545375e-05
9.1030828e-05
9.0498181e-05
8.9946523e-05
8.9374943e-05
8.8782506e-05
8.8168235e-05
8.7531085e-05
8.68699e-05
8.6183374e-05
8.5469999e-05
8.4728018e-05
8.3955363e-05
8.3149584e-05
8.2307765e-05
8.1426464e-05
8.0501602e-05
7.952837e-05
7.8501115e-05
7.7413191e-05
7.625691e-05
7.502308e-05
7.3701403e-05
7.2279809e-05
7.0743681e-05
6.9078278e-05
6.7264958e-05
6.5284454e-05
6.311395e-05
6.0729774e-05
5.8108349e-05
5.5231689e-05
5.2080428e-05
4.8644065e-05
4.4934433e-05
4.0988576e-05
3.6873435e-05
3.2770124e-05
2.8873193e-05
2.5507288e-05
2.2931359e-05
2.1422823e-05
2.1183451e-05
2.2221121e-05
2.4369825e-05
2.7373872e-05
3.0975054e-05
3.496914e-05
3.9214123e-05
4.3614073e-05
4.8101804e-05
5.263891e-05
5.7159388e-05
6.1805939e-05
6.5787817e-05
7.2831011e-05
0.00010843796
0.00010818559
0.000107925
0.00010766085
0.00010739413
0.000107125
0.00010685338
0.00010657919
0.0001063023
0.0001060226
0.00010573998
0.00010545436
0.00010516564
0.00010487375
0.00010457864
0.00010428025
0.00010397855
0.00010367351
0.00010336512
0.00010305337
0.00010273824
0.00010241972
0.00010209781
0.00010177247
0.00010144367
0.00010111137
0.00010077548
0.00010043591
0.00010009253
9.9745145e-05
9.9393539e-05
9.9037436e-05
9.8676513e-05
9.8310393e-05
9.793865e-05
9.7560808e-05
9.7176343e-05
9.6784676e-05
9.6385182e-05
9.5977182e-05
9.5559955e-05
9.5132737e-05
9.4694734e-05
9.4245123e-05
9.3783065e-05
9.3307703e-05
9.2818174e-05
9.2313606e-05
9.1793124e-05
9.1255842e-05
9.0700854e-05
9.0127227e-05
8.9533979e-05
8.8920058e-05
8.8284309e-05
8.7625444e-05
8.6941999e-05
8.6232288e-05
8.5494344e-05
8.4725865e-05
8.3924138e-05
8.3085959e-05
8.2207554e-05
8.1284455e-05
8.0311429e-05
7.9282248e-05
7.8189669e-05
7.7025239e-05
7.5778741e-05
7.4438821e-05
7.299191e-05
7.1422718e-05
6.9713229e-05
6.7842929e-05
6.5790645e-05
6.3530756e-05
6.1037595e-05
5.8288172e-05
5.525947e-05
5.1936904e-05
4.8311089e-05
4.442264e-05
4.0307413e-05
3.6103488e-05
3.1997075e-05
2.8296691e-05
2.5296692e-05
2.3309787e-05
2.2603855e-05
2.3256387e-05
2.5149157e-05
2.8038139e-05
3.1647101e-05
3.5741869e-05
4.0151364e-05
4.4767468e-05
4.9472879e-05
5.4393117e-05
5.864778e-05
6.6277291e-05
0.00011060169
0.000110346
0.00011008199
0.00010981443
0.00010954434
0.00010927188
0.00010899698
0.00010871954
0.00010843945
0.00010815661
0.0001078709
0.00010758223
0.00010729052
0.00010699569
0.00010669767
0.00010639642
0.0001060919
0.00010578408
0.00010547293
0.00010515845
0.00010484061
0.00010451942
0.00010419485
0.00010386689
0.00010353551
0.00010320069
0.00010286237
0.00010252049
0.00010217496
0.00010182567
0.00010147246
0.00010111517
0.00010075359
0.00010038747
0.00010001655
9.9640531e-05
9.9259068e-05
9.8871789e-05
9.8478279e-05
9.8078079e-05
9.7670686e-05
9.7255552e-05
9.6832088e-05
9.6399665e-05
9.5957619e-05
9.5505253e-05
9.5041841e-05
9.4566634e-05
9.407886e-05
9.3577729e-05
9.3062431e-05
9.2532135e-05
9.1985982e-05
9.1423075e-05
9.0842464e-05
9.0243129e-05
8.9623956e-05
8.8983707e-05
8.8320985e-05
8.7634192e-05
8.6921483e-05
8.6180705e-05
8.5409338e-05
8.4604409e-05
8.3762426e-05
8.2879247e-05
8.1949986e-05
8.0968907e-05
7.9929123e-05
7.882264e-05
7.7639984e-05
7.6370134e-05
7.5000068e-05
7.3514398e-05
7.1896047e-05
7.0124456e-05
6.8178509e-05
6.6030772e-05
6.3654115e-05
6.1024286e-05
5.811088e-05
5.4898183e-05
5.1369462e-05
4.7538458e-05
4.3453039e-05
3.9200053e-05
3.4955919e-05
3.0999603e-05
2.7654951e-05
2.5269826e-05
2.4165569e-05
2.4479929e-05
2.6143618e-05
2.8930964e-05
3.2553054e-05
3.6759175e-05
4.1312671e-05
4.6272411e-05
5.0645516e-05
5.8703079e-05
0.0001128277
0.00011256844
0.00011230078
0.00011202957
0.00011175588
0.00011147985
0.00011120143
0.00011092052
0.00011063702
0.00011035081
0.00011006179
0.00010976987