/*--------------------------------*- C++ -*----------------------------------*\
  =========                 |
  \\      /  F ield         | OpenFOAM: The Open Source CFD Toolbox
   \\    /   O peration     | Website:  https://openfoam.org
    \\  /    A nd           | Version:  12
     \\/     M anipulation  |
\*---------------------------------------------------------------------------*/
FoamFile
{
    format      ascii;
    class       volScalarField;
    location    "400";
    object      p;
}
// * * * * * * * * * * * * * * * * * * * * * * * * * * * * * * * * * * * * * //

dimensions      [0 2 -2 0 0 0 0];

internalField   nonuniform List<scalar> 
7480
(
0.0060997717
0.0061316965
0.0060942624
0.0060821945
0.0061020058
0.006116941
0.0061194009
0.0060857271
0.0060127516
0.0059218432
0.0058044603
0.0056606515
0.0054958087
0.0053159981
0.0051259226
0.0049346898
0.0047429366
0.0045540823
0.0043711033
0.004199105
0.004035794
0.0038807101
0.0037375182
0.0036080682
0.0034921982
0.0033905508
0.0033036613
0.0032316354
0.0031738273
0.0031281278
0.0030928895
0.0030646608
0.0030380064
0.003009437
0.0029770994
0.0029409643
0.0029029443
0.0028650818
0.002827392
0.0027892869
0.0027504092
0.0027107502
0.0026712142
0.002631967
0.0025925265
0.0025529755
0.0025137796
0.002475196
0.0024367083
0.0023980642
0.0023594917
0.0023212932
0.0022832283
0.0022449495
0.0022067136
0.0021686646
0.0021305125
0.0020921244
0.0020537664
0.0020153926
0.0019766701
0.0019378136
0.0018988404
0.001859497
0.0018198973
0.0017800656
0.0017398168
0.0016992359
0.0016583202
0.0016169047
0.0015750813
0.0015328117
0.001490003
0.0014466911
0.001402824
0.0013583889
0.0013133537
0.0012676944
0.0012214069
0.0011744475
0.0011268104
0.0010784802
0.0010294466
0.0009797039
0.00092925291
0.00087810248
0.00082627575
0.00077380673
0.00072076965
0.00066723059
0.0006134249
0.00055935591
0.0005059957
0.00045228029
0.00040356035
0.00034975772
0.00032512509
0.00025385641
0.00050353606
-0.00039562158
0.0060202438
0.0060475138
0.0060109722
0.0060192388
0.0060495673
0.0060679266
0.006060025
0.0060291199
0.0059806204
0.0059079568
0.0058074085
0.0056801551
0.0055306811
0.0053639131
0.0051857786
0.0049996746
0.0048127976
0.0046258655
0.0044424931
0.0042688534
0.004103639
0.0039462363
0.0037992387
0.0036651155
0.0035448467
0.0034388861
0.0033475615
0.003270905
0.0032080646
0.0031566605
0.0031154147
0.0030816667
0.0030505258
0.0030188119
0.0029847991
0.0029481878
0.0029104441
0.0028731279
0.0028358345
0.0027978055
0.0027587461
0.0027187932
0.002678961
0.0026394361
0.002599726
0.0025599088
0.0025204438
0.0024815884
0.0024428319
0.0024039294
0.0023651084
0.0023266686
0.0022883673
0.0022498588
0.0022114028
0.0021731427
0.0021347868
0.0020962029
0.0020576588
0.0020191065
0.0019802124
0.0019411926
0.0019020637
0.0018625716
0.0018228305
0.001782864
0.0017424867
0.0017017835
0.0016607513
0.0016192249
0.001577296
0.001534926
0.0014920217
0.0014486188
0.0014046651
0.0013601477
0.0013150341
0.0012693002
0.0012229416
0.0011759146
0.0011282131
0.0010798215
0.0010307295
0.00098093113
0.00093042712
0.00087922617
0.00082735131
0.00077483645
0.00072175571
0.00066817507
0.00061432989
0.00056022326
0.00050682774
0.00045307817
0.00040432845
0.00035049438
0.00032582214
0.00025464912
0.0005043954
-0.00039495163
0.0059594183
0.0059991568
0.0059855325
0.0059985755
0.0060235198
0.0060343911
0.006023172
0.005994322
0.0059443596
0.0058654472
0.0057591968
0.0056277509
0.0054751694
0.0053065082
0.0051273378
0.0049416954
0.0047566882
0.0045728583
0.0043938604
0.0042251268
0.0040659276
0.0039154564
0.0037753749
0.0036482107
0.0035353044
0.0034367919
0.0033528715
0.0032832659
0.0032268799
0.0031815183
0.0031441865
0.0031115253
0.0030797935
0.0030459881
0.0030088264
0.0029682934
0.0029262775
0.002885079
0.0028448316
0.0028049075
0.0027648868
0.0027246688
0.0026849842
0.0026456826
0.0026060419
0.0025661147
0.0025264399
0.0024873439
0.0024483462
0.0024092193
0.0023701886
0.0023315478
0.0022930502
0.0022543531
0.0022157208
0.0021772927
0.0021387732
0.002100031
0.002061336
0.0020226379
0.0019836017
0.0019444465
0.001905187
0.0018655684
0.0018257064
0.0017856235
0.0017451338
0.001704323
0.0016631875
0.0016215614
0.0015795374
0.0015370758
0.0014940837
0.0014505968
0.0014065625
0.0013619678
0.0013167802
0.0012709754
0.0012245489
0.0011774568
0.001129693
0.0010812418
0.0010320926
0.00098223952
0.00093168311
0.000880432
0.00082850912
0.0007759483
0.00072282358
0.00066920086
0.00061531554
0.0005611704
0.00050773863
0.00045395358
0.000405173
0.00035130381
0.00032661075
0.00025552573
0.00050529018
-0.00039426118
0.0059025442
0.0059492274
0.0059466069
0.0059579727
0.0059783796
0.0059873449
0.0059772335
0.005948906
0.0058988189
0.0058227395
0.0057223914
0.0055988853
0.0054552051
0.005295717
0.0051253576
0.0049481209
0.0047699589
0.0045919784
0.0044174889
0.0042512565
0.004093189
0.0039427919
0.0038016701
0.0036724401
0.0035564928
0.0034541224
0.0033657668
0.0032914862
0.0032307539
0.0031822213
0.0031425561
0.0031086907
0.003077918
0.0030468885
0.0030136684
0.002977892
0.0029401602
0.0029012911
0.0028616279
0.0028210221
0.0027792407
0.0027365333
0.0026943073
0.0026529777
0.0026120371
0.0025714366
0.0025315723
0.0024925435
0.0024536143
0.0024144498
0.0023752927
0.002336486
0.002297809
0.0022589329
0.0022201308
0.0021815364
0.0021428519
0.0021039505
0.0020651055
0.0020262624
0.0019870843
0.0019477947
0.0019084057
0.0018686611
0.0018286785
0.0017884792
0.0017478764
0.0017069574
0.0016657174
0.0016239902
0.0015818692
0.0015393143
0.0014962322
0.001452659
0.0014085415
0.0013638671
0.0013186029
0.0012727246
0.0012262275
0.0011790676
0.0011312389
0.0010827254
0.0010335164
0.00098360609
0.00093299478
0.00088169105
0.00082971774
0.0007771086
0.00072393762
0.00067027059
0.00061634289
0.0005621571
0.00050868675
0.00045486418
0.00040604954
0.00035214347
0.00032742923
0.00025629744
0.00050616321
-0.00039362231
0.0058478668
0.005898802
0.0059054446
0.0059184209
0.0059375826
0.0059457794
0.005935501
0.0059067602
0.0058573527
0.0057838663
0.0056866962
0.0055667097
0.0054266931
0.0052708174
0.0051038114
0.0049296396
0.0047537113
0.0045779278
0.0044054483
0.0042406885
0.0040840866
0.003935576
0.0037965136
0.0036692775
0.0035552458
0.0034547672
0.0033681554
0.0032953744
0.0032357584
0.0031877028
0.0031478469
0.0031131853
0.0030809976
0.0030480329
0.0030127425
0.002975534
0.0029371265
0.0028982423
0.0028597717
0.0028216129
0.0027831295
0.0027439921
0.0027041942
0.0026637848
0.0026228248
0.0025812657
0.0025398528
0.002499285
0.0024591798
0.0024192877
0.0023797995
0.0023409304
0.0023022657
0.0022633571
0.0022244718
0.0021857641
0.0021469507
0.0021079185
0.0020689459
0.0020299731
0.0019906637
0.0019512495
0.0019117394
0.001871875
0.0018317774
0.0017914664
0.001750754
0.0017097295
0.001668387
0.0016265597
0.0015843425
0.0015416941
0.0014985214
0.0014548608
0.0014106587
0.0013659026
0.0013205595
0.0012746051
0.0012280348
0.0011808043
0.0011329075
0.0010843285
0.0010350566
0.00098508562
0.00093441603
0.00088305629
0.00083102916
0.00077836831
0.00072514768
0.00067143298
0.00061745953
0.00056322979
0.00050971734
0.0004558541
0.00040700091
0.00035305557
0.00032831125
0.00025708695
0.00050705958
-0.00039287184
0.0057960503
0.0058493955
0.0058638213
0.0058787432
0.0058964484
0.0059032453
0.0058924128
0.0058636237
0.005815076
0.0057436052
0.0056491641
0.0055328412
0.0053972706
0.0052462972
0.00508433
0.0049152108
0.0047438505
0.0045725315
0.0044041488
0.0042427489
0.0040888556
0.0039427752
0.0038056992
0.0036798213
0.0035665628
0.003466391
0.0033795711
0.0033060552
0.003245232
0.0031955836
0.0031540728
0.0031178883
0.0030844339
0.0030507075
0.0030152435
0.0029781548
0.0029397423
0.0029005376
0.0028613305
0.0028220337
0.0027824106
0.0027425908
0.002702459
0.0026624977
0.0026231319
0.0025840609
0.0025450686
0.0025059518
0.0024664774
0.0024264861
0.0023862677
0.0023464582
0.0023069651
0.0022674902
0.0022283138
0.0021895188
0.0021506821
0.0021116121
0.0020725796
0.0020335276
0.0019941264
0.0019546218
0.0019150176
0.0018750545
0.0018348602
0.0017944535
0.0017536451
0.0017125273
0.0016710931
0.0016291748
0.0015868695
0.0015441346
0.001500877
0.001457134
0.0014128515
0.0013680171
0.0013225978
0.0012765694
0.0012299273
0.0011826271
0.0011346629
0.0010860185
0.0010366834
0.00098665135
0.00093592274
0.00088450601
0.00083242387
0.00077970996
0.00072643817
0.00067267414
0.00061865313
0.00056437758
0.0005108208
0.00045691494
0.00040801971
0.00035403361
0.00032925139
0.00025793266
0.00050795787
-0.00039195355
0.0057466614
0.0058009731
0.0058214943
0.0058381577
0.0058545429
0.0058601758
0.0058491035
0.0058205797
0.0057729596
0.0057034862
0.0056119554
0.0054994652
0.0053683868
0.0052222172
0.0050650613
0.0049006389
0.0047334475
0.0045659991
0.0044010533
0.0042423088
0.0040906001
0.0039463995
0.0038109262
0.0036862448
0.0035737648
0.0034739954
0.0033872065
0.003313353
0.0032518692
0.0032013324
0.0031588957
0.003121807
0.0030875445
0.003053277
0.0030174815
0.0029801095
0.0029414516
0.0029020764
0.0028627414
0.0028234139
0.0027838974
0.0027441221
0.0027038695
0.002663586
0.0026236386
0.0025840027
0.0025445053
0.0025051196
0.0024662032
0.0024276666
0.002389243
0.0023507464
0.0023119395
0.0022726441
0.0022331491
0.0021938273
0.0021544778
0.0021150328
0.0020758085
0.0020366915
0.0019972564
0.0019577177
0.0019180663
0.0018780438
0.0018377881
0.0017973155
0.0017564354
0.0017152452
0.0016737375
0.0016317441
0.0015893647
0.0015465557
0.0015032244
0.0014594088
0.0014150542
0.0013701492
0.0013246603
0.0012785635
0.0012318546
0.0011844888
0.0011364607
0.0010877539
0.001038358
0.00098826683
0.00093748071
0.00088600811
0.00083387175
0.00078110526
0.00072778249
0.00067396909
0.00061990019
0.00056557833
0.00051197627
0.00045802701
0.00040908721
0.00035505991
0.00033023347
0.00025881542
0.00050882031
-0.00039085429
0.0056993201
0.0057534779
0.0057785476
0.0057967619
0.0058121175
0.0058168225
0.0058056362
0.0057774782
0.0057308625
0.005663443
0.0055748792
0.005466174
0.0053394735
0.0051979805
0.0050455232
0.0048856908
0.0047226333
0.0045590138
0.0043975013
0.0042414901
0.0040921029
0.0039499441
0.0038162382
0.0036929098
0.0035813391
0.0034820804
0.0033954177
0.0033213214
0.0032592368
0.0032077944
0.0031643397
0.0031262111
0.0030909849
0.0030559969
0.0030197163
0.002982028
0.0029432057
0.0029037557
0.0028643452
0.002824957
0.0027853769
0.0027455082
0.0027052062
0.0026648909
0.0026249124
0.0025852403
0.0025456491
0.0025061197
0.0024669462
0.0024280677
0.0023892778
0.0023504531
0.0023118392
0.0022735237
0.0022352584
0.0021968515
0.002158076
0.002118822
0.0020794485
0.0020400309
0.002000291
0.001960538
0.0019207855
0.0018807184
0.0018404372
0.0017999358
0.0017590183
0.0017177879
0.0016762351
0.0016341906
0.0015917581
0.0015488933
0.0015055042
0.0014616301
0.0014172161
0.0013722515
0.0013267029
0.0012805466
0.0012337786
0.0011863542
0.0011382681
0.0010895042
0.001040052
0.00098990559
0.00093906529
0.00088753964
0.0008353514
0.00078253425
0.00072916202
0.00067530043
0.00062118444
0.00056681682
0.00051316946
0.00045917693
0.00041019071
0.0003561226
0.00033124586
0.0002597191
0.00050961599
-0.00038955276
0.005653675
0.0057068732
0.0057351794
0.005754711
0.0057692555
0.0057731673
0.0057619153
0.0057341995
0.0056886676
0.0056233185
0.0055377129
0.0054327446
0.0053103695
0.0051735183
0.0050257478
0.0048705002
0.004711624
0.0045518649
0.0043938223
0.0042406333
0.0040936321
0.0039535529
0.0038216247
0.0036996529
0.0035889917
0.0034902408
0.0034036987
0.0033293472
0.0032666454
0.0032142845
0.003169799
0.0031306371
0.0030944607
0.0030587551
0.0030220099
0.0029840372
0.0029450565
0.0029055017
0.0028659663
0.0028264522
0.0027867586
0.0027468071
0.0027064858
0.0026661652
0.0026261728
0.0025864736
0.0025468603
0.0025073229
0.0024681071
0.0024291478
0.0023902442
0.0023513018
0.0023125497
0.0022740621
0.0022355078
0.0021968246
0.0021582573
0.0021197893
0.0020812347
0.002042395
0.0020030709
0.0019634418
0.001923606
0.0018833534
0.0018428978
0.0018022923
0.0017613255
0.0017200733
0.001678502
0.0016364343
0.0015939766
0.0015510816
0.0015076571
0.0014637442
0.0014192881
0.0013742792
0.0013286843
0.0012824805
0.0012356642
0.0011881907
0.0011400552
0.0010912417
0.0010417401
0.00099154425
0.00094065493
0.00088908074
0.00083684453
0.00078398007
0.00073056123
0.00067665383
0.00062249266
0.00056808086
0.00051438906
0.00046035424
0.0004113204
0.00035721267
0.00033227959
0.0002606341
0.00051031642
-0.00038801906
0.0056094292
0.0056611092
0.0056915513
0.0057121105
0.0057259939
0.0057292171
0.0057179409
0.0056907319
0.005646336
0.0055830439
0.0055003667
0.005399088
0.005280987
0.0051487391
0.0050056372
0.0048549647
0.0047003048
0.0045444303
0.004389883
0.0042395815
0.0040950159
0.0039570482
0.0038269136
0.0037063178
0.0035965881
0.0034983635
0.0034119581
0.0033373657
0.003274066
0.0032208149
0.0031753222
0.0031351481
0.0030980373
0.0030616166
0.0030244014
0.0029861298
0.0029469663
0.0029072853
0.0028676166
0.002827978
0.0027881846
0.0027481637
0.0027078165
0.002667471
0.0026274355
0.002587681
0.0025480251
0.0025084599
0.0024692077
0.0024302159
0.0023912961
0.0023523549
0.0023135775
0.0022749987
0.0022363264
0.0021975549
0.0021589066
0.0021203295
0.002081509
0.0020425255
0.0020035845
0.0019645286
0.0019251908
0.0018853752
0.0018451709
0.0018046224
0.0017635732
0.0017222056
0.0016805518
0.0016384405
0.0015959651
0.0015530586
0.0015096211
0.001465693
0.0014212172
0.0013761842
0.0013305609
0.0012843255
0.0012374749
0.0011899649
0.0011417911
0.0010929381
0.0010433958
0.00099315865
0.00094222744
0.000890611
0.00083833238
0.00078542548
0.00073196428
0.00067801475
0.00062381148
0.00056935814
0.00051562375
0.00046154851
0.00041246655
0.00035832118
0.00033332591
0.00026155158
0.0005108957
-0.00038621899
0.0055663378
0.0056161208
0.0056477901
0.0056690606
0.005682385
0.0056850113
0.0056737455
0.00564709
0.0056038635
0.0055426051
0.0054628131
0.0053651627
0.0052512668
0.0051235645
0.0049850974
0.0048389819
0.0046885636
0.0045365995
0.0043855793
0.0042382345
0.0040961683
0.0039603612
0.0038320558
0.0037128723
0.0036041099
0.0035064416
0.0034201989
0.0033453897
0.003281519
0.0032274076
0.0031809291
0.0031397575
0.0031017225
0.0030645838
0.0030268862
0.0029883006
0.0029489405
0.0029091247
0.0028693214
0.0028295585
0.0027896649
0.0027495693
0.0027091859
0.0026688077
0.0026287232
0.0025889144
0.0025492173
0.0025096205
0.0024703257
0.00243129
0.0023923328
0.0023533613
0.0023145463
0.002275927
0.0022372463
0.0021984788
0.0021597942
0.0021211189
0.0020822018
0.0020431722
0.0020042015
0.0019649611
0.0019254143
0.0018857513
0.0018459157
0.0018057599
0.0017650923
0.001724006
0.0016824774
0.0016403526
0.0015978097
0.0015548458
0.0015113778
0.0014674379
0.0014229563
0.001377918
0.0013322864
0.0012860387
0.0012391717
0.0011916409
0.0011434432
0.0010945632
0.0010449917
0.00099472335
0.00094375935
0.00089210883
0.00083979508
0.00078685223
0.00073335439
0.00067936777
0.00062512673
0.00057063566
0.00051686156
0.00046274874
0.00041361888
0.00035943872
0.00033437562
0.00026246142
0.00051133497
-0.00038411312
0.0055241992
0.0055718362
0.0056039967
0.0056256606
0.005638486
0.0056405922
0.0056293634
0.005603295
0.0055612619
0.0055020112
0.0054250522
0.0053309586
0.0052211877
0.0050979618
0.0049640839
0.004822499
0.0046763367
0.0045283068
0.004380846
0.0042365261
0.0040970275
0.0039634361
0.0038370027
0.0037192736
0.0036115201
0.0035144443
0.0034283963
0.0033533997
0.0032889883
0.0032340486
0.0031866076
0.0031444558
0.0031055091
0.0030676521
0.0030294625
0.0029905523
0.0029509848
0.0029110255
0.0028710835
0.0028311928
0.0027911951
0.0027510209
0.0027105972
0.0026701845
0.0026300514
0.0025901887
0.0025504481
0.0025108158
0.0024714738
0.0024323857
0.0023933835
0.0023543791
0.0023155273
0.002276868
0.0022381627
0.0021993677
0.0021606404
0.0021219295
0.0020830152
0.0020439833
0.0020049436
0.001965615
0.0019260267
0.0018863565
0.001846394
0.0018060574
0.001765455
0.0017245977
0.0016833543
0.0016415606
0.0015992873
0.001556462
0.0015130135
0.0014690391
0.0014245223
0.0013794674
0.0013338312
0.0012875832
0.0012407158
0.0011931817
0.0011449768
0.0010960853
0.0010464985
0.00099621147
0.00094522592
0.00089355142
0.00084121161
0.00078824094
0.00073471373
0.00068069648
0.00062642335
0.00057189956
0.00051808973
0.00046394319
0.00041476647
0.00036055527
0.00033541901
0.00026335232
0.00051157583
-0.00038165687
0.0054828472
0.0055281829
0.0055602499
0.005582004
0.0055943536
0.0055960016
0.0055848303
0.0055593727
0.00551855
0.0054612794
0.0053870966
0.0052964838
0.0051907527
0.0050719263
0.0049425829
0.0048054939
0.0046635904
0.0045195116
0.0043756386
0.0042344052
0.0040975401
0.0039662199
0.0038417038
0.0037254747
0.0036187756
0.0035223335
0.0034365177
0.0033613686
0.0032964515
0.0032407196
0.0031923443
0.0031492334
0.0031093904
0.0030708174
0.0030321286
0.0029928843
0.0029530987
0.0029129867
0.0028729013
0.0028328795
0.0027927752
0.0027525205
0.0027120531
0.0026716037
0.0026314211
0.0025915035
0.0025517175
0.0025120478
0.0024726575
0.0024335162
0.0023944681
0.0023554292
0.0023165371
0.0022778296
0.0022390854
0.0022002581
0.0021614951
0.002122753
0.002083823
0.0020447621
0.0020056764
0.0019663342
0.0019267538
0.0018870434
0.0018470089
0.0018066331
0.0017660358
0.0017250669
0.0016836729
0.00164192
0.0015998018
0.0015572037
0.001514039
0.0014703051
0.0014259111
0.0013808837
0.0013352327
0.0012889676
0.0012420946
0.0011945622
0.0011463614
0.0010974729
0.0010478858
0.00099759461
0.00094660091
0.00089491458
0.00084255966
0.00078957104
0.0007360233
0.00068198337
0.00062768517
0.00057313495
0.00051929454
0.00046511922
0.00041589755
0.00036166001
0.0003364456
0.00026421503
0.0005115653
-0.00037881261
0.0054421444
0.0054850917
0.0055166093
0.005538176
0.0055500441
0.0055512813
0.0055401833
0.0055153518
0.0054757489
0.0054204298
0.0053489641
0.0052617537
0.0051599747
0.005045466
0.0049205951
0.0047879601
0.0046503081
0.0045101907
0.0043699287
0.0042318359
0.0040976661
0.003968671
0.0038461184
0.0037314361
0.0036258395
0.0035300757
0.0034445333
0.0033692709
0.0033038877
0.0032474034
0.0031981257
0.0031540802
0.0031133585
0.0030740739
0.0030348805
0.0029952933
0.0029552795
0.0029150063
0.0028747734
0.0028346178
0.0027944049
0.0027540677
0.0027135532
0.0026730647
0.0026328314
0.0025928582
0.0025530256
0.0025133171
0.0024738781
0.0024346833
0.0023955886
0.0023565135
0.0023175795
0.002278822
0.0022400371
0.002201177
0.0021623753
0.0021235922
0.0020846303
0.0020455376
0.002006419
0.0019670601
0.0019274637
0.0018877165
0.0018476574
0.0018072818
0.0017666613
0.0017256391
0.0016842143
0.0016424551
0.0016002302
0.001557532
0.0015143907
0.001470775
0.0014265907
0.0013818087
0.0013363531
0.0012901872
0.0012433392
0.0011958027
0.0011475977
0.0010987118
0.0010491314
0.00099884704
0.00094785812
0.00089617316
0.0008438157
0.0007908207
0.00073726293
0.00068320979
0.00062889494
0.0005743259
0.00052046122
0.0004662632
0.0004169994
0.00036274118
0.00033744408
0.00026503666
0.00051126366
-0.00037552819
0.0054019781
0.0054424986
0.0054731182
0.0054942531
0.0055056128
0.0055064731
0.0054954596
0.0054712619
0.0054328816
0.0053794835
0.0053106741
0.0052267864
0.0051288699
0.0050185935
0.0048981276
0.0047698994
0.0046364831
0.004500331
0.0043636983
0.0042287932
0.0040973758
0.0039707577
0.0038502144
0.0037371259
0.0036326805
0.0035376416
0.0034524166
0.0033770834
0.0033112767
0.003254083
0.0032039383
0.0031589851
0.0031174046
0.0030774151
0.0030377131
0.0029977754
0.0029575242
0.0029170816
0.0028766974
0.0028364058
0.0027960823
0.0027556609
0.002715096
0.0026745661
0.0026342814
0.0025942521
0.0025543719
0.0025146232
0.002475135
0.0024358863
0.0023967442
0.0023576315
0.0023186549
0.0022798471
0.0022410213
0.0022021272
0.0021632848
0.0021244581
0.0020854625
0.0020463377
0.0020071814
0.0019677928
0.0019281667
0.0018883883
0.0018483113
0.001807921
0.0017672755
0.0017262339
0.0016847989
0.0016430211
0.0016007615
0.0015580455
0.0015148667
0.0014711488
0.0014269141
0.0013821526
0.0013368076
0.0012908448
0.0012442081
0.0011968207
0.0011486859
0.0010998198
0.0010502429
0.00099996323
0.00094898245
0.00089730686
0.00084495756
0.00079196786
0.00073841158
0.00068435604
0.00063003437
0.0005754554
0.00052157402
0.00046736047
0.0004180583
0.00036378603
0.00033840225
0.00026580073
0.00051063876
-0.00037173751
0.0053622554
0.0054003463
0.0054298078
0.0054503024
0.0054611133
0.0054616183
0.0054506964
0.0054271338
0.0053899717
0.0053384623
0.0052722472
0.0051916009
0.0050974559
0.0049913237
0.0048751909
0.0047513172
0.0046221132
0.0044899245
0.0043569352
0.0042252582
0.0040966455
0.0039724539
0.0038539648
0.0037425166
0.0036392716
0.0035450052
0.0034601437
0.0033847848
0.0033186
0.0032607422
0.0032097686
0.0031639376
0.00312152
0.0030808344
0.0030406214
0.0030003265
0.0029598296
0.0029192101
0.0028786708
0.0028382411
0.0027978053
0.0027572982
0.0027166799
0.0026761065
0.0026357697
0.0025956841
0.0025557554
0.0025159653
0.0024764273
0.0024371245
0.0023979343
0.0023587829
0.002319763
0.0022809048
0.0022420371
0.0022031079
0.002164224
0.0021253534
0.0020863238
0.002047166
0.0020079693
0.0019685481
0.0019288916
0.0018890798
0.0018489757
0.0018085586
0.0017678844
0.0017268247
0.0016853751
0.0016435793
0.0016013081
0.0015585761
0.0015153796
0.0014716446
0.0014273918
0.0013825632
0.0013371408
0.0012911464
0.0012445457
0.0011972945
0.0011493473
0.0011006492
0.0010511785
0.0010009463
0.00094998217
0.00089831541
0.00084597578
0.00079299694
0.00073945072
0.00068540287
0.00063108466
0.00057650565
0.00052261624
0.00046839545
0.00041905964
0.00036478086
0.00033930698
0.00026649291
0.00050966035
-0.00036738295
0.0053229001
0.0053585847
0.0053866994
0.005406382
0.005416597
0.0054167577
0.0054059306
0.0053829985
0.0053470443
0.0052973885
0.0052337046
0.0051562171
0.0050657513
0.004963673
0.004851797
0.0047322206
0.004607199
0.004478966
0.0043496296
0.0042212149
0.0040954545
0.0039737363
0.0038573455
0.0037475838
0.0036455881
0.003552143
0.0034676924
0.0033923549
0.0033258396
0.0032673653
0.0032156038
0.0031689271
0.0031256962
0.0030843252
0.0030436006
0.0030029429
0.0029621926
0.002921389
0.0028806913
0.0028401215
0.0027995719
0.0027589776
0.0027183033
0.0026776844
0.0026372948
0.0025971527
0.0025571748
0.0025173421
0.0024777542
0.0024383971
0.0023991581
0.0023599669
0.0023209031
0.0022819943
0.0022430839
0.0022041185
0.0021651928
0.0021262779
0.0020872135
0.0020480215
0.002008784
0.0019693297
0.0019296426
0.0018897957
0.0018496615
0.0018092158
0.0017685109
0.0017274264
0.0016859528
0.0016441318
0.0016018432
0.0015590956
0.001515887
0.0014721476
0.0014278776
0.0013830321
0.0013376035
0.0012915677
0.0012448923
0.001197588
0.0011496356
0.0011010124
0.0010516866
0.001001616
0.00095077737
0.00089918162
0.00084687344
0.00079390949
0.00074037475
0.0006863385
0.00063203047
0.00057745991
0.00052357111
0.00046935196
0.00041998804
0.00036571108
0.00034014439
0.00026709704
0.00050825739
-0.00036240117
0.0052838498
0.0053171708
0.0053438074
0.0053625414
0.0053721121
0.0053719309
0.0053611982
0.0053388876
0.0053041249
0.0052562849
0.0051950677
0.0051206556
0.0050337755
0.0049356582
0.0048279589
0.0047126185
0.0045917429
0.0044674521
0.0043417732
0.0042166491
0.0040937837
0.0039745833
0.0038603336
0.0037523039
0.0036516065
0.0035590321
0.0034750414
0.0033997745
0.0033329784
0.0032739371
0.0032214309
0.0031739429
0.0031299245
0.003087881
0.0030466458
0.0030056209
0.0029646104
0.0029236162
0.0028827567
0.002842045
0.0028013802
0.0027606973
0.0027199644
0.0026792982
0.0026388553
0.0025986566
0.0025586288
0.0025187527
0.0024791146
0.0024397031
0.0024004149
0.0023611829
0.0023220747
0.0022831151
0.0022441612
0.0022051587
0.0021661907
0.0021272312
0.0020881309
0.0020489041
0.0020096254
0.0019701374
0.0019304189
0.0018905362
0.0018503712
0.0018098967
0.0017691601
0.0017280484
0.0016865487
0.0016446996
0.0016023879
0.0015596182
0.0015163889
0.0014726328
0.0014283475
0.0013834954
0.0013380626
0.0012920156
0.0012453264
0.0011979937
0.0011499906
0.0011013141
0.0010519595
0.0010019191
0.00095118098
0.00089972528
0.00084754629
0.0007946687
0.00074117851
0.00068716363
0.00063286828
0.00057830918
0.00052442584
0.00047021532
0.00042082837
0.00036656165
0.00034090008
0.00026759515
0.00050636881
-0.00035672372
0.0052450537
0.0052760679
0.0053011412
0.0053188225
0.0053277033
0.0053271765
0.0053165342
0.0052948323
0.0052612398
0.0052151746
0.0051563587
0.0050849373
0.0050015482
0.0049072974
0.0048036911
0.0046925204
0.0045757488
0.0044553808
0.0043333592
0.0042115481
0.0040916155
0.0039749742
0.0038629072
0.0037566542
0.0036573039
0.0035656501
0.0034821697
0.0034070242
0.003339999
0.0032804421
0.0032272369
0.0031789745
0.0031341962
0.003091495
0.0030497522
0.0030083569
0.0029670803
0.0029258895
0.0028848649
0.0028440098
0.0028032285
0.0027624558
0.0027216618
0.0026809465
0.0026404499
0.0026001946
0.0025601165
0.002520196
0.0024805075
0.0024410417
0.0024017039
0.0023624301
0.0023232771
0.0022842665
0.0022452685
0.002206228
0.0021672172
0.0021282126
0.0020890756
0.0020498134
0.0020104931
0.0019709706
0.00193122
0.0018913011
0.0018511047
0.0018106008
0.0017698319
0.0017286923
0.001687166
0.0016452881
0.0016029516
0.0015601576
0.0015169039
0.0014731258
0.0014288203
0.0013839513
0.0013385025
0.0012924442
0.0012457499
0.0011984114
0.0011503995
0.0011017035
0.0010523119
0.0010022245
0.00095144897
0.00089999595
0.0008478814
0.00079511749
0.00074174909
0.00068782697
0.00063358445
0.00057905173
0.00052517771
0.00047097831
0.00042156976
0.00036731926
0.00034156029
0.00026796841
0.00050393766
-0.00035028129
0.0052064711
0.0052352459
0.005258707
0.0052752603
0.0052834116
0.0052825312
0.0052719728
0.0052508635
0.0052184153
0.0051740814
0.0051175998
0.0050490838
0.00496909
0.0048786091
0.0047790087
0.0046719375
0.0045592217
0.0044427513
0.0043243818
0.0042059
0.0040889328
0.003974889
0.0038650447
0.0037606121
0.0036626572
0.0035719748
0.003489056
0.0034140844
0.0033468836
0.0032868646
0.0032330081
0.0031840105
0.0031385022
0.0030951601
0.0030529147
0.0030111472
0.0029695996
0.0029282068
0.0028870144
0.0028460144
0.0028051153
0.0027642515
0.0027233943
0.0026826282
0.0026420775
0.0026017656
0.0025616367
0.0025216711
0.0024819322
0.0024424122
0.0024030244
0.002363708
0.0023245097
0.0022854482
0.0022464053
0.0022073259
0.002168272
0.002129222
0.0020900474
0.002050749
0.0020113869
0.0019718291
0.0019320456
0.0018920902
0.0018518617
0.0018113278
0.0017705261
0.001729358
0.0016878047
0.0016458974
0.0016035355
0.0015607165
0.0015174376
0.0014736365
0.0014293084
0.0013844181
0.0013389488
0.0012928728
0.0012461636
0.0011988126
0.0011507928
0.0011020908
0.0010526927
0.0010025922
0.00095179007
0.00090029818
0.00084814526
0.00079536875
0.00074203822
0.00068820442
0.00063406962
0.00057962828
0.00052580616
0.00047163621
0.0004222094
0.00036797727
0.00034211564
0.00026819971
0.00050090986
-0.00034300829
0.0051680694
0.0051946799
0.0052165086
0.005231884
0.0052392739
0.00523803
0.0052275465
0.0052070114
0.0051756781
0.005133029
0.0050788138
0.0050131169
0.0049364217
0.0048496125
0.0047539281
0.0046508816
0.0045421683
0.0044295644
0.0043148362
0.0041996946
0.0040857199
0.0039743083
0.0038667248
0.0037641553
0.0036676436
0.0035779834
0.0034956788
0.0034209353
0.0033536143
0.0032931882
0.0032387305
0.003189039
0.0031428325
0.0030988689
0.0030561277
0.0030139878
0.0029721654
0.002930566
0.0028892031
0.0028480571
0.0028070392
0.0027660833
0.0027251608
0.0026843423
0.002643737
0.0026033688
0.0025631888
0.0025231774
0.002483388
0.0024438138
0.0024043758
0.0023650161
0.0023257721
0.0022866595
0.0022475712
0.0022084522
0.0021693547
0.002130259
0.0020910459
0.0020517107
0.0020123065
0.0019727126
0.0019328957
0.0018929032
0.0018526419
0.0018120774
0.0017712424
0.0017300453
0.0016884643
0.0016465272
0.0016041394
0.0015612949
0.0015179903
0.0014741657
0.0014298143
0.0013849019
0.0013394111
0.0012933147
0.0012465863
0.0011992172
0.0011511819
0.0011024669
0.0010530593
0.0010029521
0.00095214393
0.00090064243
0.00084846955
0.000795661
0.00074229407
0.00068843965
0.00063432334
0.000579948
0.00052621267
0.00047212754
0.00042272247
0.00036852776
0.00034256305
0.00026827717
0.00049724572
-0.00033485165
0.0051298232
0.0051543502
0.0051745488
0.0051887179
0.0051953234
0.0051937057
0.0051832867
0.0051633054
0.0051330545
0.0050920414
0.0050400235
0.0049770589
0.0049035648
0.0048203275
0.0047284662
0.0046293661
0.0045245965
0.0044158223
0.0043047191
0.0041929224
0.0040819622
0.0039732138
0.0038679268
0.0037672618
0.0036722405
0.0035836534
0.0035020165
0.0034275564
0.0033601721
0.0032993959
0.0032443891
0.0031940475
0.0031471767
0.0031026129
0.003059385
0.0030168741
0.0029747744
0.0029329648
0.0028914293
0.0028501363
0.0028089988
0.0027679498
0.0027269602
0.0026860878
0.0026454277
0.0026050032
0.0025647718
0.002524714
0.0024848742
0.0024452461
0.0024057577
0.0023663539
0.0023270639
0.0022879003
0.0022487661
0.0022096066
0.0021704652
0.0021313234
0.0020920711
0.0020526984
0.0020132517
0.0019736209
0.0019337699
0.0018937399
0.0018534452
0.0018128494
0.0017719808
0.0017307539
0.0016891446
0.0016471773
0.001604763
0.0015618925
0.0015185618
0.0014747133
0.0014303381
0.0013854031
0.0013398904
0.0012937728
0.0012470243
0.0011996356
0.0011515817
0.0011028492
0.0010534259
0.0010033051
0.00095248636
0.00090097695
0.00084879761
0.00079598068
0.00074259746
0.00068871562
0.00063456427
0.00058016328
0.00052642775
0.00047238957
0.00042302448
0.00036891075
0.00034287716
0.00026817753
0.00049294229
-0.00032578626
0.0050917133
0.0051142414
0.0051328298
0.0051457823
0.0051515894
0.0051495889
0.0051392229
0.0051197737
0.0050905704
0.0050511424
0.0050012517
0.0049409322
0.004870541
0.0047907745
0.0047026411
0.0046074049
0.0045065154
0.0044015284
0.0042940285
0.0041855755
0.0040776461
0.0039715879
0.0038686307
0.0037699098
0.0036764251
0.0035889621
0.0035080468
0.003433927
0.0033665379
0.00330547
0.0032499683
0.0031990225
0.0031515235
0.0031063831
0.0030626799
0.0030198011
0.002977423
0.0029354003
0.0028936907
0.0028522502
0.0028109925
0.0027698497
0.0027287914