/*--------------------------------*- C++ -*----------------------------------*\
  =========                 |
  \\      /  F ield         | OpenFOAM: The Open Source CFD Toolbox
   \\    /   O peration     | Website:  https://openfoam.org
    \\  /    A nd           | Version:  12
     \\/     M anipulation  |
\*---------------------------------------------------------------------------*/
FoamFile
{
    format      ascii;
    class       surfaceScalarField;
    location    "400";
    object      phi;
}
// * * * * * * * * * * * * * * * * * * * * * * * * * * * * * * * * * * * * * //

dimensions      [0 3 -1 0 0 0 0];

internalField   nonuniform List<scalar> 
14782
(
0.00079744546
1.4328294e-06
-0.00079887829
0.0007953087
2.1367616e-06
0.00079261529
2.6934095e-06
0.00078935053
3.2647579e-06
0.00078545517
3.8953643e-06
0.00078085043
4.6047431e-06
0.00077548828
5.3621487e-06
0.00076932931
6.1589712e-06
0.00076234415
6.9851612e-06
0.00075454633
7.7978147e-06
0.00074597209
8.5742422e-06
0.00073669233
9.2797599e-06
0.00072680314
9.8891913e-06
0.00071641949
1.0383652e-05
0.00070566117
1.0758315e-05
0.00069466274
1.0998426e-05
0.00068353668
1.1126063e-05
0.00067240266
1.1134016e-05
0.00066137909
1.1023579e-05
0.00065056447
1.0814614e-05
0.00064006123
1.0503242e-05
0.00062998527
1.0075961e-05
0.00062045255
9.5327174e-06
0.0006115564
8.8961488e-06
0.00060336958
8.1868265e-06
0.00059594485
7.4247269e-06
0.00058931133
6.633519e-06
0.0005834726
5.8387318e-06
0.00057839695
5.0756491e-06
0.00057400871
4.3882353e-06
0.00057019904
3.8096717e-06
0.00056683992
3.3591226e-06
0.00056379976
3.040163e-06
0.00056096695
2.8328026e-06
0.0005582635
2.7034555e-06
0.00055564477
2.6187279e-06
0.00055309083
2.5539428e-06
0.0005505942
2.4966282e-06
0.00054814751
2.446694e-06
0.00054573959
2.4079118e-06
0.00054335799
2.3816066e-06
0.00054099344
2.3645468e-06
0.00053864473
2.3487121e-06
0.0005363168
2.327929e-06
0.00053401582
2.3009847e-06
0.00053174584
2.2699741e-06
0.0005295081
2.2377454e-06
0.0005273027
2.2053962e-06
0.00052512948
2.1732229e-06
0.00052298861
2.1408619e-06
0.00052088044
2.1081712e-06
0.00051880536
2.0750851e-06
0.00051676323
2.0421312e-06
0.00051475321
2.0100163e-06
0.00051277476
1.9784522e-06
0.00051082765
1.9471048e-06
0.00050891136
1.9162932e-06
0.00050702496
1.8864054e-06
0.00050516791
1.8570431e-06
0.00050333981
1.8281069e-06
0.00050153956
1.8002439e-06
0.0004997664
1.7731644e-06
0.0004980197
1.7466995e-06
0.00049629857
1.721126e-06
0.00049460235
1.6962192e-06
0.00049293048
1.6718707e-06
0.00049128215
1.6483347e-06
0.0004896567
1.6254447e-06
0.00048805358
1.6031234e-06
0.00048647199
1.5815864e-06
0.00048491135
1.5606446e-06
0.00048337105
1.540301e-06
0.00048185042
1.5206286e-06
0.00048034891
1.5015103e-06
0.00047886593
1.4829762e-06
0.00047740096
1.464973e-06
0.00047595345
1.447504e-06
0.00047452289
1.4305617e-06
0.00047310879
1.4140986e-06
0.00047171066
1.3981317e-06
0.00047032803
1.3826282e-06
0.00046896046
1.3675788e-06
0.00046760749
1.3529677e-06
0.0004662687
1.3387838e-06
0.00046494369
1.3250186e-06
0.00046363202
1.3116681e-06
0.00046233329
1.298731e-06
0.00046104707
1.2862163e-06
0.00045977293
1.2741359e-06
0.0004585104
1.2625326e-06
0.00045725899
1.2514153e-06
0.000456018
1.2409912e-06
0.00045478683
1.2311631e-06
0.00045356385
1.2229809e-06
0.00045234883
1.2150219e-06
0.00045113429
1.2145358e-06
0.00044992676
1.2075361e-06
0.00044866156
1.2651937e-06
0.00044751973
1.1418339e-06
1.536055e-06
0.00082623399
1.5153553e-06
-0.00082631652
0.00082615417
2.2165841e-06
0.00082603381
2.813771e-06
0.00082588419
3.4143736e-06
0.00082569716
4.0823984e-06
0.00082546471
4.8371917e-06
0.0008251625
5.6643522e-06
0.00082475418
6.5672947e-06
0.00082420069
7.5386521e-06
0.00082345078
8.5477223e-06
0.00082244668
9.5783442e-06
0.00082112664
1.0599801e-05
0.00081942983
1.1585997e-05
0.00081729919
1.2514294e-05
0.00081468679
1.3370717e-05
0.00081155236
1.4132859e-05
0.00080786737
1.4811052e-05
0.00080361363
1.5387751e-05
0.00079878428
1.5852927e-05
0.00079337707
1.6221826e-05
0.00078738998
1.6490332e-05
0.00078083497
1.663097e-05
0.00077376904
1.6598649e-05
0.0007662752
1.6389993e-05
0.00075844101
1.6021011e-05
0.00075037223
1.5493507e-05
0.00074219115
1.4814603e-05
0.00073402993
1.3999947e-05
0.00072603
1.3075585e-05
0.00071834552
1.2072717e-05
0.00071112487
1.1030321e-05
0.00070446433
1.0019662e-05
0.00069838689
9.1176046e-06
0.00069285535
8.3643388e-06
0.00068779313
7.7656724e-06
0.000683105
7.3068626e-06
0.00067870231
6.9566294e-06
0.00067452002
6.6789196e-06
0.00067051734
6.4493698e-06
0.00066667206
6.2531982e-06
0.00066297163
6.0820336e-06
0.00065940509
5.9310848e-06
0.00065596044
5.7933605e-06
0.0006526238
5.6645779e-06
0.00064938062
5.5441647e-06
0.00064621854
5.4320463e-06
0.00064312941
5.326876e-06
0.00064010938
5.2254259e-06
0.0006371562
5.1264097e-06
0.00063426722
5.029835e-06
0.00063143908
4.9363163e-06
0.00062866869
4.8454686e-06
0.00062595369
4.7571393e-06
0.00062329195
4.671755e-06
0.00062068175
4.5886496e-06
0.00061812156
4.5072949e-06
0.00061560968
4.4281737e-06
0.00061314428
4.3518088e-06
0.00061072384
4.27748e-06
0.00060834705
4.2048945e-06
0.00060601235
4.1349469e-06
0.00060371844
4.0670782e-06
0.00060146417
4.0009662e-06
0.0005992482
3.9370976e-06
0.0005970693
3.8751116e-06
0.0005949264
3.8147802e-06
0.00059281823
3.7565004e-06
0.0005907437
3.6999743e-06
0.00058870179
3.6450285e-06
0.00058669138
3.5920041e-06
0.00058471145
3.5405751e-06
0.00058276104
3.4907062e-06
0.00058083917
3.4424979e-06
0.00057894493
3.3957499e-06
0.00057707742
3.3504903e-06
0.00057523578
3.306611e-06
0.00057341919
3.2640953e-06
0.00057162684
3.222913e-06
0.00056985797
3.1829659e-06
0.00056811184
3.1442636e-06
0.00056638773
3.1067395e-06
0.00056468494
3.0703618e-06
0.00056300282
3.0350908e-06
0.00056134071
3.0008951e-06
0.00055969798
2.9677499e-06
0.00055807401
2.9356384e-06
0.00055646819
2.9045539e-06
0.0005548799
2.874504e-06
0.00055330852
2.8455161e-06
0.00055175341
2.8176377e-06
0.00055021382
2.7910057e-06
0.00054868905
2.7657619e-06
0.00054717775
2.7424645e-06
0.00054567944
2.7212891e-06
0.00054418987
2.7045891e-06
0.00054271073
2.6936768e-06
0.00054122423
2.6940379e-06
0.00053974772
2.7417058e-06
0.00053810799
2.7815652e-06
3.0207477e-06
0.00085390695
1.5665462e-06
-0.00085395814
0.00085388667
2.2368617e-06
0.00085386139
2.8390499e-06
0.0008538355
3.440267e-06
0.00085381328
4.1046162e-06
0.00085380044
4.8500296e-06
0.00085379726
5.667537e-06
0.00085380782
6.5567292e-06
0.00085383601
7.5104692e-06
0.00085387879
8.5049403e-06
0.00085393411
9.5230236e-06
0.00085399594
1.0537972e-05
0.00085405637
1.1525566e-05
0.00085410544
1.2465222e-05
0.00085413238
1.3343781e-05
0.00085412131
1.4143921e-05
0.00085406
1.4872367e-05
0.00085392913
1.551862e-05
0.00085370577
1.6076289e-05
0.00085336567
1.6561929e-05
0.00085287749
1.6978508e-05
0.00085218383
1.7324627e-05
0.00085118715
1.7595333e-05
0.00084978273
1.779441e-05
0.00084787387
1.7929871e-05
0.00084535888
1.8008503e-05
0.00084213439
1.8039086e-05
0.00083810346
1.8030877e-05
0.00083318719
1.7991854e-05
0.00082733363
1.7926276e-05
0.00082058647
1.7777486e-05
0.00081310577
1.7500363e-05
0.00080512619
1.709718e-05
0.00079693696
1.6553568e-05
0.00078882952
1.5873119e-05
0.0007810581
1.5078276e-05
0.00077380805
1.4206685e-05
0.00076715957
1.3327399e-05
0.00076108544
1.2523498e-05
0.00075549716
1.1841481e-05
0.00075028874
1.1290451e-05
0.00074536817
1.0851652e-05
0.00074067429
1.0487247e-05
0.00073617313
1.016573e-05
0.00073184646
9.8708375e-06
0.00072768154
9.5969634e-06
0.00072366571
9.3427061e-06
0.00071978546
9.1056845e-06
0.00071602676
8.8851087e-06
0.00071237689
8.6797052e-06
0.00070882585
8.4873513e-06
0.00070536688
8.3044408e-06
0.000701995
8.1290154e-06
0.00069870538
7.9613824e-06
0.00069549325
7.8007763e-06
0.00069235441
7.6461357e-06
0.00068928519
7.4973866e-06
0.00068628233
7.3546756e-06
0.000683343
7.2168095e-06
0.00068046463
7.083262e-06
0.00067764454
6.9550343e-06
0.00067488047
6.8311532e-06
0.00067217041
6.7110251e-06
0.00066951226
6.5952463e-06
0.0006669041
6.4832757e-06
0.00066434417
6.374704e-06
0.00066183069
6.269988e-06
0.00065936199
6.1686703e-06
0.00065693657
6.0704461e-06
0.00065455285
5.9757224e-06
0.0006522094
5.8840274e-06
0.00064990485
5.7952561e-06
0.00064763785
5.7095037e-06
0.00064540712
5.6264806e-06
0.00064321141
5.5461909e-06
0.00064104957
5.4684598e-06
0.00063892043
5.393233e-06
0.0006368229
5.3204408e-06
0.00063475594
5.2499238e-06
0.00063271854
5.181667e-06
0.00063070972
5.1155613e-06
0.00062872854
5.051541e-06
0.0006267741
4.9895326e-06
0.00062484552
4.929475e-06
0.00062294195
4.871318e-06
0.00062106256
4.8150238e-06
0.00061920654
4.7605728e-06
0.00061737308
4.7079628e-06
0.00061556136
4.6572384e-06
0.00061377056
4.6084354e-06
0.00061199972
4.5618479e-06
0.00061024802
4.5174617e-06
0.00060851375
4.4767405e-06
0.00060679667
4.4383638e-06
0.00060509109
4.4101742e-06
0.00060340153
4.3832336e-06
0.00060170142
4.3941509e-06
0.00060003912
4.4040015e-06
0.00059809508
4.7256032e-06
4.5874783e-06
0.00088245437
1.6241488e-06
-0.00088251197
0.00088243297
2.2582573e-06
0.00088241777
2.8542516e-06
0.00088240464
3.4533998e-06
0.00088239732
4.1119313e-06
0.00088240104
4.8463158e-06
0.00088241839
5.6501866e-06
0.00088245351
6.5216073e-06
0.00088250923
7.4547496e-06
0.00088258463
8.4295365e-06
0.00088267973
9.4279281e-06
0.00088279194
1.0425756e-05
0.00088291771
1.1399803e-05
0.00088305269
1.2330237e-05
0.00088319296
1.3203514e-05
0.00088333281
1.4004068e-05
0.00088347074
1.4734441e-05
0.00088360242
1.5386939e-05
0.00088372284
1.5955871e-05
0.00088383007
1.6454698e-05
0.00088392159
1.6886984e-05
0.00088399363
1.7252587e-05
0.0008840404
1.7548564e-05
0.0008840545
1.7780306e-05
0.00088402659
1.7957786e-05
0.00088394364
1.8091453e-05
0.00088378818
1.8194545e-05
0.00088353611
1.8282945e-05
0.00088315165
1.8376318e-05
0.00088257909
1.8498834e-05
0.00088169425
1.8662327e-05
0.00088032248
1.8872134e-05
0.00087829044
1.912922e-05
0.00087542744
1.9416563e-05
0.00087159551
1.9705049e-05
0.00086671082
1.9962973e-05
0.00086080254
2.0114965e-05
0.00085405744
2.0072499e-05
0.00084676839
1.981254e-05
0.00083926446
1.9345414e-05
0.00083185406
1.870085e-05
0.00082477816
1.7927557e-05
0.00081816803
1.7097371e-05
0.00081203609
1.629767e-05
0.00080631975
1.5587184e-05
0.00080093188
1.4984831e-05
0.00079579878
1.4475801e-05
0.00079087494
1.4029529e-05
0.0007861369
1.3623153e-05
0.00078157152
1.3245078e-05
0.00077716725
1.289162e-05
0.00077291146
1.2560237e-05
0.00076879083
1.2249645e-05
0.00076479284
1.195937e-05
0.00076090745
1.1686168e-05
0.00075712718
1.1426407e-05
0.00075344586
1.1178706e-05
0.00074985764
1.0942898e-05
0.0007463572
1.0717247e-05
0.00074293986
1.0500597e-05
0.00073960125
1.0293652e-05
0.00073633761
1.0094784e-05
0.00073314563
9.9030056e-06
0.00073002201
9.7188724e-06
0.00072696379
9.5414976e-06
0.00072396833
9.3701614e-06
0.00072103303
9.2052861e-06
0.00071815552
9.0461855e-06
0.00071533361
8.8923548e-06
0.00071256513
8.7441977e-06
0.00070984811
8.6010538e-06
0.00070718065
8.4627069e-06
0.00070456095
8.3292067e-06
0.00070198729
8.2001454e-06
0.000699458
8.0754731e-06
0.00069697154
7.954927e-06
0.00069452638
7.8383934e-06
0.00069212107
7.7257426e-06
0.00068975426
7.616737e-06
0.00068742461
7.5113186e-06
0.00068513085
7.4093215e-06
0.00068287176
7.3106321e-06
0.00068064616
7.2151307e-06
0.00067845292
7.1227148e-06
0.00067629094
7.0332977e-06
0.00067415916
6.94681e-06
0.00067205652
6.8632104e-06
0.000669982
6.7824766e-06
0.00066793457
6.7046682e-06
0.00066591321
6.6297985e-06
0.00066391674
6.5583234e-06
0.00066194417
6.4900311e-06
0.00065999351
6.4273982e-06
0.00065806453
6.3673372e-06
0.00065615075
6.3239554e-06
0.00065425796
6.2760274e-06
0.00065235463
6.2974762e-06
0.00065050811
6.2505298e-06
0.00064830133
6.9323799e-06
6.2714802e-06
0.00091195918
1.6874359e-06
-0.00091202247
0.00091193032
2.2871175e-06
0.00091191243
2.8721388e-06
0.00091189935
3.4664853e-06
0.00091189403
4.1172522e-06
0.00091190098
4.8393632e-06
0.00091192284
5.6283223e-06
0.00091196265
6.4817993e-06
0.00091202293
7.3944771e-06
0.00091210371
8.3487556e-06
0.00091220487
9.3267635e-06
0.00091232426
1.0306368e-05
0.00091245859
1.1265467e-05
0.00091260401
1.2184824e-05
0.00091275672
1.30508e-05
0.00091291165
1.3849141e-05
0.00091306672
1.457937e-05
0.00091321846
1.5235201e-05
0.00091336321
1.5811114e-05
0.00091350016
1.631775e-05
0.00091362834
1.6758805e-05
0.00091374647
1.7134456e-05
0.00091385244
1.74426e-05
0.00091394463
1.7688112e-05
0.00091402167
1.7880745e-05
0.00091408163
1.803149e-05
0.00091412273
1.8153451e-05
0.00091414329
1.8262383e-05
0.00091414171
1.8377896e-05
0.00091411709
1.8523458e-05
0.00091406566
1.8713758e-05
0.00091397942
1.8958372e-05
0.00091384521
1.9263429e-05
0.00091364108
1.9620694e-05
0.00091333127
2.0014858e-05
0.00091286086
2.0433377e-05
0.00091211247
2.0863355e-05
0.00091089398
2.1290992e-05
0.00090899746
2.1709056e-05
0.00090623632
2.2106555e-05
0.00090247359
2.2463584e-05
0.00089766863
2.2732514e-05
0.00089194441
2.2821599e-05
0.00088556398
2.2678095e-05
0.00087884134
2.230982e-05
0.00087208359
2.1742581e-05
0.00086552887
2.1030522e-05
0.00085930101
2.0257391e-05
0.00085341632
1.9507845e-05
0.00084783114
1.8830255e-05
0.0008424886
1.8234159e-05
0.00083734723
1.7701608e-05
0.00083238459
1.7212283e-05
0.00082758883
1.6755131e-05
0.0008229506
1.6324406e-05
0.00081845949
1.5917518e-05
0.00081410411
1.5534085e-05
0.00080987369
1.5173317e-05
0.00080575959
1.4831341e-05
0.000801755
1.4505188e-05
0.00079785366
1.4194999e-05
0.00079404986
1.3898581e-05
0.00079033843
1.3614436e-05
0.00078671455
1.3342755e-05
0.000783174
1.3082041e-05
0.00077971302
1.2831141e-05
0.00077632796
1.2590349e-05
0.00077301551
1.2358632e-05
0.00076977269
1.2135177e-05
0.00076659658
1.1920307e-05
0.00076348453
1.1713107e-05
0.00076043404
1.1513194e-05
0.00075744273
1.1320519e-05
0.00075450836
1.1134515e-05
0.00075162879
1.095504e-05
0.00074880201
1.0781709e-05
0.00074602608
1.0614322e-05
0.00074329916
1.0452664e-05
0.0007406195
1.0296396e-05
0.00073798542
1.0145397e-05
0.00073539532
9.999426e-06
0.00073284765
9.8583038e-06
0.00073034093
9.7218498e-06
0.00072787374
9.5899061e-06
0.0007254447
9.4623366e-06
0.00072305248
9.3390281e-06
0.00072069578
9.2199061e-06
0.00071837334
9.1049176e-06
0.00071608388
8.9941294e-06
0.00071382616
8.8875226e-06
0.00071159876
8.7857157e-06
0.00070940052
8.6882742e-06
0.00070722918
8.598738e-06
0.00070508441
8.5121123e-06
0.00070295917
8.4491952e-06
0.00070085995
8.3752476e-06
0.00069875164
8.4057818e-06
0.00069671628
8.2858883e-06
0.00069425711
9.3915517e-06
8.090216e-06
0.00094245338
1.7534941e-06
-0.00094251944
0.00094241843
2.3220649e-06
0.00094239624
2.8943301e-06
0.0009423808
3.4819283e-06
0.00094237459
4.1234539e-06
0.00094238147
4.8324889e-06
0.00094240387
5.6059181e-06
0.00094244444
6.4412359e-06
0.00094250556
7.3333522e-06
0.00094258756
8.2667567e-06
0.00094269007
9.2242545e-06
0.00094281108
1.0185359e-05
0.00094294743
1.1129115e-05
0.00094309534
1.2036915e-05
0.00094325111
1.2895025e-05
0.00094341022
1.369004e-05
0.00094357018
1.4419408e-05
0.00094372781
1.5077569e-05
0.00094387962
1.5659301e-05
0.00094402469
1.6172685e-05
0.00094416199
1.66215e-05
0.00094429048
1.7005969e-05
0.00094440838
1.7324694e-05
0.00094451416
1.7582338e-05
0.0009446068
1.7788101e-05
0.00094468583
1.7952462e-05
0.00094475099
1.8088294e-05
0.00094480233
1.8211038e-05
0.00094484051
1.8339718e-05
0.00094486723
1.8496742e-05
0.00094488398
1.8697004e-05
0.00094489212
1.8950236e-05
0.00094489275
1.9262798e-05
0.00094488504
1.9628404e-05
0.00094486608
2.0033822e-05
0.00094483149
2.0467966e-05
0.00094477357
2.0921277e-05
0.00094467759
2.1386967e-05
0.00094452126
2.186539e-05
0.0009442717
2.2356112e-05
0.00094387841
2.2856872e-05
0.00094324691
2.3364016e-05
0.0009422048
2.3863706e-05
0.0009405403
2.4342595e-05
0.00093806269
2.4787431e-05
0.00093462658
2.517869e-05
0.00093020666
2.5450439e-05
0.00092494339
2.5520666e-05
0.00091908787
2.5363366e-05
0.00091293323
2.4984893e-05
0.00090674897
2.4418423e-05
0.00090071604
2.373453e-05
0.00089490851
2.301982e-05
0.00088932678
2.2336854e-05
0.00088394232
2.1708869e-05
0.00087872931
2.1130526e-05
0.00087367347
2.0589925e-05
0.00086876767
2.0079116e-05
0.00086400605
1.9592967e-05
0.00085938112
1.9130117e-05
0.00085488412
1.8691995e-05
0.00085050716
1.8275545e-05
0.00084624371
1.787789e-05
0.00084208793
1.749853e-05
0.0008380345
1.713547e-05
0.00083407845
1.6787187e-05
0.00083021509
1.6453715e-05
0.00082644021
1.613351e-05
0.00082275001
1.5825379e-05
0.0008191408
1.5529513e-05
0.00081560923
1.5244679e-05
0.00081215216
1.4970263e-05
0.00080876661
1.4706073e-05
0.00080544979
1.4451337e-05
0.00080219904
1.4205782e-05
0.00079901188
1.396887e-05
0.00079588592
1.3740281e-05
0.0007928189
1.351969e-05
0.00078980866
1.3306634e-05
0.00078685315
1.3100906e-05
0.00078395041
1.2902171e-05
0.00078109854
1.2710168e-05
0.00077829575
1.252464e-05
0.0007755403
1.2345357e-05
0.00077283052
1.2172122e-05
0.00077016478
1.2004765e-05
0.00076754152
1.1843165e-05
0.00076495921
1.1687228e-05
0.00076241632
1.1537019e-05
0.00075991137
1.1392477e-05
0.0007574427
1.1254379e-05
0.00075500892
1.1122054e-05
0.00075260753
1.1000129e-05
0.00075023802
1.088162e-05
0.00074789293
1.0794287e-05
0.00074557918
1.0689e-05
0.00074325861
1.0726348e-05
0.00074102619
1.0518315e-05
0.00073831294
1.21048e-05
1.0057216e-05
0.0009739676
1.8206557e-06
-0.00097403476
0.00097392849
2.361169e-06
0.00097390306
2.9197577e-06
0.00097388558
3.4994124e-06
0.00097387812
4.1309162e-06
0.00097388407
4.8265372e-06
0.00097390583
5.5841566e-06
0.00097394588
6.4011831e-06
0.0009740065
7.2727329e-06
0.00097408816
8.1850998e-06
0.00097419046
9.1219591e-06
0.00097431156
1.0064258e-05
0.00097444845
1.0992217e-05
0.00097459746
1.1887905e-05
0.00097475489
1.2737604e-05
0.00097491641
1.3528518e-05
0.00097507927
1.4256546e-05
0.00097524037
1.4916465e-05
0.00097539636
1.5503315e-05
0.00097554598
1.6023065e-05
0.00097568817
1.6479314e-05
0.00097582178
1.6872357e-05
0.00097594515
1.7201319e-05
0.00097605696
1.7470535e-05
0.00097615633
1.7688722e-05
0.00097624275
1.7866044e-05
0.0009763161
1.8014949e-05
0.00097637658
1.8150554e-05
0.00097642515
1.8291144e-05
0.00097646402
1.8457874e-05
0.00097649536
1.8665672e-05
0.00097652138
1.8924214e-05
0.00097654444
1.9239736e-05
0.00097656568
1.9607164e-05
0.00097658502
2.001448e-05
0.00097660174
2.0451246e-05
0.00097661436
2.0908655e-05
0.00097662054
2.1380785e-05
0.00097661748
2.1868449e-05
0.0009766013
2.2372295e-05
0.00097656671
2.289146e-05
0.0009765059
2.342483e-05
0.000976403
2.3966607e-05
0.00097623195
2.451364e-05
0.00097595373
2.5065653e-05
0.00097550993
2.5622495e-05
0.00097478255
2.6177818e-05
0.00097358581
2.6717408e-05
0.00097172137
2.7227803e-05
0.00096901526
2.7691002e-05
0.00096537684
2.8056848e-05
0.00096086587
2.82455e-05
0.00095567383
2.8211861e-05
0.00095005865
2.7952029e-05
0.00094427967
2.7487851e-05
0.00093852714
2.6883056e-05
0.00093289697
2.6220099e-05
0.00092741509
2.5560989e-05
0.00092207639
2.4931664e-05
0.00091687205
2.433446e-05
0.00091179815
2.3765897e-05
0.00090685369
2.3220002e-05
0.00090203634
2.2695245e-05
0.00089734127
2.2193593e-05
0.00089276302
2.1713721e-05
0.0008882966
2.125361e-05
0.00088393738
2.0812935e-05
0.00087968103
2.038986e-05
0.00087552338
1.998303e-05
0.00087146033
1.9592567e-05
0.00086748811
1.9216897e-05
0.00086360318
1.8855193e-05
0.00085980211
1.8507135e-05
0.00085608171
1.8171741e-05
0.0008524389
1.7848591e-05
0.00084887079
1.7536982e-05
0.00084537461
1.7236466e-05
0.0008419477
1.6946594e-05
0.00083858757
1.6666765e-05
0.0008352918
1.6396676e-05
0.00083205809
1.6135886e-05
0.00082888421
1.5884041e-05
0.00082576806
1.5640795e-05
0.00082270758
1.5405839e-05
0.0008197008
1.51789e-05
0.00081674582
1.4959742e-05
0.0008138408
1.474819e-05
0.00081098393
1.4544099e-05
0.00080817342
1.4347523e-05
0.00080540755
1.415835e-05
0.00080268441
1.3977514e-05
0.00080000237
1.3804095e-05
0.00079735868
1.364382e-05
0.00079475263
1.3487667e-05
0.00079217637
1.3370549e-05
0.00078963713
1.3228242e-05
0.00078709393
1.3269543e-05
0.00078465388
1.2958367e-05
0.00078167874
1.5079943e-05
1.2184959e-05
0.001006535
1.8880119e-06
-0.0010066023
0.001006493
2.4032042e-06
0.0010064652
2.9474653e-06
0.0010064465
3.5181701e-06
0.0010064383
4.139116e-06
0.0010064436
4.8211858e-06
0.0010064648
5.5629654e-06
0.0010065042
6.3618087e-06
0.0010065639
7.2130052e-06
0.0010066447
8.1043802e-06
0.001006746
9.0205787e-06
0.0010068664
9.9438605e-06
0.001007003
1.0855618e-05
0.0010071523
1.1738646e-05
0.0010073105
1.2579346e-05
0.0010074737
1.3365411e-05
0.0010076386
1.4091569e-05
0.0010078024
1.4752702e-05
0.0010079617
1.5344042e-05
0.0010081149
1.5869826e-05
0.0010082609
1.6333278e-05
0.0010083985
1.6734757e-05
0.0010085261
1.7073792e-05
0.0010086422
1.7354416e-05
0.0010087461
1.7584851e-05
0.0010088372
1.7774945e-05
0.0010089154
1.7936734e-05
0.001008981
1.8084893e-05
0.0010090352
1.8236997e-05
0.00100908
1.8413098e-05
0.0010091177
1.862795e-05
0.0010091507
1.8891184e-05
0.0010091816
1.9208857e-05
0.0010092119
1.9576839e-05
0.0010092421
1.9984264e-05
0.0010092721
2.042129e-05
0.0010093011
2.0879643e-05
0.0010093282
2.135371e-05
0.0010093526
2.1844022e-05
0.0010093736
2.2351333e-05
0.00100939
2.2874985e-05
0.0010094008
2.3414068e-05
0.0010094033
2.3964093e-05
0.0010093937
2.4523201e-05
0.0010093668
2.509265e-05
0.0010093153
2.5673923e-05
0.0010092273
2.6265844e-05
0.0010090797
2.6864998e-05
0.0010088368
2.7470693e-05
0.0010084458
2.8081993e-05
0.0010078092
2.8693518e-05
0.0010067642
2.9290498e-05
0.0010051198
2.985619e-05
0.0010026989
3.0372959e-05
0.00099940139
3.078536e-05
0.00099526551
3.1018933e-05
0.00099045128
3.1034333e-05
0.00098519186
3.0820409e-05
0.00097972244
3.0401083e-05
0.00097421479
2.9842104e-05
0.0009687611
2.9219592e-05
0.00096339589
2.8585212e-05
0.00095812833
2.796281e-05
0.00095296266
2.7359257e-05
0.00094790386
2.677252e-05
0.00094295528
2.6202197e-05
0.00093811693
2.5651281e-05
0.0009333869
2.5119888e-05
0.00092876271
2.4607221e-05
0.0009242416
2.4113681e-05
0.00091982069
2.3637803e-05
0.00091549694
2.3178944e-05
0.0009112672
2.273688e-05
0.00090712839
2.2310546e-05
0.00090307749
2.1899494e-05
0.00089911153
2.150294e-05
0.00089522763
2.1120367e-05
0.00089142298
2.0751243e-05
0.00088769488
2.0394862e-05
0.00088404071
2.0050847e-05
0.00088045793
1.9718667e-05
0.00087694408
1.9397887e-05
0.0008734968
1.9088078e-05
0.00087011379
1.8788854e-05
0.00086679282
1.8499869e-05
0.00086353174
1.8220821e-05
0.00086032845
1.7951478e-05
0.00085718091
1.7691642e-05
0.00085408708
1.7441351e-05
0.00085104499
1.7200443e-05
0.0008480525
1.6970003e-05
0.00084510773
1.6748861e-05
0.0008422077
1.6543848e-05
0.00083935149
1.6343879e-05
0.00083653087
1.6191171e-05
0.00083375332
1.6005789e-05
0.00083097515
1.6047714e-05
0.0008283153
1.5618223e-05
0.00082506682
1.8328421e-05
1.4485863e-05
0.0010401905
1.9549842e-06
-0.0010402575
0.0010401464
2.4473676e-06
0.0010401169
2.9769019e-06
0.0010400974
3.5377044e-06
0.0010400889
4.147573e-06
0.0010400942
4.8159475e-06
0.0010401152
5.5419137e-06
0.0010401542
6.3227823e-06
0.0010402133
7.1539657e-06
0.0010402931
8.0245737e-06
0.0010403934
8.9202581e-06
0.0010405128
9.8244857e-06
0.0010406486
1.0719786e-05
0.0010407976
1.1589712e-05
0.001040956
1.2420873e-05
0.00104112
1.3201385e-05
0.0010412865
1.3925104e-05
0.0010414523
1.458688e-05
0.0010416143
1.5182083e-05
0.0010417706
1.5713505e-05
0.00104192
1.6183897e-05
0.0010420611
1.6593649e-05
0.0010421923
1.6942599e-05
0.0010423122
1.7234514e-05
0.0010424199
1.7477122e-05
0.001042515
1.7679927e-05
0.0010425971
1.7854554e-05
0.0010426668
1.8015199e-05
0.0010427251
1.8178729e-05
0.001042774
1.8364173e-05
0.0010428159
1.8586029e-05
0.0010428533
1.8853849e-05
0.0010428886
1.9173553e-05
0.0010429236
1.9541851e-05
0.0010429589
1.9948942e-05
0.0010429946
2.0385576e-05
0.0010430303
2.0843973e-05
0.0010430652
2.1318766e-05
0.0010430991
2.1810134e-05
0.0010431317
2.2318762e-05
0.0010431626
2.2844033e-05
0.0010431916
2.3385047e-05
0.0010432179
2.3937854e-05
0.0010432402
2.4500843e-05
0.0010432574
2.5075448e-05
0.0010432681
2.5663318e-05
0.0010432699
2.626395e-05
0.0010432594
2.6875554e-05
0.0010432308
2.7499293e-05
0.0010431764
2.8136346e-05
0.001043084
2.8785977e-05
0.0010429303
2.9444216e-05
0.0010426778
3.0108606e-05
0.0010422719
3.0778867e-05
0.0010416106
3.1446711e-05
0.001040534
3.2095509e-05
0.0010388609
3.2707428e-05
0.0010364254
3.3255904e-05
0.0010331525
3.3673964e-05
0.0010290977
3.3896928e-05
0.00102442
3.3897347e-05
0.0010193383
3.3666852e-05
0.0010140572
3.3243963e-05
0.0010087173
3.2699082e-05
0.001003394
3.2095875e-05
0.00099812074
3.1475444e-05
0.00099291476
3.0857256e-05
0.00098778891
3.0245741e-05
0.00098275265
2.9643481e-05
0.00097781105
2.9055278e-05
0.00097296613
2.8482723e-05
0.0009682183
2.7926781e-05
0.00096356703
2.7388145e-05
0.00095901119
2.686639e-05
0.00095454906
2.6361625e-05
0.00095017863
2.5873368e-05
0.00094589769
2.5401306e-05
0.0009417039
2.4945037e-05
0.00093759484
2.4503913e-05
0.00093356809
2.4077606e-05
0.00092962116
2.366559e-05
0.00092575163
2.3267416e-05
0.00092195708
2.2882631e-05
0.00091823512
2.2510813e-05
0.00091458341
2.2151577e-05
0.00091099966
2.1804576e-05
0.00090748159
2.1469542e-05
0.000904027
2.1146238e-05
0.00090063365
2.0834698e-05
0.00089729938
2.0534717e-05
0.00089402184
2.0247536e-05
0.00089079896
1.9971745e-05
0.00088762752
1.9715286e-05
0.0008845064
1.9465e-05
0.00088142704
1.9270534e-05
0.00087839713
1.9035692e-05
0.00087537031
1.9074539e-05
0.0008724773
1.8511235e-05
0.00086894173
2.1863986e-05
1.6972639e-05
0.0010749705
2.0211549e-06
-0.0010750367
0.0010749249
2.4930239e-06
0.0010748941
3.0077002e-06
0.001074874
3.5577617e-06
0.0010748655
4.1560503e-06
0.001074871
4.8105446e-06
0.0010748922
5.5206816e-06
0.0010749312
6.2837542e-06
0.0010749899
7.095266e-06
0.0010750691
7.9454044e-06
0.0010751685
8.8208215e-06
0.0010752869
9.7060937e-06
0.0010754219
1.0584831e-05
0.0010755702
1.1441352e-05
0.0010757286
1.226254e-05
0.001075893
1.3036894e-05
0.0010760605
1.3757629e-05
0.0010762279
1.4419489e-05
0.0010763921
1.5017937e-05
0.001076551
1.5554558e-05
0.0010767033
1.6031582e-05
0.0010768476
1.6449399e-05
0.0010769821
1.6808078e-05
0.0010771055
1.7111141e-05
0.0010772167
1.7365837e-05
0.0010773154
1.7581304e-05
0.0010774012
1.7768747e-05
0.0010774745
1.7941867e-05
0.0010775364
1.8116827e-05
0.0010775889
1.8311686e-05
0.0010776343
1.8540631e-05
0.001077675
1.8813115e-05
0.0010777136
1.9134952e-05
0.0010777519
1.9503607e-05
0.0010777905
1.9910288e-05
0.0010778298
2.0346348e-05
0.0010778693
2.0804474e-05
0.0010779085
2.1279543e-05
0.0010779472
2.1771409e-05
0.0010779853
2.2280633e-05
0.0010780228
2.2806596e-05
0.0010780594
2.3348386e-05
0.0010780948
2.3902438e-05
0.0010781285
2.4467216e-05
0.0010781599
2.5044069e-05
0.0010781885
2.5634633e-05
0.0010782139
2.6238623e-05
0.0010782348
2.6854657e-05
0.0010782499
2.7484179e-05
0.0010782574
2.8128786e-05
0.001078255
2.8788419e-05
0.0010782384
2.9460843e-05
0.0010782009
3.0146045e-05
0.0010781337
3.0846087e-05
0.0010780214
3.1559013e-05
0.0010778365
3.2280449e-05
0.0010775359
3.3008031e-05
0.0010770524
3.3739352e-05
0.0010762655
3.4460879e-05
0.0010750096
3.5152801e-05
0.0010731101
3.5796919e-05
0.0010704376
3.6339295e-05
0.0010669683
3.6713313e-05
0.0010627911
3.6876263e-05
0.0010580848
3.6802108e-05
0.0010530529
3.6507346e-05
0.0010478605
3.6049667e-05
0.0010426121
3.5494203e-05
0.0010373634
3.4892106e-05
0.0010321458
3.4272946e-05
0.0010269806
3.3647856e-05
0.0010218836
3.3023826e-05
0.0010168646
3.2407168e-05
0.0010119294
3.1801533e-05
0.0010070815
3.1209539e-05
0.0010023226
3.0632258e-05
0.00099765336
3.0070576e-05
0.00099307343
2.9524971e-05
0.00098858196
2.8995377e-05
0.00098417766
2.8481911e-05
0.0009798589
2.7984348e-05
0.00097562385
2.7502462e-05
0.00097147054
2.7035947e-05
0.00096739687
2.6584484e-05
0.00096340069
2.6147751e-05
0.00095947982
2.5725445e-05
0.00095563204
2.5317326e-05
0.0009518551
2.4923171e-05
0.00094814675
2.4543051e-05
0.00094450472
2.4176752e-05
0.00094092655
2.3825698e-05
0.00093741004
2.3488262e-05
0.00093395181
2.3173514e-05
0.00093055057
2.2866239e-05
0.00092719748
2.2623622e-05
0.00092390046
2.2332711e-05
0.00092061049
2.2364513e-05
0.00091747019
2.1651537e-05
0.0009136323
2.5701874e-05
1.9658394e-05
0.0011109126
2.0862091e-06
-0.0011109777
0.001110866
2.539622e-06
0.0011108342
3.0395458e-06
0.0011108138
3.5781892e-06
0.0011108054
4.1644511e-06
0.001110811
4.8048768e-06
0.0011108326
5.499135e-06
0.0011108718
6.2445366e-06
0.0011109304
7.0366681e-06
0.0011110092
7.8666271e-06
0.001111108
8.7220376e-06
0.0011112256
9.5885063e-06
0.0011113597
1.045066e-05
0.0011115075
1.1293577e-05
0.0011116656
1.2104463e-05
0.0011118303
1.2872162e-05
0.0011119985
1.358943e-05
0.0011121671
1.4250864e-05
0.0011123331
1.4851981e-05
0.0011124943
1.5393358e-05
0.0011126492
1.587669e-05
0.0011127962
1.6302332e-05
0.0011129338
1.6670522e-05
0.0011130604
1.6984556e-05
0.001113175
1.7251221e-05
0.001113277
1.7479275e-05
0.0011133663
1.7679498e-05
0.0011134431
1.7865077e-05
0.0011135084
1.8051485e-05
0.0011135642
1.8255857e-05
0.0011136129
1.8492017e-05
0.0011136567
1.8769314e-05
0.0011136981
1.9093469e-05
0.0011137391
1.9462629e-05
0.0011137804
1.9868968e-05
0.0011138223
2.030444e-05
0.0011138646
2.0762195e-05
0.0011139068
2.1237346e-05
0.0011139488
2.1729467e-05
0.0011139904
2.2238981e-05
0.0011140318
2.2765252e-05
0.0011140728
2.3307354e-05
0.0011141132
2.3862054e-05
0.0011141525
2.4427858e-05
0.0011141906
2.5005976e-05
0.0011142273
2.5597959e-05
0.0011142623
2.6203641e-05
0.0011142951
2.6821852e-05
0.0011143253
2.7454008e-05
0.0011143523
2.8101775e-05
0.0011143754
2.8765318e-05
0.0011143933
2.9442925e-05
0.0011144042
3.0135089e-05
0.0011144061
3.0844254e-05
0.0011143955
3.1569604e-05
0.001114367
3.2308915e-05
0.0011143124
3.3062683e-05
0.0011142196
3.3832084e-05
0.0011140672
3.4613268e-05
0.0011138186
3.5401455e-05
0.0011134199
3.619558e-05
0.0011127747
3.6984538e-05
0.0011117383
3.7749668e-05
0.0011101426
3.8471979e-05
0.0011078391