/*--------------------------------*- C++ -*----------------------------------*\
  =========                 |
  \\      /  F ield         | OpenFOAM: The Open Source CFD Toolbox
   \\    /   O peration     | Website:  https://openfoam.org
    \\  /    A nd           | Version:  12
     \\/     M anipulation  |
\*---------------------------------------------------------------------------*/
FoamFile
{
    format      ascii;
    class       volVectorField;
    location    "400";
    object      U;
}
// * * * * * * * * * * * * * * * * * * * * * * * * * * * * * * * * * * * * * //

dimensions      [0 1 -1 0 0 0 0];

internalField   nonuniform List<vector> 
7480
(
(0.99631863 0.00030290667 0)
(0.99395128 0.00033014036 -5.2175127e-20)
(0.9909417 0.00049862312 0)
(0.98725115 0.00067175705 0)
(0.98279647 0.00085517195 0)
(0.97750844 0.00098079412 -1.7102248e-17)
(0.97128438 0.001060338 -3.1728261e-19)
(0.96410031 0.001291367 0)
(0.95589957 0.0015358771 0)
(0.94666137 0.001772028 0)
(0.93641907 0.0019930424 0)
(0.92524539 0.0021899011 0)
(0.91324553 0.0023534451 0)
(0.90055355 0.002472484 0)
(0.88731975 0.0025564232 0)
(0.87369978 0.0025660665 0)
(0.85986502 0.0025423581 0)
(0.84592947 0.0024710893 0)
(0.83207666 0.0023550213 0)
(0.81842213 0.0022065918 0)
(0.80508911 0.0020277796 0)
(0.7922129 0.0018223481 0)
(0.77995108 0.0016014224 0)
(0.76843274 0.0013761121 0)
(0.75776009 0.0011521613 0)
(0.74801371 0.00093567009 0)
(0.73924404 0.00073127011 0)
(0.73147285 0.00054568933 0)
(0.72468692 0.00038628515 0)
(0.71881843 0.00025939896 0)
(0.71374728 0.0001705709 0)
(0.70932049 0.00011949115 0)
(0.70536968 9.9932969e-05 0)
(0.70173676 0.00010214979 0)
(0.69830164 0.00011496997 0)
(0.69499045 0.00012895633 0)
(0.69176702 0.00013834105 0)
(0.68861816 0.00014112143 0)
(0.68553706 0.0001389547 0)
(0.68251232 0.00013491382 0)
(0.67952774 0.00013140676 0)
(0.67656821 0.00012928357 0)
(0.67362676 0.00012800672 0)
(0.67070675 0.00012666986 0)
(0.66781682 0.00012471413 0)
(0.66496426 0.00012202379 0)
(0.662152 0.00011879453 0)
(0.65938008 0.00011528175 0)
(0.65664815 0.00011166692 0)
(0.65395646 0.0001080008 0)
(0.65130547 0.00010429284 0)
(0.64869561 0.00010055912 0)
(0.64612702 9.6854848e-05 0)
(0.64359914 9.3245368e-05 0)
(0.64111097 8.9739595e-05 0)
(0.63866196 8.632533e-05 0)
(0.63625181 8.3014059e-05 0)
(0.63387961 7.9826756e-05 0)
(0.63154429 7.6749141e-05 0)
(0.62924536 7.3772444e-05 0)
(0.62698195 7.0922447e-05 0)
(0.6247528 6.8192105e-05 0)
(0.62255699 6.5569886e-05 0)
(0.62039367 6.3059846e-05 0)
(0.61826182 6.0651104e-05 0)
(0.61616069 5.8334807e-05 0)
(0.61408944 5.6115763e-05 0)
(0.61204715 5.3986932e-05 0)
(0.61003305 5.1941972e-05 0)
(0.60804633 4.9984346e-05 0)
(0.60608609 4.8106401e-05 0)
(0.60415159 4.6304552e-05 0)
(0.60224206 4.4578242e-05 0)
(0.60035672 4.2921674e-05 0)
(0.59849486 4.1332477e-05 0)
(0.59665578 3.9806911e-05 0)
(0.59483884 3.8342649e-05 0)
(0.59304335 3.6937383e-05 0)
(0.59126869 3.5587818e-05 0)
(0.58951426 3.4292195e-05 0)
(0.58777946 3.3047876e-05 0)
(0.58606371 3.1852696e-05 0)
(0.58436647 3.07045e-05 0)
(0.58268718 2.9601312e-05 0)
(0.58102532 2.854131e-05 0)
(0.57938038 2.7522826e-05 0)
(0.57775184 2.6544324e-05 0)
(0.57613917 2.5604492e-05 0)
(0.57454187 2.4702189e-05 0)
(0.5729593 2.3836749e-05 0)
(0.57139105 2.3007004e-05 0)
(0.56983594 2.2214794e-05 0)
(0.56829439 2.1458001e-05 0)
(0.56676188 2.0750064e-05 0)
(0.5652456 2.007117e-05 0)
(0.5637199 1.9543656e-05 0)
(0.56223788 1.8390225e-05 0)
(0.56065 3.1464102e-05 6.6758986e-20)
(0.55932565 1.9134915e-05 -2.3013281e-19)
(0.55686627 3.2494788e-05 -4.2975003e-18)
(0.99780226 0.00049091164 0)
(0.99769827 0.00072659577 0)
(0.99759961 0.0009260456 0)
(0.99744708 0.0010870189 -5.845827e-19)
(0.99724093 0.0012367629 0)
(0.99698804 0.0013896689 0)
(0.99667274 0.0015728307 0)
(0.99625596 0.0017662692 0)
(0.99568823 0.001919483 0)
(0.994915 0.002043956 0)
(0.99387129 0.0021447828 0)
(0.99248364 0.002219914 0)
(0.99067673 0.0022684765 0)
(0.98837785 0.0022932523 0)
(0.98552334 0.002292691 0)
(0.98205795 0.002279542 0)
(0.9779455 0.0022524807 0)
(0.97314663 0.0022148 0)
(0.96766069 0.0021697169 0)
(0.96147472 0.0021208482 0)
(0.95459034 0.0020706871 0)
(0.94700297 0.0020126183 0)
(0.93874864 0.0019338101 0)
(0.92992928 0.0018355272 0)
(0.92064259 0.0017256997 0)
(0.91100283 0.0016051188 0)
(0.90115173 0.001475726 0)
(0.89124326 0.0013382996 0)
(0.88144284 0.0011937977 0)
(0.87192564 0.0010436912 0)
(0.86289095 0.00089642882 0)
(0.85449662 0.00076267726 0)
(0.84681448 0.00064775754 0)
(0.83982833 0.00055638373 0)
(0.8334636 0.00049014445 0)
(0.82760922 0.00044725512 0)
(0.82214673 0.00042288941 0)
(0.81698093 0.00040982706 0)
(0.81204927 0.00040070767 0)
(0.8073165 0.00039071959 0)
(0.80276472 0.00037804789 0)
(0.79838152 0.00036286111 0)
(0.7941534 0.0003459774 0)
(0.79006428 0.00032861395 0)
(0.78609637 0.00031198971 0)
(0.78223281 0.0002967325 0)
(0.77846077 0.00028278448 0)
(0.77477341 0.00026977905 0)
(0.77116793 0.00025749089 0)
(0.76764193 0.00024579529 0)
(0.7641916 0.00023464438 0)
(0.7608126 0.00022399503 0)
(0.7575016 0.00021383825 0)
(0.75425614 0.00020418278 0)
(0.75107395 0.00019497248 0)
(0.747953 0.00018616428 0)
(0.74489142 0.00017776757 0)
(0.74188707 0.00016979296 0)
(0.73893787 0.00016219414 0)
(0.73604209 0.00015494195 0)
(0.7331981 0.00014805812 0)
(0.7304041 0.00014150626 0)
(0.72765861 0.00013526045 0)
(0.72496021 0.00012932636 0)
(0.7223073 0.00012367684 0)
(0.71969845 0.0001182911 0)
(0.71713232 0.00011317175 0)
(0.71460744 0.000108297 0)
(0.71212254 0.00010365028 0)
(0.70967635 9.9232555e-05 0)
(0.70726756 9.5023489e-05 0)
(0.70489497 9.1012684e-05 0)
(0.70255743 8.7194456e-05 0)
(0.70025379 8.3554533e-05 0)
(0.69798294 8.0085791e-05 0)
(0.69574384 7.6777808e-05 0)
(0.69353547 7.3623076e-05 0)
(0.69135685 7.0614144e-05 0)
(0.68920702 6.7742248e-05 0)
(0.68708508 6.5001677e-05 0)
(0.68499016 6.2385176e-05 0)
(0.6829214 5.9886667e-05 0)
(0.68087797 5.7500185e-05 0)
(0.67885909 5.522023e-05 0)
(0.67686399 5.3041704e-05 0)
(0.67489191 5.0959892e-05 0)
(0.6729421 4.8970454e-05 0)
(0.67101384 4.7069524e-05 0)
(0.66910638 4.5253572e-05 0)
(0.66721891 4.351982e-05 0)
(0.66535081 4.1866169e-05 0)
(0.66350064 4.029249e-05 0)
(0.66166869 3.8799433e-05 0)
(0.65985002 3.7394805e-05 0)
(0.65805202 3.6082313e-05 0)
(0.6562475 3.4929181e-05 0)
(0.65449207 3.3933417e-05 0)
(0.65262758 3.4896191e-05 0)
(0.65105302 3.1643693e-05 0)
(0.6481848 3.7237533e-05 0)
(0.99787345 0.00049406952 0)
(0.99783251 0.00069027042 0)
(0.99782174 0.00084078543 0)
(0.99779702 0.00097794002 0)
(0.99776425 0.0011297883 0)
(0.99774026 0.001302859 0)
(0.99773085 0.0014882562 0)
(0.99773535 0.0016740042 0)
(0.99775706 0.0018640854 0)
(0.99779855 0.0020640455 0)
(0.99785713 0.0022681824 0)
(0.99792743 0.0024673778 0)
(0.99800143 0.0026544948 0)
(0.99806847 0.0028235347 0)
(0.99811641 0.0029713909 0)
(0.99812999 0.0030943619 0)
(0.99809201 0.0031917268 0)
(0.99798465 0.0032619252 0)
(0.99778424 0.00330258 0)
(0.99746286 0.0033166574 0)
(0.99698703 0.0033034197 0)
(0.99631819 0.0032633763 0)
(0.99536124 0.0031979979 0)
(0.99398283 0.0031091424 0)
(0.99207122 0.0029977221 0)
(0.98951169 0.0028665064 0)
(0.98618176 0.0027189986 0)
(0.98196233 0.0025600127 0)
(0.97674605 0.0023961832 0)
(0.97045615 0.0022356164 0)
(0.96304845 0.0020695415 0)
(0.9546723 0.0018960437 0)
(0.94555326 0.0017279075 0)
(0.93601578 0.0015666965 0)
(0.92641226 0.0014118286 0)
(0.91707075 0.0012614214 0)
(0.90825711 0.0011185633 0)
(0.90013735 0.00099222108 0)
(0.8927295 0.00088834125 0)
(0.88595055 0.00080832655 0)
(0.8796763 0.00075037178 0)
(0.87378316 0.00070976321 0)
(0.86818076 0.00067940819 0)
(0.86281651 0.00065258734 0)
(0.85766381 0.00062525706 0)
(0.85270721 0.0005965984 0)
(0.84793253 0.0005672744 0)
(0.84332427 0.00053824762 0)
(0.83886592 0.00051051905 0)
(0.83454149 0.00048461198 0)
(0.83033738 0.00046051099 0)
(0.82624392 0.00043790068 0)
(0.82225479 0.0004165675 0)
(0.81836466 0.00039644465 0)
(0.81456783 0.00037741362 0)
(0.8108588 0.0003593739 0)
(0.80723306 0.00034229139 0)
(0.80368667 0.00032613434 0)
(0.80021607 0.00031080228 0)
(0.79681812 0.00029623806 0)
(0.7934898 0.00028245919 0)
(0.79022816 0.00026938856 0)
(0.78703072 0.00025696935 0)
(0.78389517 0.00024519716 0)
(0.7808191 0.00023402089 0)
(0.77780036 0.00022339851 0)
(0.77483693 0.00021332306 0)
(0.77192675 0.00020375261 0)
(0.76906798 0.00019465355 0)
(0.76625886 0.00018601887 0)
(0.76349758 0.00017781099 0)
(0.76078253 0.00017000717 0)
(0.75811212 0.00016259206 0)
(0.75548482 0.00015553858 0)
(0.75289916 0.00014883032 0)
(0.75035372 0.00014244642 0)
(0.74784715 0.00013637059 0)
(0.74537814 0.00013058694 0)
(0.74294543 0.00012507797 0)
(0.74054784 0.00011983092 0)
(0.7381842 0.00011483119 0)
(0.73585339 0.00011006606 0)
(0.73355434 0.00010552325 0)
(0.731286 0.00010119139 0)
(0.72904738 9.705992e-05 0)
(0.72683748 9.3119051e-05 0)
(0.72465536 8.9359797e-05 0)
(0.72250006 8.5773947e-05 0)
(0.72037066 8.2354388e-05 0)
(0.71826613 7.9094369e-05 0)
(0.71618565 7.5990868e-05 0)
(0.71412764 7.3037921e-05 0)
(0.71209216 7.0247588e-05 0)
(0.7100741 6.760161e-05 0)
(0.70808067 6.5183252e-05 0)
(0.70608443 6.2917302e-05 0)
(0.70414095 6.1169147e-05 0)
(0.70208967 5.9563936e-05 0)
(0.70034634 6.0655615e-05 0)
(0.69720181 5.9909519e-05 -2.9785865e-20)
(0.99791592 0.0005083385 0)
(0.9978728 0.00069449535 0)
(0.99786484 0.00085373384 0)
(0.99785326 0.0010055865 0)
(0.99783862 0.0011663423 0)
(0.99783386 0.0013374086 0)
(0.9978452 0.0015137106 0)
(0.99787446 0.0016952064 0)
(0.99792511 0.0018822164 0)
(0.99799925 0.0020668573 0)
(0.99809615 0.0022412661 0)
(0.99821412 0.0023990835 0)
(0.99834984 0.0025360734 0)
(0.99849861 0.0026495317 0)
(0.99865556 0.0027387065 0)
(0.99881536 0.0028019546 0)
(0.99897332 0.00284284 0)
(0.9991266 0.0028626628 0)
(0.99927061 0.0028631394 0)
(0.99940024 0.0028495607 0)
(0.99951299 0.0028260192 0)
(0.9996063 0.0027941439 0)
(0.99967527 0.0027549828 0)
(0.99971201 0.0027104675 0)
(0.9997069 0.0026631601 0)
(0.99964802 0.0026150333 0)
(0.99951835 0.0025680279 0)
(0.9992952 0.002523668 0)
(0.9989466 0.0024823682 0)
(0.99842363 0.0024428415 0)
(0.99764771 0.0024041051 0)
(0.99641535 0.0023633066 0)
(0.9945356 0.0023144614 0)
(0.99180624 0.0022532773 0)
(0.98804437 0.0021779551 0)
(0.9831219 0.0020926442 0)
(0.97697839 0.0019938451 0)
(0.96974311 0.001875233 0)
(0.96171147 0.0017442747 0)
(0.95325141 0.0016088967 0)
(0.9447393 0.0014727532 0)
(0.93649546 0.0013395015 0)
(0.92874385 0.0012177369 0)
(0.92155445 0.0011137911 0)
(0.91488328 0.0010286641 0)
(0.90863234 0.00096114727 0)
(0.90270277 0.00090744877 0)
(0.89702713 0.00086192774 0)
(0.89156997 0.00081994001 0)
(0.88631426 0.0007792614 0)
(0.88124755 0.00073956085 0)
(0.87635614 0.00070117711 0)
(0.87162489 0.00066469962 0)
(0.8670388 0.00063054295 0)
(0.86258488 0.00059861657 0)
(0.85825335 0.00056863004 0)
(0.85403695 0.00054041169 0)
(0.84992908 0.00051385766 0)
(0.84592326 0.00048879937 0)
(0.84201383 0.00046512004 0)
(0.83819574 0.00044279252 0)
(0.83446441 0.0004216775 0)
(0.83081586 0.00040167693 0)
(0.82724641 0.00038276502 0)
(0.82375248 0.00036485516 0)
(0.82033092 0.0003478733 0)
(0.81697882 0.00033179399 0)
(0.81369333 0.00031654916 0)
(0.81047189 0.0003020821 0)
(0.80731207 0.00028837188 0)
(0.80421149 0.00027535983 0)
(0.80116799 0.00026300649 0)
(0.79817948 0.00025128306 0)
(0.79524396 0.00024014688 0)
(0.79235953 0.00022956924 0)
(0.78952436 0.0002195162 0)
(0.78673673 0.00020996018 0)
(0.78399496 0.00020087452 0)
(0.78129746 0.00019223097 0)
(0.77864271 0.00018400771 0)
(0.77602924 0.00017618107 0)
(0.77345564 0.00016873005 0)
(0.77092056 0.00016163455 0)
(0.76842269 0.00015487591 0)
(0.76596077 0.00014843682 0)
(0.76353358 0.00014230118 0)
(0.76113993 0.00013645425 0)
(0.75877864 0.00013088241 0)
(0.75644858 0.00012557406 0)
(0.75414852 0.00012051745 0)
(0.75187743 0.00011570862 0)
(0.74963355 0.00011113341 0)
(0.74741673 0.00010681912 0)
(0.74522176 0.00010271018 0)
(0.7430555 9.8998299e-05 0)
(0.74089075 9.5390953e-05 0)
(0.73878216 9.283241e-05 0)
(0.73656874 8.9643491e-05 0)
(0.73467962 9.5159191e-05 0)
(0.73129683 8.6243331e-05 2.4096166e-20)
(0.99796296 0.00052869969 0)
(0.99791304 0.00070344452 0)
(0.99789758 0.00086018219 0)
(0.99788467 0.0010091273 0)
(0.99787242 0.0011642264 0)
(0.99787107 0.0013287622 0)
(0.99788625 0.0015004839 0)
(0.99791968 0.0016783555 0)
(0.99797395 0.0018596054 0)
(0.99805106 0.0020380711 0)
(0.99815098 0.0022095132 0)
(0.99827234 0.0023695089 0)
(0.99841223 0.0025139747 0)
(0.99856645 0.0026397649 0)
(0.99873085 0.0027453484 0)
(0.99890042 0.0028292181 0)
(0.99907086 0.0028932451 0)
(0.99923947 0.0029374654 0)
(0.99940258 0.0029620504 0)
(0.99955725 0.0029707314 0)
(0.99970229 0.0029641111 0)
(0.99983724 0.0029436545 0)
(0.9999604 0.0029094918 0)
(1.0000692 0.0028631986 0)
(1.0001622 0.0028073273 0)
(1.0002376 0.0027445504 0)
(1.0002933 0.0026771983 0)
(1.0003274 0.0026079055 0)
(1.0003382 0.0025397522 0)
(1.000324 0.002476318 0)
(1.0002837 0.0024204641 0)
(1.0002108 0.0023738938 0)
(1.0000945 0.0023376472 0)
(0.99991563 0.0023111187 0)
(0.99964573 0.0022922371 0)
(0.99923538 0.0022761083 0)
(0.99861302 0.0022572468 0)
(0.9975914 0.0022313177 0)
(0.99593701 0.0021936191 0)
(0.99342797 0.0021411535 0)
(0.98987821 0.0020749255 0)
(0.98517543 0.0019961024 0)
(0.97934517 0.0018982212 0)
(0.97263424 0.0017840355 0)
(0.96537288 0.0016633957 0)
(0.95791816 0.0015401165 0)
(0.95058496 0.0014202216 0)
(0.94357793 0.0013114363 0)
(0.93696071 0.0012168271 0)
(0.93070423 0.0011368256 0)
(0.92474162 0.0010698198 0)
(0.91901544 0.0010120095 0)
(0.91349244 0.00095956806 0)
(0.90815705 0.00091018635 0)
(0.90299931 0.00086304823 0)
(0.89800856 0.00081809046 0)
(0.89317251 0.00077563491 0)
(0.8884786 0.00073585832 0)
(0.883916 0.00069855312 0)
(0.87947653 0.00066347 0)
(0.87515335 0.00063051015 0)
(0.87093987 0.00059946015 0)
(0.86683009 0.00057016357 0)
(0.86281858 0.00054254919 0)
(0.8589004 0.00051647173 0)
(0.85507123 0.00049181058 0)
(0.85132706 0.00046851063 0)
(0.84766403 0.00044646676 0)
(0.84407874 0.00042558927 0)
(0.84056799 0.00040583503 0)
(0.83712871 0.00038711784 0)
(0.83375809 0.00036937566 0)
(0.83045349 0.00035256091 0)
(0.82721237 0.00033661095 0)
(0.82403234 0.00032148056 0)
(0.82091114 0.00030711925 0)
(0.8178466 0.00029348484 0)
(0.81483665 0.00028053692 0)
(0.81187934 0.00026823381 0)
(0.8089728 0.00025654209 0)
(0.80611522 0.00024542679 0)
(0.80330489 0.00023485654 0)
(0.80054016 0.00022480149 0)
(0.79781943 0.00021523394 0)
(0.79514119 0.00020612818 0)
(0.79250394 0.0001974603 0)
(0.78990625 0.00018920839 0)
(0.78734672 0.00018135211 0)
(0.78482399 0.00017387429 0)
(0.78233661 0.00016675701 0)
(0.77988334 0.00015999444 0)
(0.77746224 0.00015356274 0)
(0.77507294 0.00014750522 0)
(0.77271015 0.00014172429 0)
(0.77038032 0.00013653053 0)
(0.76805664 0.0001313821 0)
(0.76579269 0.0001279257 0)
(0.76342727 0.0001227535 3.2382381e-20)
(0.76140268 0.00013363304 0)
(0.7577988 0.00011431765 0)
(0.99801116 0.00054947025 0)
(0.99795763 0.00071353624 0)
(0.99793514 0.00086612235 0)
(0.99791871 0.0010126471 0)
(0.99790569 0.0011651337 0)
(0.99790419 0.0013267127 0)
(0.99791916 0.0014952359 0)
(0.99795222 0.0016689157 0)
(0.99800564 0.0018452858 0)
(0.99808135 0.0020196527 0)
(0.99817941 0.0021877732 0)
(0.99829846 0.0023448195 0)
(0.99843573 0.0024863815 0)
(0.99858736 0.0026091921 0)
(0.9987493 0.0027115688 0)
(0.99891716 0.0027921269 0)
(0.9990869 0.0028521291 0)
(0.9992558 0.0028918841 0)
(0.99942045 0.0029120169 0)
(0.99957805 0.0029157008 0)
(0.99972761 0.0029051694 0)
(0.99986851 0.0028814156 0)
(0.99999935 0.0028456067 0)
(1.0001182 0.0027997519 0)
(1.0002234 0.002746249 0)
(1.0003143 0.0026873452 0)
(1.0003906 0.0026256015 0)
(1.0004522 0.0025635865 0)
(1.0004994 0.0025042188 0)
(1.0005332 0.0024506764 0)
(1.0005557 0.0024042726 0)
(1.0005685 0.0023653932 0)
(1.0005729 0.0023339796 0)
(1.0005692 0.002308332 0)
(1.000556 0.0022858264 0)
(1.0005288 0.002264669 0)
(1.0004824 0.0022444505 0)
(1.0004056 0.0022253134 0)
(1.0002786 0.0022078554 0)
(1.0000734 0.0021924523 0)
(0.99974814 0.002178257 0)
(0.99923774 0.0021619111 0)
(0.99840567 0.0021402872 0)
(0.99702241 0.0021093892 0)
(0.99486908 0.0020651682 0)
(0.99176072 0.0020085717 0)
(0.98757562 0.0019359345 0)
(0.98238478 0.0018440619 0)
(0.976417 0.0017404965 0)
(0.96997639 0.0016313577 0)
(0.96337997 0.0015215712 0)
(0.9568807 0.0014180342 0)
(0.95060659 0.0013245223 0)
(0.94458489 0.0012422012 0)
(0.93878879 0.0011705406 0)
(0.9331844 0.0011070484 0)
(0.92775095 0.0010490064 0)
(0.92247924 0.00099467405 0)
(0.91736363 0.00094321367 0)
(0.91239713 0.00089446335 0)
(0.90757074 0.00084861572 0)
(0.90287519 0.00080555265 0)
(0.89830288 0.00076504958 0)
(0.89384754 0.00072696694 0)
(0.88950327 0.00069109298 0)
(0.8852646 0.00065725605 0)
(0.88112643 0.00062535978 0)
(0.87708403 0.00059524716 0)
(0.87313321 0.00056678458 0)
(0.86927003 0.00053989818 0)
(0.86549074 0.00051446595 0)
(0.86179191 0.00049039577 0)
(0.85817033 0.00046761498 0)
(0.85462295 0.00044603551 0)
(0.85114688 0.00042559079 0)
(0.8477394 0.00040620945 0)
(0.84439794 0.00038783093 0)
(0.84112004 0.00037039772 0)
(0.83790337 0.00035385157 0)
(0.8347457 0.00033814466 0)
(0.8316449 0.00032322816 0)
(0.82859895 0.00030905796 0)
(0.82560588 0.00029559233 0)
(0.82266383 0.00028279253 0)
(0.81977099 0.0002706226 0)
(0.81692562 0.00025904911 0)
(0.81412605 0.00024804144 0)
(0.81137062 0.00023757102 0)
(0.80865775 0.00022761379 0)
(0.80598577 0.0002181444 0)
(0.80335324 0.00020915414 0)
(0.80075802 0.00020060814 0)
(0.79819953 0.00019256551 0)
(0.79567237 0.00018488387 0)
(0.79318262 0.00017799773 0)
(0.79070382 0.00017109754 0)
(0.78828864 0.00016660206 0)
(0.78577529 0.00015891738 0)
(0.78361993 0.00017616451 5.0831097e-20)
(0.77980261 0.00014448211 0)
(0.99805825 0.00057081253 0)
(0.9980036 0.000725112 0)
(0.99797646 0.0008732869 0)
(0.99795742 0.001017445 0)
(0.99794357 0.0011671887 0)
(0.99794125 0.0013251635 0)
(0.9979549 0.0014894986 0)
(0.99798629 0.0016584781 0)
(0.99803749 0.0018299692 0)
(0.99811032 0.0019997812 0)
(0.99820492 0.0021636081 0)
(0.99832005 0.0023169003 0)
(0.99845319 0.0024555725 0)
(0.99860075 0.0025765425 0)
(0.99875886 0.0026781044 0)
(0.99892335 0.0027589667 0)
(0.99909037 0.0028199814 0)
(0.9992571 0.0028616142 0)
(0.99942033 0.0028844489 0)
(0.99957731 0.0028912226 0)
(0.99972693 0.0028839678 0)
(0.99986843 0.0028638698 0)
(1.0000005 0.0028318306 0)
(1.0001213 0.0027895809 0)
(1.0002296 0.0027393977 0)
(1.0003248 0.0026835676 0)
(1.0004066 0.0026245063 0)
(1.000475 0.0025647691 0)
(1.0005305 0.0025070046 0)
(1.0005747 0.0024539147 0)
(1.00061 0.0024070702 0)
(1.0006387 0.0023671716 0)
(1.0006633 0.0023344746 0)
(1.0006856 0.0023077439 0)
(1.0007064 0.0022850362 0)
(1.0007252 0.0022650244 0)
(1.0007406 0.002246645 0)
(1.0007509 0.002229008 0)
(1.0007533 0.0022119877 0)
(1.0007445 0.0021954557 0)
(1.0007199 0.0021789478 0)
(1.0006733 0.0021624952 0)
(1.0005946 0.0021460934 0)
(1.0004616 0.0021296343 0)
(1.0002429 0.0021133195 0)
(0.99988945 0.0020962261 0)
(0.99933018 0.0020768042 0)
(0.99839292 0.0020525895 0)
(0.99686881 0.0020192733 0)
(0.99456009 0.0019747793 0)
(0.99130858 0.0019163667 0)
(0.9870888 0.0018400777 0)
(0.98205132 0.0017502924 0)
(0.97643932 0.0016534057 0)
(0.97053911 0.0015545925 0)
(0.96459525 0.0014597705 0)
(0.95875124 0.0013718594 0)
(0.95305888 0.0012923846 0)
(0.94751899 0.0012211681 0)
(0.94211984 0.0011565419 0)
(0.93685502 0.0010967369 0)
(0.93172335 0.0010405296 0)
(0.92672379 0.00098735868 0)
(0.92185245 0.0009372054 0)
(0.91710351 0.00088997312 0)
(0.91247149 0.00084548249 0)
(0.9079516 0.00080359392 0)
(0.90353927 0.00076409929 0)
(0.89923014 0.00072682511 0)
(0.89501996 0.00069166419 0)
(0.89090469 0.00065845157 0)
(0.88688061 0.00062705953 0)
(0.88294415 0.00059738544 0)
(0.87909192 0.00056931048 0)
(0.87532071 0.00054274176 0)
(0.87162747 0.00051758271 0)
(0.86800929 0.00049375053 0)
(0.86446341 0.00047116709 0)
(0.86098719 0.00044975449 0)
(0.85757811 0.00042944765 0)
(0.85423376 0.00041018126 0)
(0.85095182 0.0003918961 0)
(0.84773007 0.00037453634 0)
(0.84456639 0.00035805014 0)
(0.84145871 0.00034238941 0)
(0.83840506 0.00032750941 0)
(0.83540352 0.00031336915 0)
(0.83245221 0.00029993034 0)
(0.82954933 0.0002871606 0)
(0.826693 0.00027502581 0)
(0.82388159 0.00026351325 0)
(0.82111275 0.00025257581 0)
(0.8183857 0.00024228774 0)
(0.81569496 0.00023245985 0)
(0.81304621 0.00022365379 0)
(0.81041332 0.00021477784 0)
(0.80784821 0.00020907707 0)
(0.80518809 0.00019849324 0)
(0.80290373 0.00022293725 4.768272e-20)
(0.79887584 0.00017711288 0)
(0.99810389 0.00059230778 0)
(0.99804942 0.00073775575 0)
(0.99801933 0.00088134469 0)
(0.99799874 0.0010228152 0)
(0.99798469 0.0011694921 0)
(0.99798201 0.0013236528 0)
(0.99799463 0.0014837538 0)
(0.99802437 0.0016481597 0)
(0.99807316 0.0018148365 0)
(0.99814271 0.0019799719 0)
(0.9982333 0.0021394657 0)
(0.99834387 0.0022891205 0)
(0.99847218 0.0024250932 0)
(0.99861492 0.0025443747 0)
(0.99876845 0.0026451764 0)
(0.99892882 0.002726226 0)
(0.99909231 0.002788023 0)
(0.99925604 0.0028310156 0)
(0.99941693 0.0028557578 0)
(0.9995723 0.0028646037 0)
(0.99972084 0.0028594164 0)
(0.99986168 0.0028414031 0)
(0.99999347 0.0028115363 0)
(1.0001146 0.0027715111 0)
(1.0002237 0.00272355 0)
(1.0003204 0.0026699003 0)
(1.0004043 0.0026129042 0)
(1.0004754 0.0025550285 0)
(1.0005345 0.0024988759 0)
(1.0005829 0.0024471081 0)
(1.0006231 0.0024013395 0)
(1.0006575 0.002362342 0)
(1.0006886 0.0023303033 0)
(1.0007185 0.0023040895 0)
(1.0007484 0.0022819416 0)
(1.0007784 0.0022623919 0)
(1.0008078 0.0022442362 0)
(1.0008358 0.0022266893 0)
(1.0008616 0.0022097454 0)
(1.0008843 0.002193405 0)
(1.0009031 0.002177576 0)
(1.0009169 0.0021622518 0)
(1.0009242 0.0021469436 0)
(1.0009218 0.002131407 0)
(1.0009051 0.0021157228 0)
(1.0008679 0.0020999766 0)
(1.0008026 0.0020842051 0)
(1.0006926 0.0020680928 0)
(1.0005089 0.0020514785 0)
(1.0002092 0.0020340131 0)
(0.99973079 0.0020147842 0)
(0.99894176 0.0019922122 0)
(0.9976508 0.0019628397 0)
(0.9956704 0.0019241053 0)
(0.99283669 0.0018716853 0)
(0.98911739 0.0018026729 0)
(0.98462267 0.0017219389 0)
(0.97956113 0.0016342887 0)
(0.97418756 0.0015451559 0)
(0.96871274 0.0014589563 0)
(0.96326509 0.0013778126 0)
(0.95789827 0.0013031502 0)
(0.95262632 0.0012347415 0)
(0.94745306 0.001171499 0)
(0.94238337 0.0011122454 0)
(0.93742213 0.0010562558 0)
(0.93257097 0.0010033466 0)
(0.9278284 0.00095338513 0)
(0.92319201 0.00090622131 0)
(0.91865925 0.00086173302 0)
(0.9142273 0.00081972244 0)
(0.9098932 0.00078003674 0)
(0.90565386 0.00074254782 0)
(0.90150618 0.00070710569 0)
(0.89744713 0.00067359022 0)
(0.89347374 0.00064187806 0)
(0.8895831 0.0006118619 0)
(0.8857724 0.00058344044 0)
(0.8820389 0.00055651371 0)
(0.87837997 0.00053099716 0)
(0.87479305 0.00050680682 0)
(0.87127566 0.00048386631 0)
(0.86782541 0.00046210376 0)
(0.86444 0.00044145241 0)
(0.86111718 0.00042185026 0)
(0.85785477 0.00040323962 0)
(0.85465069 0.00038556758 0)
(0.85150287 0.00036878464 0)
(0.84840932 0.00035284872 0)
(0.84536798 0.00033771564 0)
(0.84237702 0.00032336748 0)
(0.83943396 0.00030974374 0)
(0.83653779 0.00029693296 0)
(0.83368295 0.00028469755 0)
(0.83087479 0.00027372849 0)
(0.82808743 0.00026263923 0)
(0.82537225 0.00025555321 0)
(0.82256504 0.00024170358 -1.3253279e-20)
(0.8201519 0.00027411303 0)
(0.81591371 0.00021242222 -8.7321381e-21)
(0.99814819 0.00061375628 0)
(0.99809467 0.00075116707 0)
(0.99806273 0.00088998577 0)
(0.9980412 0.0010284312 0)
(0.99802738 0.0011718657 0)
(0.99802482 0.0013222058 0)
(0.99803692 0.001478135 0)
(0.99806547 0.0016380429 0)
(0.99811221 0.0017999574 0)
(0.99817873 0.0019604381 0)
(0.99826541 0.0021156414 0)
(0.99837137 0.0022616501 0)
(0.99849462 0.0023948241 0)
(0.99863219 0.0025122407 0)
(0.99878068 0.0026120682 0)
(0.9989364 0.0026930514 0)
(0.99909579 0.0027554114 0)
(0.99925595 0.0027995443 0)
(0.99941392 0.0028259789 0)
(0.99956707 0.0028367308 0)
(0.99971395 0.0028335687 0)
(0.99985355 0.0028177017 0)
(0.99998453 0.0027901513 0)
(1.0001053 0.0027525533 0)
(1.0002146 0.0027070369 0)
(1.0003119 0.0026557864 0)
(1.0003968 0.0026010814 0)
(1.0004695 0.0025453302 0)
(1.0005305 0.0024910594 0)
(1.0005814 0.0024408117 0)
(1.0006243 0.0023961896 0)
(1.0006617 0.0023579573 0)
(1.0006959 0.0023263171 0)
(1.0007292 0.0023002838 0)
(1.0007628 0.0022782047 0)
(1.0007969 0.0022586672 0)
(1.0008313 0.00224057 0)
(1.0008653 0.002223213 0)
(1.0008985 0.0022065678 0)
(1.0009304 0.0021906377 0)
(1.0009609 0.0021752983 0)
(1.0009898 0.0021603918 0)
(1.0010165 0.0021454522 0)
(1.0010401 0.0021303114 0)
(1.0010594 0.0021150913 0)
(1.0010731 0.0020999151 0)
(1.0010796 0.0020847377 0)
(1.0010765 0.0020693943 0)
(1.0010592 0.0020540145 0)
(1.0010213 0.0020387256 0)
(1.0009544 0.0020235187 0)
(1.0008431 0.0020079998 0)
(1.0006584 0.0019916707 0)
(1.0003571 0.0019740561 0)
(0.9998766 0.0019547318 0)
(0.99908304 0.0019323128 0)
(0.99780325 0.0019035342 0)
(0.99586222 0.0018657005 0)
(0.99311709 0.0018136273 0)
(0.98956903 0.0017471583 0)
(0.98532478 0.0016715193 0)
(0.98058439 0.0015909818 0)
(0.97556842 0.0015099573 0)
(0.97044757 0.0014310231 0)
(0.96532062 0.0013563738 0)
(0.96023206 0.0012868571 0)
(0.95520147 0.0012221744 0)
(0.95024228 0.0011614422 0)
(0.94536563 0.0011039927 0)
(0.94057843 0.0010495984 0)
(0.93588355 0.00099810338 0)
(0.93128187 0.00094938668 0)
(0.92677329 0.00090332273 0)
(0.92235697 0.00085974986 0)
(0.91803147 0.00081853616 0)
(0.91379497 0.000779541 0)
(0.90964542 0.00074263767 0)
(0.90558063 0.00070770452 0)
(0.90159829 0.00067462087 0)
(0.89769609 0.00064328287 0)
(0.89387165 0.00061358748 0)
(0.89012263 0.00058544042 0)
(0.88644668 0.00055875284 0)
(0.88284151 0.00053344201 0)
(0.87930484 0.00050943091 0)
(0.87583446 0.00048664775 0)
(0.87242817 0.00046502651 0)
(0.86908382 0.00044450533 0)
(0.86579931 0.00042503128 0)
(0.86257246 0.00040654902 0)
(0.85940131 0.00038903433 0)
(0.85628324 0.00037241233 0)
(0.85321711 0.00035678499 0)
(0.85019728 0.00034186499 0)
(0.84722881 0.00032847431 0)
(0.84428605 0.00031492009 0)
(0.84141998 0.00030625518 0)
(0.83846467 0.00028875692 0)
(0.83592215 0.00032988714 4.518816e-20)
(0.83147259 0.00025059875 0)
(0.99819135 0.00063500957 0)
(0.9981393 0.00076512608 0)
(0.99810629 0.00089907699 0)
(0.99808421 0.0010342192 0)
(0.99807075 0.0011742685 0)
(0.99806854 0.0013207552 0)
(0.99808044 0.0014725204 0)
(0.99810815 0.001627978 0)
(0.99815326 0.001785217 0)
(0.99821718 0.0019411185 0)
(0.99830032 0.002092083 0)
(0.99840195 0.0022344381 0)
(0.9985203 0.0023647466 0)
(0.99865271 0.0024801922 0)
(0.99879604 0.0025789249 0)
(0.99894686 0.0026596997 0)
(0.99910179 0.0027225144 0)
(0.99925798 0.0027676943 0)
(0.9994126 0.0027957346 0)
(0.99956306 0.0028083611 0)
(0.99970782 0.0028072327 0)
(0.99984576 0.0027935412 0)
(0.99997552 0.0027683339 0)
(1.0000955 0.0027331839 0)
(1.0002046 0.0026901286 0)
(1.0003021 0.0026412907 0)
(1.0003876 0.0025888892 0)
(1.0004613 0.002535269 0)
(1.0005238 0.0024828688 0)
(1.0005763 0.0024341131 0)
(1.0006211 0.0023905942 0)
(1.0006605 0.0023530948 0)
(1.0006967 0.0023218384 0)
(1.000732 0.0022959631 0)
(1.0007675 0.0022739493 0)
(1.0008037 0.0022544682 0)
(1.0008403 0.002236484 0)
(1.000877 0.0022193129 0)
(1.0009133 0.002202872 0)
(1.000949 0.002187142 0)
(1.000984 0.0021719845 0)
(1.0010185 0.0021572405 0)
(1.001052 0.0021425178 0)
(1.0010842 0.0021276669 0)
(1.0011145 0.0021128014 0)
(1.0011425 0.0020980552 0)
(1.0011677 0.0020833703 0)
(1.0011894 0.0020685961 0)
(1.0012065 0.0020538349 0)
(1.0012174 0.0020391824 0)
(1.0012204 0.0020245685 0)
(1.0012127 0.0020097684 0)
(1.0011893 0.0019948314 0)
(1.0011429 0.0019800214 0)
(1.0010639 0.0019652541 0)
(1.0009335 0.0019500113 0)
(1.0007193 0.0019337404 0)
(1.0003733 0.0019158727 0)
(0.9998182 0.0018961295 0)
(0.9989065 0.0018726292 0)
(0.99747819 0.0018425543 0)
(0.99536849 0.0018010392 0)
(0.99250377 0.0017458183 0)
(0.98891451 0.0016803372 0)
(0.98473742 0.0016082146 0)
(0.98016866 0.0015332599 0)
(0.97538939 0.0014582516 0)
(0.97052454 0.0013856701 0)
(0.96564222 0.0013169602 0)
(0.96077751 0.0012523935 0)
(0.9559531 0.0011914598 0)
(0.95118618 0.0011336674 0)
(0.94648837 0.0010787934 0)
(0.94186649 0.001026713 0)
(0.93732449 0.0009773338 0)
(0.93286464 0.00093052982 0)
(0.92848799 0.00088618105 0)
(0.92419457 0.00084416511 0)
(0.91998382 0.00080435338 0)
(0.91585468 0.00076663134 0)
(0.91180578 0.00073088252 0)
(0.90783548 0.00069699828 0)
(0.90394201 0.00066487478 0)
(0.90012347 0.00063441445 0)
(0.89637788 0.00060552579 0)
(0.89270322 0.00057812305 0)
(0.88909745 0.00055212695 0)
(0.88555849 0.00052746295 0)
(0.88208427 0.00050406672 0)
(0.87867262 0.00048187119 0)
(0.87532155 0.00046084514 0)
(0.87202843 0.00044089867 0)
(0.86879198 0.00042214642 0)
(0.86560659 0.00040425051 0)
(0.86247709 0.0003881652 0)
(0.85937804 0.00037188089 0)
(0.85636019 0.00036143 0)
(0.85325562 0.0003398842 0)
(0.85058287 0.00039050656 0)
(0.84592029 0.00029184386 0)
(0.99823352 0.0006559536 0)
(0.99818331 0.00077945238 0)
(0.99814988 0.00090852547 0)
(0.99812753 0.0010401361 0)
(0.99811448 0.0011766618 0)
(0.99811265 0.0013192407 0)
(0.99812446 0.0014668303 0)
(0.99815151 0.0016178777 0)
(0.99819523 0.0017705267 0)
(0.99825687 0.0019219259 0)
(0.99833684 0.0020687116 0)
(0.9984345 0.0022074387 0)
(0.99854827 0.0023348654 0)
(0.99867575 0.0024482851 0)
(0.99881404 0.0025458435 0)
(0.99895995 0.0026262993 0)
(0.99911031 0.0026894713 0)
(0.99926234 0.0027356023 0)
(0.99941332 0.0027651465 0)
(0.99956078 0.0027795811 0)
(0.99970308 0.0027804427 0)
(0.999839 0.0027688982 0)
(0.9999672 0.0027460082 0)
(1.0000861 0.0027132877 0)
(1.0001947 0.0026726857 0)
(1.000292 0.0026262612 0)
(1.0003779 0.0025761696 0)
(1.0004523 0.0025246874 0)
(1.0005158 0.0024741666 0)
(1.0005697 0.0024269235 0)
(1.0006161 0.0023845358 0)
(1.000657 0.0023478053 0)
(1.0006947 0.0023169735 0)
(1.0007313 0.0022912911 0)
(1.0007681 0.0022693717 0)
(1.0008055 0.0022499637 0)