/*--------------------------------*- C++ -*----------------------------------*\
  =========                 |
  \\      /  F ield         | OpenFOAM: The Open Source CFD Toolbox
   \\    /   O peration     | Website:  https://openfoam.org
    \\  /    A nd           | Version:  12
     \\/     M anipulation  |
\*---------------------------------------------------------------------------*/
FoamFile
{
    format      ascii;
    class       volVectorField;
    location    "400";
    object      wallShearStress;
}
// * * * * * * * * * * * * * * * * * * * * * * * * * * * * * * * * * * * * * //

dimensions      [0 2 -2 0 0 0 0];

internalField   uniform (0 0 0);

boundaryField
{
    inlet
    {
        type            calculated;
        value           uniform (0 0 0);
    }
    top
    {
        type            calculated;
        value           uniform (0 0 0);
    }
    outlet
    {
        type            calculated;
        value           uniform (0 0 0);
    }
    slipsurface
    {
        type            calculated;
        value           uniform (0 0 0);
    }
    bottom
    {
        type            calculated;
        value           nonuniform List<vector> 
100
(
(-0.00061757634 -3.4736724e-07 8.3111693e-22)
(-0.00071607323 -4.7705617e-07 3.758812e-23)
(-0.00083508053 -7.8648242e-07 0)
(-0.0009692785 -1.1902543e-06 6.1828619e-21)
(-0.0011168252 -1.7133573e-06 4.4028253e-20)
(-0.0012753963 -2.255995e-06 -4.3507911e-20)
(-0.0014413224 -2.8045791e-06 4.7081865e-22)
(-0.0016096318 -3.7597635e-06 1.3302907e-19)
(-0.0017742409 -4.8831532e-06 0)
(-0.0019285407 -6.1007322e-06 3.8438749e-19)
(-0.0020660802 -7.3505305e-06 0)
(-0.0021817209 -8.5540097e-06 -6.1338112e-19)
(-0.0022721467 -9.6278261e-06 0)
(-0.0023361179 -1.0485837e-05 1.1948997e-18)
(-0.0023742769 -1.1125631e-05 -1.4589692e-22)
(-0.002389116 -1.1388481e-05 1.3782453e-18)
(-0.0023827464 -1.1415018e-05 0)
(-0.0023654256 -1.1193732e-05 0)
(-0.002326128 -1.0680099e-05 3.9347368e-19)
(-0.0022825643 -1.0011785e-05 3.6082504e-19)
(-0.0022333556 -9.1931376e-06 6.500245e-19)
(-0.0021809968 -8.2529235e-06 0)
(-0.0021277962 -7.247342e-06 -4.1582124e-19)
(-0.002075641 -6.2310698e-06 0)
(-0.0020260506 -5.2342095e-06 1.0637168e-19)
(-0.0019802492 -4.2843437e-06 0)
(-0.0019391841 -3.4007887e-06 -0)
(-0.0019035305 -2.607627e-06 0)
(-0.001873669 -1.9301397e-06 -3.8833942e-21)
(-0.0018495702 -1.3894913e-06 -4.5028096e-20)
(-0.0018306982 -1.0027548e-06 0)
(-0.001816029 -7.6610703e-07 6.9815466e-20)
(-0.0018041852 -6.5503333e-07 -6.0060017e-20)
(-0.0017937353 -6.3202894e-07 0)
(-0.0017835486 -6.5416967e-07 0)
(-0.0017729902 -6.8514575e-07 9.7479756e-21)
(-0.0017618964 -7.0262842e-07 0)
(-0.0017504055 -6.9869703e-07 0)
(-0.0017387397 -6.7902133e-07 0)
(-0.0017270477 -6.5438514e-07 -0)
(-0.0017153649 -6.3298666e-07 -0)
(-0.0017036609 -6.172769e-07 -0)
(-0.0016919145 -6.0478889e-07 -0)
(-0.0016801575 -5.9200628e-07 0)
(-0.0016684608 -5.769983e-07 -0)
(-0.0016568945 -5.59603e-07 -0)
(-0.0016454996 -5.4070689e-07 0)
(-0.0016342877 -5.2125159e-07 0)
(-0.0016232577 -5.0182415e-07 0)
(-0.0016124085 -4.8256144e-07 -0)
(-0.0016017417 -4.6348132e-07 0)
(-0.001591258 -4.4463476e-07 0)
(-0.0015809571 -4.262135e-07 0)
(-0.0015708354 -4.08441e-07 -0)
(-0.0015608881 -3.9132967e-07 0)
(-0.0015511114 -3.7481014e-07 0)
(-0.0015415028 -3.5891239e-07 0)
(-0.0015320575 -3.4370407e-07 0)
(-0.0015227705 -3.2911646e-07 0)
(-0.0015136395 -3.1510421e-07 -0)
(-0.00150466 -3.0174994e-07 0)
(-0.0014958262 -2.8901803e-07 0)
(-0.0014871334 -2.7685191e-07 0)
(-0.0014785774 -2.6525407e-07 0)
(-0.0014701542 -2.5417711e-07 0)
(-0.0014618604 -2.4357972e-07 0)
(-0.0014536923 -2.3346957e-07 0)
(-0.0014456463 -2.2381387e-07 0)
(-0.001437719 -2.1458212e-07 -0)
(-0.001429907 -2.057783e-07 -0)
(-0.0014222067 -1.9736932e-07 -0)
(-0.001414615 -1.8933464e-07 0)
(-0.0014071288 -1.8166576e-07 0)
(-0.0013997451 -1.7433703e-07 0)
(-0.0013924607 -1.6733369e-07 0)
(-0.0013852731 -1.6063732e-07 0)
(-0.0013781795 -1.5423488e-07 0)
(-0.0013711772 -1.4811361e-07 0)
(-0.0013642638 -1.4225732e-07 0)
(-0.0013574368 -1.3665561e-07 0)
(-0.0013506939 -1.3129561e-07 0)
(-0.0013440327 -1.2616583e-07 0)
(-0.0013374512 -1.2125543e-07 0)
(-0.001330947 -1.1655435e-07 0)
(-0.0013245181 -1.1205297e-07 -0)
(-0.0013181625 -1.0774276e-07 0)
(-0.0013118782 -1.0361589e-07 -0)
(-0.001305663 -9.9665075e-08 -0)
(-0.0012995149 -9.588458e-08 0)
(-0.0012934316 -9.2268881e-08 0)
(-0.0012874114 -8.8815004e-08 0)
(-0.00128145 -8.552061e-08 0)
(-0.0012755485 -8.2396155e-08 0)
(-0.001269692 -7.9440106e-08 0)
(-0.0012639028 -7.6706652e-08 0)
(-0.001258099 -7.4309894e-08 0)
(-0.001252449 -7.057627e-08 0)
(-0.0012464613 -1.0795267e-07 -1.4842146e-22)
(-0.001241429 -7.499496e-08 5.1078214e-22)
(-0.0012321603 -1.0764253e-07 2.1162078e-20)
)
;
    }
    frontandback
    {
        type            empty;
    }
}


// ************************************************************************* //
