#      distance             U_x             U_y             U_z wallShearStr... wallShearStr... wallShearStr...               p           omega               k             nut
  3.0219182e-06     0.018437891   2.6284595e-09   -3.446136e-23               0               0               0   0.00023276702       5570601.8   3.9968252e-07   3.7390979e-13
  5.0865428e-06     0.031038035   6.6678482e-09  -1.4611535e-23               0               0               0   0.00023276723       1240850.2   1.8252607e-06   3.4559014e-12
  7.2269684e-06     0.044100083   1.3130538e-08  -3.7643228e-23               0               0               0   0.00023276745       495682.18   5.7569122e-06   1.9325631e-11
  9.4750924e-06      0.05781667   2.2378983e-08  -5.6458802e-23               0               0               0   0.00023276767       256764.63   1.4417806e-05   7.8819601e-11
  1.1864417e-05     0.072385799   3.4924649e-08  -2.3400984e-23               0               0               0    0.0002327679       152802.43   3.1086348e-05   2.5990344e-10
  1.4430548e-05     0.088006884   5.1501907e-08   7.8882616e-23               0               0               0   0.00023276816        99058.22   6.0518605e-05   7.3658744e-10
  1.7211727e-05      0.10486871   7.3068823e-08   1.2748062e-22               0               0               0   0.00023276844       68139.935   0.00010940362   1.8611129e-09
  2.0249401e-05      0.12312316   1.0082026e-07   2.8786649e-23               0               0               0   0.00023276876       49052.781   0.00018656239   4.2814128e-09
  2.3588836e-05       0.1428396   1.3618002e-07  -3.0451885e-23               0               0               0   0.00023276915       36671.308   0.00030228814   9.0656015e-09
  2.7279799e-05      0.16394567   1.8073752e-07  -1.5225942e-23               0               0               0   0.00023276963       28321.835   0.00046603778   1.7755295e-08
  3.1377293e-05       0.1861822   2.3612659e-07               0               0               0               0   0.00023277026       22484.258   0.00068235546   3.2248233e-08
  3.5942381e-05      0.20911574   3.0390906e-07   7.1949553e-23               0               0               0   0.00023277108       18244.024   0.00094682884   5.4497287e-08
  4.1043091e-05      0.23222704   3.8555639e-07   1.0791279e-22               0               0               0   0.00023277217       15039.648    0.0012453319   8.6183022e-08
  4.6755437e-05      0.25503552   4.8251504e-07   1.2149722e-22               0               0               0   0.00023277359       12530.034    0.0015580307   1.2857469e-07
  5.3164546e-05      0.27720467   5.9646185e-07   1.2828725e-22               0               0               0   0.00023277538       10510.288    0.0018656954   1.8205241e-07
  6.0365928e-05      0.29857468   7.2962264e-07    -1.93308e-22               0               0               0   0.00023277763       8853.5792    0.0021545082   2.4683786e-07
    6.84669e-05      0.31908963   8.8471579e-07  -4.1173395e-22               0               0               0   0.00023278042       7476.9374    0.0024168741    3.249517e-07
  7.7588184e-05       0.3387126   1.0647545e-06  -2.1503833e-22               0               0               0    0.0002327839       6324.5491    0.0026493285   4.1961674e-07
   8.786571e-05      0.35741902   1.2731087e-06   6.1355575e-23               0               0               0   0.00023278819       5357.5392    0.0028511042   5.3377082e-07
  9.9452634e-05      0.37521864   1.5136517e-06   2.7236179e-22               0               0               0   0.00023279344       4546.6253    0.0030236992   6.6994518e-07
  0.00011252163      0.39216377   1.7909181e-06   5.6552869e-23               0               0               0   0.00023279975       3867.6645    0.0031701508   8.2954905e-07
  0.00012726745      0.40834856   2.1104055e-06  -1.5311982e-22               0               0               0   0.00023280724       3299.2828     0.003294199   1.0127849e-06
  0.00014390985      0.42388506   2.4786952e-06  -3.8032119e-23               0               0               0   0.00023281604       2822.4269    0.0033995544   1.2215792e-06
  0.00016269684      0.43886726   2.9032087e-06   6.8210169e-23               0               0               0   0.00023282638       2421.0097    0.0034893247   1.4605674e-06
  0.00018390838      0.45336298   3.3922444e-06   5.4409912e-22               0               0               0   0.00023283851       2082.0041    0.0035658992   1.7344575e-06
  0.00020786057      0.46742741    3.955387e-06   6.7966295e-22               0               0               0   0.00023285273       1794.8363    0.0036312169   2.0475798e-06
  0.00023491035       0.4811099   4.6037163e-06   2.0377399e-22               0               0               0   0.00023286934       1550.8452    0.0036869323   2.4048034e-06
  0.00026546084       0.4944544   5.3499313e-06               0               0               0               0   0.00023288869       1342.9264    0.0037344402   2.8115952e-06
   0.0002999673      0.50750001   6.2086018e-06               0               0               0               0   0.00023291118       1165.2411     0.003774908   3.2740851e-06
  0.00033894396      0.52028151   7.1964572e-06  -1.8512477e-22               0               0               0   0.00023293726       1012.9787    0.0038093064   3.7991346e-06
  0.00038297165      0.53282988   8.3327115e-06  -3.7024955e-22               0               0               0   0.00023296747       882.16475    0.0038384385   4.3944103e-06
  0.00043270649       0.5451728   9.6394379e-06   8.0095905e-22               0               0               0   0.00023300238        769.5051    0.0038629649   5.0684601e-06
  0.00048888965      0.55733513   1.1142004e-05   1.5554393e-21               0               0               0   0.00023304268       672.26038    0.0038834243     5.83079e-06
  0.00055235838      0.56933925   1.2869579e-05   5.6935547e-22               0               0               0   0.00023308912        588.1448    0.0039002513   6.6919395e-06
   0.0006240585      0.58120549    1.485572e-05               0               0               0               0   0.00023314257       515.24439    0.0039137901   7.6635525e-06
  0.00070505852      0.59295246   1.7139068e-05   2.3905864e-22               0               0               0     0.000233204       451.95104    0.0039243061   8.7584365e-06
  0.00079656552      0.60459733   1.9764156e-05   4.7811728e-22               0               0               0   0.00023327451       396.90902     0.003931994   9.9906042e-06
  0.00089994316      0.61615613   2.2782366e-05   2.3905864e-22               0               0               0   0.00023335533        348.9717    0.0039369845   1.1375287e-05
    0.001016732      0.62764401   2.6253061e-05               0               0               0               0   0.00023344786       307.16617    0.0039393487   1.2928906e-05
   0.0011486725      0.63907555    3.024494e-05   1.0417273e-21               0               0               0   0.00023355364       270.66455    0.0039391009   1.4668979e-05
   0.0012977308      0.65046496   3.4837656e-05  -7.8789586e-22               0               0               0   0.00023367439       238.76031    0.0039361995   1.6613946e-05
   0.0014661282      0.66182639   4.0123774e-05  -3.4905346e-21               0               0               0     0.000233812       210.84896     0.003930547   1.8782866e-05
   0.0016563743       0.6731742   4.6211146e-05  -2.6967091e-21               0               0               0   0.00023396858       186.41203    0.0039219873   2.1194953e-05
   0.0018713042      0.68452329   5.3225834e-05   -1.585467e-21               0               0               0   0.00023414638       165.00387    0.0039103025   2.3868883e-05
   0.0021141207      0.69588943   6.1315712e-05  -5.4966921e-22               0               0               0   0.00023434786       146.24067    0.0038952071   2.6821801e-05
   0.0023884425      0.70728969    7.065497e-05  -4.0098721e-22               0               0               0   0.00023457561       129.79134    0.0038763402   3.0067924e-05
   0.0026983575      0.71874288   8.1449791e-05   1.2443671e-21               0               0               0   0.00023483231        115.3699     0.003853255   3.3616626e-05
   0.0030484842      0.73027022   9.3945581e-05  -2.2368202e-21               0               0               0   0.00023512065       102.72909    0.0038254053   3.7469838e-05
   0.0034440402      0.74189597   0.00010843629  -5.6989933e-21               0               0               0    0.0002354432       91.655126    0.0037921272   4.1618592e-05
   0.0038909203      0.75364836   0.00012527652  -1.8168188e-21               0               0               0   0.00023580218       81.963237    0.0037526157   4.6038484e-05
    0.004395784      0.76556077   0.00014489765   3.1397426e-21               0               0               0   0.00023619916       73.494034    0.0037058937   5.0683847e-05
   0.0049661549      0.77767317   0.00016782975  -4.6845649e-21               0               0               0   0.00023663471       66.110554    0.0036507723   5.5480386e-05
   0.0056105328      0.79003406   0.00019473189  -1.3757678e-20               0               0               0   0.00023710762       59.695962    0.0035857975   6.0316138e-05
   0.0063385204      0.80270301   0.00022643037    5.344563e-21               0               0               0   0.00023761293       54.151946    0.0035091821   6.5030756e-05
   0.0071609664      0.81575412   0.00026394803   1.8558414e-20               0               0               0   0.00023813782       49.397956    0.0034187208    6.940341e-05
   0.0080901272      0.82929282   0.00030865316   2.9365558e-20               0               0               0   0.00023866648       45.366241    0.0033113872   7.3002875e-05
   0.0091398493      0.84349113   0.00036255492   3.4051817e-20               0               0               0   0.00023918417       41.988059    0.0031823951    7.515014e-05
    0.010325776      0.85859785   0.00042856753   1.6023281e-20               0               0               0   0.00023965469        39.18031    0.0030240941   7.5298494e-05
     0.01166558      0.87491323   0.00051062624   4.0565426e-21               0               0               0   0.00024000766       36.833241    0.0028246284   7.3109987e-05
    0.013179228      0.89277136   0.00061403815   1.7909547e-20               0               0               0   0.00024015097       34.787023    0.0025665982   6.8305548e-05
    0.014889277      0.91247574   0.00074574682   1.6570998e-20               0               0               0   0.00023993652       32.818619    0.0022283443   6.0909836e-05
    0.016821209      0.93403218   0.00091052756   5.0714638e-20               0               0               0   0.00023904303       30.697528    0.0017936219   5.1466307e-05
    0.019003816      0.95679114    0.0011121032   7.7419522e-20               0               0               0    0.0002372739       28.146617    0.0012635042   4.0159483e-05
    0.021469624      0.97883319    0.0013395401    4.386465e-20               0               0               0   0.00023446779       23.077376    0.0006884512   2.6268342e-05
    0.024255377      0.99526702    0.0015166026    2.405456e-20               0               0               0   0.00022960065       14.332447   0.00023566156   1.2129223e-05
    0.027402591       1.0024697    0.0015843218   5.5562025e-21               0               0               0   0.00022278762        7.312605   3.6689925e-05   3.1150327e-06
    0.030958166        1.003776    0.0015883045               0               0               0               0   0.00021582929       5.3269987   1.7761064e-06   3.2427193e-07
    0.034975088       1.0038179    0.0015795051               0               0               0               0   0.00020933815       5.2603575   6.5595375e-07   1.2469786e-07
    0.039513219       1.0038155    0.0015693756   1.9703151e-20               0               0               0   0.00020287733       5.2618482   6.5391265e-07   1.2427305e-07
    0.044640187       1.0038176    0.0015601511   2.9551637e-20               0               0               0   0.00019621874       5.2622593   6.5412435e-07   1.2430341e-07
    0.050432395       1.0038245    0.0015498643   9.8484505e-21               0               0               0   0.00018935984       5.2622372   6.5413622e-07   1.2430619e-07
    0.056976161       1.0038303    0.0015380529               0               0               0               0   0.00018239835       5.2622296     6.54133e-07   1.2430576e-07
    0.064369002       1.0038309    0.0015254739               0               0               0               0   0.00017550901       5.2622238   6.5413179e-07   1.2430567e-07
    0.072721087       1.0038279     0.001511765               0               0               0               0   0.00016884479       5.2622136   6.5413018e-07    1.243056e-07
    0.082156882       1.0038227      0.00149708               0               0               0               0   0.00016249315       5.2621961   6.5412763e-07   1.2430553e-07
    0.092817002        1.003815    0.0014811882               0               0               0               0   0.00015653504       5.2621689   6.5412383e-07   1.2430545e-07
