# y+ ()             
# Time              	patch               	min                 	max                 	average             
0                   	top	4.624605718533e+00	4.624605718534e+00	4.624605718534e+00
1                   	top	2.797685999304e+00	3.183802358956e+00	2.803157193792e+00
2                   	top	1.772090620291e+00	2.610875539156e+00	1.784505097106e+00
3                   	top	1.414871522820e+00	2.491717008687e+00	1.434010078837e+00
4                   	top	1.242561225013e+00	2.452713460450e+00	1.268555715064e+00
5                   	top	1.140420717455e+00	2.435453144874e+00	1.169389732496e+00
6                   	top	1.069288238984e+00	2.435949922075e+00	1.101640118074e+00
7                   	top	1.016480354928e+00	2.443445954885e+00	1.053008947838e+00
8                   	top	9.749575567852e-01	2.447264567532e+00	1.015528893901e+00
9                   	top	9.419785080058e-01	2.449533767976e+00	9.865929793668e-01
10                  	top	9.153448259276e-01	2.451102076590e+00	9.640584155834e-01
11                  	top	8.941579164960e-01	2.452282241624e+00	9.470445770766e-01
12                  	top	8.775837176648e-01	2.453156457523e+00	9.346733616206e-01
13                  	top	8.653548098119e-01	2.453810528312e+00	9.266547932233e-01
14                  	top	8.572064028329e-01	2.454295987731e+00	9.226739454047e-01
15                  	top	8.531221631321e-01	2.454666894890e+00	9.226666367815e-01
16                  	top	8.530356704426e-01	2.454954505697e+00	9.264916203650e-01
17                  	top	8.569195507850e-01	2.455182518380e+00	9.340421762123e-01
18                  	top	8.646090605030e-01	2.455363159349e+00	9.450601459239e-01
19                  	top	8.758312920749e-01	2.455504421093e+00	9.591814728272e-01
20                  	top	8.901312231880e-01	2.455613036731e+00	9.758624088158e-01
21                  	top	9.069221202718e-01	2.455695053610e+00	9.944427422517e-01
22                  	top	9.255070283642e-01	2.455755322721e+00	1.014172033465e+00
23                  	top	9.451636392121e-01	2.455798002717e+00	1.034301823968e+00
24                  	top	9.652072428619e-01	2.455826430638e+00	1.054148141525e+00
25                  	top	9.850601252957e-01	2.455843473555e+00	1.073157412268e+00
26                  	top	1.004285493794e+00	2.455851521168e+00	1.090932575685e+00
27                  	top	1.022601204409e+00	2.455852611482e+00	1.107237560613e+00
28                  	top	1.039864852438e+00	2.455848401442e+00	1.121975592466e+00
29                  	top	1.056044110428e+00	2.455840409639e+00	1.135156940245e+00
30                  	top	1.071166172124e+00	2.455829911688e+00	1.146861064592e+00
31                  	top	1.085239667945e+00	2.455818036561e+00	1.157198961669e+00
32                  	top	1.098188934715e+00	2.455805672901e+00	1.166280396572e+00
33                  	top	1.109920619849e+00	2.455793583460e+00	1.174203598140e+00
34                  	top	1.120464739951e+00	2.455782302657e+00	1.181072895759e+00
35                  	top	1.129978900061e+00	2.455772264571e+00	1.187012636752e+00
36                  	top	1.138652946280e+00	2.455763703068e+00	1.192157301332e+00
37                  	top	1.146648652972e+00	2.455756789861e+00	1.196633040827e+00
38                  	top	1.154089021702e+00	2.455751531014e+00	1.200546715712e+00
39                  	top	1.161062704615e+00	2.455747916665e+00	1.203983561110e+00
40                  	top	1.167628354389e+00	2.455745813535e+00	1.207009929794e+00
41                  	top	1.173819618423e+00	2.455745108182e+00	1.209677085100e+00
42                  	top	1.177906817437e+00	2.455745593780e+00	1.212025030094e+00
43                  	top	1.177397075093e+00	2.455747114811e+00	1.214085467888e+00
44                  	top	1.177023565155e+00	2.455749440939e+00	1.215884365280e+00
45                  	top	1.176774681133e+00	2.455752404558e+00	1.217443699172e+00
46                  	top	1.176637260740e+00	2.455755779900e+00	1.218783060555e+00
47                  	top	1.176597009364e+00	2.455759424989e+00	1.219920079352e+00
48                  	top	1.176639103459e+00	2.455763152138e+00	1.220871283481e+00
49                  	top	1.176749474931e+00	2.455766859953e+00	1.221652384687e+00
50                  	top	1.176913566146e+00	2.455770403499e+00	1.222278615271e+00
51                  	top	1.177117349475e+00	2.455773725044e+00	1.222764731152e+00
52                  	top	1.177347656177e+00	2.455776724088e+00	1.223125223133e+00
53                  	top	1.177592521990e+00	2.455779385988e+00	1.223374137008e+00
54                  	top	1.177841424564e+00	2.455781652601e+00	1.223525191806e+00
55                  	top	1.178085439184e+00	2.455783547505e+00	1.223591577176e+00
56                  	top	1.178317230115e+00	2.455785045086e+00	1.223585959234e+00
57                  	top	1.178531124662e+00	2.455786194758e+00	1.223520289263e+00
58                  	top	1.178722989106e+00	2.455786992419e+00	1.223405858157e+00
59                  	top	1.178890182747e+00	2.455787503515e+00	1.223253092379e+00
60                  	top	1.179031331918e+00	2.455787734924e+00	1.223071613590e+00
61                  	top	1.179146217248e+00	2.455787757961e+00	1.222870066973e+00
62                  	top	1.179235573337e+00	2.455787581640e+00	1.222656207004e+00
63                  	top	1.179300904198e+00	2.455787276186e+00	1.222436758856e+00
64                  	top	1.179344239550e+00	2.455786846891e+00	1.222217534557e+00
65                  	top	1.179368028647e+00	2.455786358974e+00	1.222003333906e+00
66                  	top	1.179374918652e+00	2.455785812087e+00	1.221798099622e+00
67                  	top	1.179367690924e+00	2.455785264636e+00	1.221604829324e+00
68                  	top	1.179349085007e+00	2.455784707993e+00	1.221425760107e+00
69                  	top	1.179321767943e+00	2.455784191655e+00	1.221262347679e+00
70                  	top	1.179288191684e+00	2.455783698174e+00	1.221115467202e+00
71                  	top	1.179250612002e+00	2.455783268987e+00	1.220985355848e+00
72                  	top	1.179210988474e+00	2.455782879264e+00	1.220871824230e+00
73                  	top	1.179171031747e+00	2.455782564042e+00	1.220774228809e+00
74                  	top	1.179132131160e+00	2.455782292823e+00	1.220691685274e+00
75                  	top	1.179095425758e+00	2.455782095930e+00	1.220623027278e+00
76                  	top	1.179061750461e+00	2.455781938926e+00	1.220567006232e+00
77                  	top	1.179031722102e+00	2.455781849008e+00	1.220522232179e+00
78                  	top	1.179005697037e+00	2.455781789357e+00	1.220487355369e+00
79                  	top	1.178983866368e+00	2.455781785557e+00	1.220460989029e+00
80                  	top	1.178966216790e+00	2.455781799791e+00	1.220441865697e+00
81                  	top	1.178952627426e+00	2.455781857274e+00	1.220428745575e+00
82                  	top	1.178942833317e+00	2.455781920273e+00	1.220420555102e+00
83                  	top	1.178936511853e+00	2.455782014501e+00	1.220416274726e+00
84                  	top	1.178933265201e+00	2.455782103045e+00	1.220415066668e+00
85                  	top	1.178932684171e+00	2.455782212680e+00	1.220416147015e+00
86                  	top	1.178934310368e+00	2.455782307708e+00	1.220418913170e+00
87                  	top	1.178937722912e+00	2.455782416222e+00	1.220422807229e+00
88                  	top	1.178942479063e+00	2.455782503874e+00	1.220427428702e+00
89                  	top	1.178948205799e+00	2.455782600060e+00	1.220432405632e+00
90                  	top	1.178954529315e+00	2.455782671701e+00	1.220437502716e+00
91                  	top	1.178961154852e+00	2.455782749339e+00	1.220442488923e+00
92                  	top	1.178967776884e+00	2.455782800969e+00	1.220447248833e+00
93                  	top	1.178974214514e+00	2.455782858020e+00	1.220451654252e+00
94                  	top	1.178980273801e+00	2.455782889193e+00	1.220455673912e+00
95                  	top	1.178985835742e+00	2.455782926552e+00	1.220459242319e+00
96                  	top	1.178990789434e+00	2.455782939347e+00	1.220462380135e+00
97                  	top	1.178995092783e+00	2.455782960008e+00	1.220465063547e+00
98                  	top	1.178998702589e+00	2.455782958066e+00	1.220467344154e+00
99                  	top	1.179001636060e+00	2.455782966071e+00	1.220469218859e+00
100                 	top	1.179003900914e+00	2.455782953589e+00	1.220470751824e+00
101                 	top	1.179005554167e+00	2.455782953148e+00	1.220471948181e+00
102                 	top	1.179006634159e+00	2.455782934223e+00	1.220472877085e+00
103                 	top	1.179007221288e+00	2.455782929212e+00	1.220473543980e+00
104                 	top	1.179007368748e+00	2.455782907398e+00	1.220474015428e+00
105                 	top	1.179007165146e+00	2.455782900985e+00	1.220474293895e+00
106                 	top	1.179006665592e+00	2.455782879029e+00	1.220474441667e+00
107                 	top	1.179005955120e+00	2.455782873502e+00	1.220474455957e+00
108                 	top	1.179005080891e+00	2.455782853254e+00	1.220474393106e+00
109                 	top	1.179004117206e+00	2.455782850056e+00	1.220474244736e+00
110                 	top	1.179003097992e+00	2.455782832561e+00	1.220474061342e+00
111                 	top	1.179002083055e+00	2.455782832356e+00	1.220473828708e+00
112                 	top	1.179001091391e+00	2.455782817955e+00	1.220473592108e+00
113                 	top	1.179000167606e+00	2.455782820830e+00	1.220473332151e+00
114                 	top	1.178999317919e+00	2.455782809382e+00	1.220473091146e+00
115                 	top	1.178998573056e+00	2.455782815026e+00	1.220472845696e+00
116                 	top	1.178997924866e+00	2.455782806033e+00	1.220472627820e+00
117                 	top	1.178997392989e+00	2.455782813836e+00	1.220472410916e+00
118                 	top	1.178996960465e+00	2.455782806726e+00	1.220472233071e+00
119                 	top	1.178996640106e+00	2.455782816069e+00	1.220472070102e+00
120                 	top	1.178996408468e+00	2.455782810182e+00	1.220471942695e+00
121                 	top	1.178996273413e+00	2.455782820433e+00	1.220471823279e+00
122                 	top	1.178996207627e+00	2.455782815162e+00	1.220471742803e+00
123                 	top	1.178996216972e+00	2.455782825761e+00	1.220471668770e+00
124                 	top	1.178996273086e+00	2.455782820609e+00	1.220471629945e+00
125                 	top	1.178996381292e+00	2.455782831138e+00	1.220471593104e+00
126                 	top	1.178996514097e+00	2.455782825760e+00	1.220471587114e+00
127                 	top	1.178996677889e+00	2.455782835925e+00	1.220471577195e+00
128                 	top	1.178996846865e+00	2.455782830107e+00	1.220471593350e+00
129                 	top	1.178997030126e+00	2.455782839779e+00	1.220471607557e+00
130                 	top	1.178997203679e+00	2.455782833440e+00	1.220471637266e+00
131                 	top	1.178997378780e+00	2.455782842584e+00	1.220471656114e+00
132                 	top	1.178997534410e+00	2.455782835702e+00	1.220471696193e+00
133                 	top	1.178997684560e+00	2.455782844317e+00	1.220471726367e+00
134                 	top	1.178997809482e+00	2.455782836967e+00	1.220471766420e+00
135                 	top	1.178997924804e+00	2.455782845160e+00	1.220471787249e+00
136                 	top	1.178998013507e+00	2.455782837429e+00	1.220471818954e+00
137                 	top	1.178998092432e+00	2.455782845292e+00	1.220471837776e+00
138                 	top	1.178998145362e+00	2.455782837291e+00	1.220471869397e+00
139                 	top	1.178998190769e+00	2.455782844966e+00	1.220471882739e+00
140                 	top	1.178998213310e+00	2.455782836790e+00	1.220471908407e+00
141                 	top	1.178998231339e+00	2.455782844363e+00	1.220471915244e+00
142                 	top	1.178998230089e+00	2.455782836120e+00	1.220471933028e+00
143                 	top	1.178998227965e+00	2.455782843641e+00	1.220471929970e+00
144                 	top	1.178998210229e+00	2.455782835404e+00	1.220471942890e+00
145                 	top	1.178998195862e+00	2.455782842953e+00	1.220471938281e+00
146                 	top	1.178998169191e+00	2.455782834783e+00	1.220471946957e+00
147                 	top	1.178998148909e+00	2.455782842413e+00	1.220471936853e+00
148                 	top	1.178998118911e+00	2.455782834307e+00	1.220471938022e+00
149                 	top	1.178998097423e+00	2.455782842002e+00	1.220471926272e+00
150                 	top	1.178998068483e+00	2.455782833955e+00	1.220471929866e+00
151                 	top	1.178998049693e+00	2.455782841723e+00	1.220471918630e+00
152                 	top	1.178998024765e+00	2.455782833755e+00	1.220471925374e+00
153                 	top	1.178998010750e+00	2.455782841601e+00	1.220471911756e+00
154                 	top	1.178997991130e+00	2.455782833704e+00	1.220471911523e+00
155                 	top	1.178997982701e+00	2.455782841588e+00	1.220471898715e+00
156                 	top	1.178997968625e+00	2.455782833752e+00	1.220471901954e+00
157                 	top	1.178997965470e+00	2.455782841681e+00	1.220471890139e+00
158                 	top	1.178997956475e+00	2.455782833864e+00	1.220471894404e+00
159                 	top	1.178997958435e+00	2.455782841848e+00	1.220471883632e+00
160                 	top	1.178997953726e+00	2.455782834053e+00	1.220471891147e+00
161                 	top	1.178997959365e+00	2.455782842025e+00	1.220471887236e+00
162                 	top	1.178997957774e+00	2.455782834225e+00	1.220471892558e+00
163                 	top	1.178997965637e+00	2.455782842196e+00	1.220471878953e+00
164                 	top	1.178997965849e+00	2.455782834381e+00	1.220471885802e+00
165                 	top	1.178997974955e+00	2.455782842338e+00	1.220471877645e+00
166                 	top	1.178997975863e+00	2.455782834525e+00	1.220471885390e+00
167                 	top	1.178997984952e+00	2.455782842446e+00	1.220471879916e+00
168                 	top	1.178997985594e+00	2.455782834598e+00	1.220471893698e+00
169                 	top	1.178997994863e+00	2.455782842525e+00	1.220471887626e+00
170                 	top	1.178997995193e+00	2.455782834661e+00	1.220471894066e+00
171                 	top	1.178998003516e+00	2.455782842578e+00	1.220471880390e+00
172                 	top	1.178998003148e+00	2.455782834713e+00	1.220471889879e+00
173                 	top	1.178998010786e+00	2.455782842620e+00	1.220471886795e+00
174                 	top	1.178998009549e+00	2.455782834752e+00	1.220471895746e+00
175                 	top	1.178998016119e+00	2.455782842652e+00	1.220471888852e+00
176                 	top	1.178998013772e+00	2.455782834782e+00	1.220471897456e+00
177                 	top	1.178998018910e+00	2.455782842637e+00	1.220471890390e+00
178                 	top	1.178998015485e+00	2.455782834762e+00	1.220471898870e+00
179                 	top	1.178998021213e+00	2.455782842593e+00	1.220471891814e+00
180                 	top	1.178998017447e+00	2.455782834722e+00	1.220471900120e+00
181                 	top	1.178998021777e+00	2.455782842606e+00	1.220471892776e+00
182                 	top	1.178998017517e+00	2.455782834716e+00	1.220471900945e+00
183                 	top	1.178998021496e+00	2.455782842589e+00	1.220471893483e+00
184                 	top	1.178998016755e+00	2.455782834715e+00	1.220471899181e+00
185                 	top	1.178998020028e+00	2.455782842583e+00	1.220471886554e+00
186                 	top	1.178998014663e+00	2.455782834680e+00	1.220471896294e+00
187                 	top	1.178998018165e+00	2.455782842562e+00	1.220471888263e+00
188                 	top	1.178998013091e+00	2.455782834677e+00	1.220471895634e+00
189                 	top	1.178998016733e+00	2.455782842566e+00	1.220471889795e+00
190                 	top	1.178998012236e+00	2.455782834670e+00	1.220471903455e+00
191                 	top	1.178998016179e+00	2.455782842558e+00	1.220471894258e+00
192                 	top	1.178998011735e+00	2.455782834693e+00	1.220471896786e+00
193                 	top	1.178998015720e+00	2.455782842581e+00	1.220471888270e+00
194                 	top	1.178998011167e+00	2.455782834693e+00	1.220471895556e+00
195                 	top	1.178998015079e+00	2.455782842557e+00	1.220471887329e+00
196                 	top	1.178998010244e+00	2.455782834695e+00	1.220471894693e+00
197                 	top	1.178998014682e+00	2.455782842544e+00	1.220471888698e+00
198                 	top	1.178998010816e+00	2.455782834654e+00	1.220471901864e+00
199                 	top	1.178998014327e+00	2.455782842549e+00	1.220471892707e+00
200                 	top	1.178998010259e+00	2.455782834630e+00	1.220471895294e+00
201                 	top	1.178998014753e+00	2.455782842552e+00	1.220471886927e+00
202                 	top	1.178998009484e+00	2.455782834689e+00	1.220471894374e+00
203                 	top	1.178998014489e+00	2.455782842552e+00	1.220471886331e+00
204                 	top	1.178998011001e+00	2.455782834731e+00	1.220471893873e+00
205                 	top	1.178998016229e+00	2.455782842562e+00	1.220471888063e+00
206                 	top	1.178998012158e+00	2.455782834724e+00	1.220471901408e+00
207                 	top	1.178998016390e+00	2.455782842599e+00	1.220471892432e+00
208                 	top	1.178998012222e+00	2.455782834736e+00	1.220471895300e+00
209                 	top	1.178998016998e+00	2.455782842622e+00	1.220471887078e+00
210                 	top	1.178998013027e+00	2.455782834737e+00	1.220471894663e+00
211                 	top	1.178998017108e+00	2.455782842656e+00	1.220471886664e+00
212                 	top	1.178998013333e+00	2.455782834753e+00	1.220471894293e+00
213                 	top	1.178998017289e+00	2.455782842620e+00	1.220471888264e+00
214                 	top	1.178998012880e+00	2.455782834769e+00	1.220471900898e+00
215                 	top	1.178998016685e+00	2.455782842618e+00	1.220471892040e+00
216                 	top	1.178998012175e+00	2.455782834772e+00	1.220471895414e+00
217                 	top	1.178998016218e+00	2.455782842643e+00	1.220471887225e+00
218                 	top	1.178998011747e+00	2.455782834741e+00	1.220471894827e+00
219                 	top	1.178998015831e+00	2.455782842625e+00	1.220471886872e+00
220                 	top	1.178998011767e+00	2.455782834772e+00	1.220471894490e+00
221                 	top	1.178998015928e+00	2.455782842621e+00	1.220471888379e+00
222                 	top	1.178998011764e+00	2.455782834490e+00	1.220471900832e+00
223                 	top	1.178998015948e+00	2.455782842586e+00	1.220471892088e+00
224                 	top	1.178998011706e+00	2.455782834743e+00	1.220471895857e+00
225                 	top	1.178998016061e+00	2.455782842605e+00	1.220471887724e+00
226                 	top	1.178998012036e+00	2.455782834821e+00	1.220471895374e+00
227                 	top	1.178998016316e+00	2.455782841662e+00	1.220471887464e+00
228                 	top	1.178998011589e+00	2.455782834498e+00	1.220471894973e+00
229                 	top	1.178998015443e+00	2.455782842467e+00	1.220471888550e+00
230                 	top	1.178998011160e+00	2.455782834667e+00	1.220471900241e+00
231                 	top	1.178998015103e+00	2.455782842474e+00	1.220471891604e+00
232                 	top	1.178998010675e+00	2.455782834654e+00	1.220471895858e+00
233                 	top	1.178998014919e+00	2.455782842194e+00	1.220471887756e+00
234                 	top	1.178998010996e+00	2.455782834861e+00	1.220471895397e+00
235                 	top	1.178998015884e+00	2.455782842616e+00	1.220471887492e+00
236                 	top	1.178998011800e+00	2.455782834739e+00	1.220471895088e+00
237                 	top	1.178998015909e+00	2.455782842073e+00	1.220471887162e+00
238                 	top	1.178998011769e+00	2.455782834897e+00	1.220471896455e+00
239                 	top	1.178998015796e+00	2.455782842824e+00	1.220471892895e+00
240                 	top	1.178998011410e+00	2.455782834759e+00	1.220471899780e+00
241                 	top	1.178998015837e+00	2.455782842616e+00	1.220471888302e+00
242                 	top	1.178998011678e+00	2.455782834916e+00	1.220471895763e+00
243                 	top	1.178998016072e+00	2.455782841750e+00	1.220471887841e+00
244                 	top	1.178998011774e+00	2.455782834637e+00	1.220471895442e+00
245                 	top	1.178998016213e+00	2.455782842508e+00	1.220471887523e+00
246                 	top	1.178998012409e+00	2.455782835383e+00	1.220471895169e+00
247                 	top	1.178998016823e+00	2.455782842144e+00	1.220471887264e+00
248                 	top	1.178998012628e+00	2.455782835028e+00	1.220471894886e+00
249                 	top	1.178998016860e+00	2.455782842287e+00	1.220471886945e+00
250                 	top	1.178998012524e+00	2.455782835126e+00	1.220471894532e+00
251                 	top	1.178998016617e+00	2.455782842213e+00	1.220471886557e+00
252                 	top	1.178998012174e+00	2.455782835029e+00	1.220471894110e+00
253                 	top	1.178998016073e+00	2.455782842186e+00	1.220471886103e+00
254                 	top	1.178998011551e+00	2.455782834932e+00	1.220471893633e+00
255                 	top	1.178998009029e+00	2.455782842252e+00	1.220471888449e+00
256                 	top	1.178998006234e+00	2.455782834611e+00	1.220471902114e+00
257                 	top	1.178998011712e+00	2.455782842586e+00	1.220471891582e+00
258                 	top	1.178998008904e+00	2.455782835154e+00	1.220471899583e+00
259                 	top	1.178998013558e+00	2.455782842212e+00	1.220471892212e+00
260                 	top	1.178998010356e+00	2.455782835067e+00	1.220471897693e+00
261                 	top	1.178998015569e+00	2.455782842712e+00	1.220471883137e+00
262                 	top	1.178998011795e+00	2.455782834832e+00	1.220471892176e+00
263                 	top	1.178998015926e+00	2.455782842691e+00	1.220471889775e+00
264                 	top	1.178998011340e+00	2.455782834721e+00	1.220471898205e+00
265                 	top	1.178998016139e+00	2.455782842610e+00	1.220471890833e+00
266                 	top	1.178998011941e+00	2.455782835871e+00	1.220471898945e+00
267                 	top	1.178998016001e+00	2.455782842422e+00	1.220471891499e+00
268                 	top	1.178998011547e+00	2.455782835040e+00	1.220471899584e+00
269                 	top	1.178998014977e+00	2.455782842193e+00	1.220471892104e+00
270                 	top	1.178998010675e+00	2.455782834863e+00	1.220471898002e+00
271                 	top	1.178998015563e+00	2.455782842569e+00	1.220471884844e+00
272                 	top	1.178998011853e+00	2.455782835759e+00	1.220471893829e+00
273                 	top	1.178998016610e+00	2.455782842738e+00	1.220471890780e+00
274                 	top	1.178998012057e+00	2.455782835284e+00	1.220471898991e+00
275                 	top	1.178998016833e+00	2.455782841706e+00	1.220471891509e+00
276                 	top	1.178998012506e+00	2.455782834534e+00	1.220471899690e+00
277                 	top	1.178998016007e+00	2.455782841469e+00	1.220471892091e+00
278                 	top	1.178998011406e+00	2.455782834517e+00	1.220471900004e+00
279                 	top	1.178998016416e+00	2.455782842593e+00	1.220471892399e+00
280                 	top	1.178998012640e+00	2.455782835705e+00	1.220471900358e+00
281                 	top	1.178998020598e+00	2.455782842721e+00	1.220471892842e+00
282                 	top	1.178998019393e+00	2.455782835601e+00	1.220471900853e+00
283                 	top	1.178998006553e+00	2.455782842462e+00	1.220471892929e+00
284                 	top	1.178998004794e+00	2.455782835884e+00	1.220471900965e+00
285                 	top	1.178998012271e+00	2.455782842694e+00	1.220471893508e+00
286                 	top	1.178998010170e+00	2.455782835153e+00	1.220471901586e+00
287                 	top	1.178998016694e+00	2.455782842513e+00	1.220471894115e+00
288                 	top	1.178998013493e+00	2.455782835180e+00	1.220471902169e+00
289                 	top	1.178998018903e+00	2.455782842548e+00	1.220471894673e+00
290                 	top	1.178998014894e+00	2.455782835177e+00	1.220471902699e+00
291                 	top	1.178998019329e+00	2.455782842666e+00	1.220471891510e+00
292                 	top	1.178998014322e+00	2.455782834286e+00	1.220471891983e+00
293                 	top	1.178998018090e+00	2.455782842619e+00	1.220471888036e+00
294                 	top	1.178998013523e+00	2.455782835409e+00	1.220471895528e+00
295                 	top	1.178998017238e+00	2.455782842270e+00	1.220471887191e+00
296                 	top	1.178998012644e+00	2.455782835043e+00	1.220471897800e+00
297                 	top	1.178998016912e+00	2.455782842647e+00	1.220471898478e+00
298                 	top	1.178998012802e+00	2.455782835109e+00	1.220471904394e+00
299                 	top	1.178998017250e+00	2.455782842669e+00	1.220471889572e+00
300                 	top	1.178998012775e+00	2.455782834789e+00	1.220471896454e+00
301                 	top	1.178998016946e+00	2.455782842091e+00	1.220471888113e+00
302                 	top	1.178998012579e+00	2.455782834639e+00	1.220471895368e+00
303                 	top	1.178998016671e+00	2.455782841699e+00	1.220471887098e+00
304                 	top	1.178998012212e+00	2.455782834629e+00	1.220471896658e+00
305                 	top	1.178998016587e+00	2.455782842475e+00	1.220471894363e+00
306                 	top	1.178998012430e+00	2.455782835561e+00	1.220471900895e+00
307                 	top	1.178998016997e+00	2.455782842709e+00	1.220471888484e+00
308                 	top	1.178998012691e+00	2.455782834805e+00	1.220471895785e+00
309                 	top	1.178998016723e+00	2.455782841975e+00	1.220471887773e+00
310                 	top	1.178998012319e+00	2.455782834435e+00	1.220471895354e+00
311                 	top	1.178998019687e+00	2.455782841802e+00	1.220471887445e+00
312                 	top	1.178998009964e+00	2.455782834528e+00	1.220471894948e+00
313                 	top	1.178998014238e+00	2.455782842437e+00	1.220471888418e+00
314                 	top	1.178998010859e+00	2.455782834627e+00	1.220471900013e+00
315                 	top	1.178998017428e+00	2.455782842037e+00	1.220471892695e+00
316                 	top	1.178998013710e+00	2.455782834659e+00	1.220471898459e+00
317                 	top	1.178998017879e+00	2.455782842506e+00	1.220471885050e+00
318                 	top	1.178998013382e+00	2.455782835028e+00	1.220471891960e+00
319                 	top	1.178998017275e+00	2.455782841461e+00	1.220471885657e+00
320                 	top	1.178998012404e+00	2.455782834477e+00	1.220471898194e+00
321                 	top	1.178998016179e+00	2.455782842000e+00	1.220471891040e+00
322                 	top	1.178998011522e+00	2.455782835859e+00	1.220471897650e+00
323                 	top	1.178998015817e+00	2.455782842805e+00	1.220471886203e+00
324                 	top	1.178998013082e+00	2.455782835769e+00	1.220471893709e+00
325                 	top	1.178998017447e+00	2.455782842753e+00	1.220471886987e+00
326                 	top	1.178998012603e+00	2.455782834790e+00	1.220471897653e+00
327                 	top	1.178998016483e+00	2.455782841951e+00	1.220471890328e+00
328                 	top	1.178998012197e+00	2.455782834663e+00	1.220471898407e+00
329                 	top	1.178998016351e+00	2.455782841899e+00	1.220471891019e+00
330                 	top	1.178998012080e+00	2.455782834543e+00	1.220471897799e+00
331                 	top	1.178998015990e+00	2.455782842574e+00	1.220471886161e+00
332                 	top	1.178998011848e+00	2.455782835331e+00	1.220471893411e+00
333                 	top	1.178998016072e+00	2.455782842082e+00	1.220471887190e+00
334                 	top	1.178998011513e+00	2.455782834638e+00	1.220471899583e+00
335                 	top	1.178998015897e+00	2.455782842273e+00	1.220471892399e+00
336                 	top	1.178998011679e+00	2.455782835833e+00	1.220471899008e+00
337                 	top	1.178998016324e+00	2.455782842809e+00	1.220471887639e+00
338                 	top	1.178998015152e+00	2.455782835716e+00	1.220471894922e+00
339                 	top	1.178998019083e+00	2.455782842793e+00	1.220471886581e+00
340                 	top	1.178998009506e+00	2.455782834983e+00	1.220471893964e+00
341                 	top	1.178998013738e+00	2.455782841967e+00	1.220471888113e+00
342                 	top	1.178998010038e+00	2.455782834628e+00	1.220471901471e+00
343                 	top	1.178998014603e+00	2.455782842577e+00	1.220471892583e+00
344                 	top	1.178998011101e+00	2.455782834719e+00	1.220471895711e+00
345                 	top	1.178998015602e+00	2.455782841780e+00	1.220471887478e+00
346                 	top	1.178998011559e+00	2.455782835007e+00	1.220471895030e+00
347                 	top	1.178998016792e+00	2.455782842649e+00	1.220471887084e+00
348                 	top	1.178998012755e+00	2.455782834731e+00	1.220471894638e+00
349                 	top	1.178998016628e+00	2.455782841014e+00	1.220471886678e+00
350                 	top	1.178998012163e+00	2.455782834605e+00	1.220471894243e+00
351                 	top	1.178998016400e+00	2.455782842009e+00	1.220471886259e+00
352                 	top	1.178998012201e+00	2.455782834993e+00	1.220471896346e+00
353                 	top	1.178998016552e+00	2.455782842623e+00	1.220471895004e+00
354                 	top	1.178998012422e+00	2.455782834719e+00	1.220471901210e+00
355                 	top	1.178998016572e+00	2.455782842587e+00	1.220471887331e+00
356                 	top	1.178998015235e+00	2.455782835071e+00	1.220471894605e+00
357                 	top	1.178998019177e+00	2.455782841850e+00	1.220471886604e+00
358                 	top	1.178998013334e+00	2.455782834757e+00	1.220471894113e+00
359                 	top	1.178998016924e+00	2.455782842449e+00	1.220471887859e+00
360                 	top	1.178998012412e+00	2.455782834653e+00	1.220471900391e+00
361                 	top	1.178998016249e+00	2.455782841921e+00	1.220471893400e+00
362                 	top	1.178998011889e+00	2.455782834881e+00	1.220471899304e+00
363                 	top	1.178998016250e+00	2.455782842535e+00	1.220471885681e+00