#      distance           pMean         UMean_x         UMean_y         UMean_z         nutMean wallShearStr... wallShearStr... wallShearStr...
  3.0219182e-06   7.8513875e-05     0.023411125   1.4881991e-08   8.0477693e-39   5.5668232e-13               0               0               0
  5.0865428e-06    7.851778e-05     0.039360558   2.4457565e-08   2.8746378e-40   5.0762819e-12               0               0               0
  7.2269684e-06   7.8523258e-05     0.055839686   3.4585205e-08  -8.9292989e-39    2.827612e-11               0               0               0
  9.4750924e-06   7.8530248e-05     0.073069868   4.5497735e-08  -9.4621766e-39   1.1494787e-10               0               0               0
  1.1864417e-05   7.8538605e-05     0.091274592   5.7439264e-08               0   3.7711394e-10               0               0               0
  1.4430548e-05   7.8548189e-05      0.11067063   7.0686213e-08               0   1.0596111e-09               0               0               0
  1.7211727e-05   7.8558886e-05      0.13144671    8.554994e-08   1.9998043e-37   2.6405518e-09               0               0               0
  2.0249401e-05   7.8570631e-05      0.15372352   1.0232477e-07   1.8691683e-37   5.9517944e-09               0               0               0
  2.3588836e-05   7.8583429e-05      0.17749587   1.2128837e-07   2.2399512e-37   1.2261328e-08               0               0               0
  2.7279799e-05   7.8597387e-05      0.20257754   1.4255889e-07  -1.0086008e-38   2.3223737e-08               0               0               0
  3.1377293e-05   7.8612719e-05      0.22858951   1.6605252e-07  -4.7705447e-37   4.0644706e-08               0               0               0
  3.5942381e-05   7.8629743e-05       0.2550258   1.9164052e-07  -2.2990974e-37   6.6107418e-08               0               0               0
  4.1043091e-05    7.864885e-05      0.28137782   2.1905779e-07   2.4784482e-37   1.0072023e-07               0               0               0
  4.6755437e-05    7.867045e-05      0.30724749   2.4802809e-07   4.6896474e-37   1.4505776e-07               0               0               0
  5.3164546e-05   7.8694913e-05      0.33239493   2.7854959e-07  -9.9588528e-39   1.9933716e-07               0               0               0
  6.0365928e-05   7.8722556e-05      0.35670305   3.1083257e-07  -4.4681905e-37   2.6456215e-07               0               0               0
    6.84669e-05    7.875368e-05      0.38009744   3.4516806e-07  -2.1574028e-37   3.4313168e-07               0               0               0
  7.7588184e-05   7.8788625e-05      0.40250916   3.8190268e-07               0   4.3765574e-07               0               0               0
   8.786571e-05   7.8827759e-05      0.42389283   4.2143891e-07  -2.0689647e-37   5.5032856e-07               0               0               0
  9.9452634e-05   7.8871435e-05      0.44424603   4.6427168e-07  -7.3736616e-39   6.8304463e-07               0               0               0
  0.00011252163   7.8919953e-05      0.46361636   5.1104077e-07   1.9952281e-37   8.3681146e-07               0               0               0
  0.00012726745   7.8973531e-05      0.48209675   5.6257382e-07   1.5007893e-36   1.0115422e-06               0               0               0
  0.00014390985   7.9032336e-05      0.49979739   6.1988736e-07   3.3894556e-38    1.208444e-06               0               0               0
  0.00016269684   7.9096566e-05      0.51681082   6.8410485e-07  -2.7325573e-38   1.4311804e-06               0               0               0
  0.00018390838   7.9166493e-05      0.53320525   7.5635386e-07   2.2118686e-38   1.6834289e-06               0               0               0
  0.00020786057   7.9242444e-05      0.54903851   8.3794846e-07  -1.4174504e-36   1.9682597e-06               0               0               0
  0.00023491035    7.932479e-05      0.56436494   9.3040933e-07               0   2.2890315e-06               0               0               0
  0.00026546084   7.9413945e-05      0.57923486   1.0354097e-06               0   2.6494303e-06               0               0               0
   0.0002999673   7.9510375e-05      0.59369388   1.1548515e-06               0   3.0534857e-06               0               0               0
  0.00033894396   7.9614608e-05      0.60778291   1.2908554e-06               0   3.5055548e-06               0               0               0
  0.00038297165   7.9727234e-05      0.62153886   1.4461065e-06               0   4.0103199e-06               0               0               0
  0.00043270649   7.9848895e-05      0.63499492   1.6237528e-06               0   4.5727989e-06               0               0               0
  0.00048888965    7.998025e-05      0.64818063   1.8271841e-06               0   5.1983193e-06               0               0               0
  0.00055235838   8.0122005e-05      0.66112225   2.0603909e-06               0   5.8924687e-06               0               0               0
   0.0006240585   8.0274979e-05      0.67384327   2.3280938e-06               0   6.6610313e-06               0               0               0
  0.00070505852   8.0440113e-05      0.68636481   2.6357594e-06               0   7.5099127e-06               0               0               0
  0.00079656552   8.0618439e-05      0.69870594   2.9896077e-06               0   8.4450298e-06               0               0               0
  0.00089994316   8.0811016e-05      0.71088392   3.3965926e-06               0   9.4721434e-06               0               0               0
    0.001016732   8.1018884e-05      0.72291451   3.8649029e-06               0   1.0596665e-05               0               0               0
   0.0011486725   8.1243087e-05       0.7348121   4.4046448e-06               0    1.182339e-05               0               0               0
   0.0012977308   8.1484802e-05      0.74658991   5.0284746e-06               0   1.3156115e-05               0               0               0
   0.0014661282   8.1745469e-05      0.75826024   5.7516517e-06               0   1.4597166e-05               0               0               0
   0.0016563743   8.2026818e-05      0.76983468   6.5919005e-06               0   1.6146803e-05               0               0               0
   0.0018713042   8.2330791e-05      0.78132434   7.5701881e-06               0     1.78025e-05               0               0               0
   0.0021141207   8.2659493e-05      0.79273989   8.7119019e-06               0   1.9558059e-05               0               0               0
   0.0023884425    8.301521e-05      0.80409142   1.0048278e-05               0   2.1402539e-05               0               0               0
   0.0026983575   8.3400451e-05      0.81538815   1.1617881e-05               0   2.3318901e-05               0               0               0
   0.0030484842   8.3817954e-05       0.8266385   1.3468489e-05   7.3569095e-36   2.5282296e-05               0               0               0
   0.0034440402   8.4270666e-05      0.83785046   1.5659901e-05   1.1038708e-35   2.7258271e-05               0               0               0
   0.0038909203   8.4761664e-05      0.84903152   1.8267505e-05  -3.2178245e-36   2.9200932e-05               0               0               0
    0.004395784   8.5293989e-05      0.86018828   2.1387168e-05  -1.0349459e-35   3.1050875e-05               0               0               0
   0.0049661549   8.5870375e-05      0.87132618    2.514213e-05   6.8488272e-36   3.2733198e-05               0               0               0
   0.0056105328   8.6492798e-05      0.88244904   2.9692522e-05    1.686831e-35   3.4155732e-05               0               0               0
   0.0063385204   8.7161684e-05      0.89355857   3.5248919e-05  -5.8744868e-36    3.520756e-05               0               0               0
   0.0071609664   8.7874531e-05      0.90465418    4.209147e-05  -1.5290396e-35   3.5755368e-05               0               0               0
   0.0080901272   8.8624066e-05      0.91573551   5.0609235e-05  -2.8462611e-36   3.5623274e-05               0               0               0
   0.0091398493   8.9393924e-05      0.92680489    6.135443e-05               0     3.46274e-05               0               0               0
    0.010325776   9.0151639e-05      0.93786023    7.510005e-05               0   3.2666546e-05               0               0               0
     0.01166558   9.0846813e-05      0.94888057   9.2903472e-05               0   2.9727882e-05               0               0               0
    0.013179228   9.1418537e-05      0.95980819   0.00011615246               0   2.5884944e-05               0               0               0
    0.014889277   9.1799925e-05      0.97050591   0.00014644323               0   2.1362384e-05               0               0               0
    0.016821209   9.1907212e-05      0.98066711   0.00018495349               0   1.6493484e-05               0               0               0
    0.019003816     9.17044e-05      0.98975143   0.00023176133               0   1.1316951e-05               0               0               0
    0.021469624   9.1015936e-05      0.99677583   0.00027858408               0   6.1758863e-06               0               0               0
    0.024255377    8.969296e-05       1.0006899   0.00030810675               0   2.3637737e-06               0               0               0
    0.027402591   8.8076065e-05       1.0019129   0.00031695568               0   5.9214272e-07               0               0               0
    0.030958166   8.6495168e-05       1.0020587    0.0003180602   5.0404392e-35    1.731823e-07               0               0               0
    0.034975088   8.4965474e-05       1.0020599   0.00031873972    6.240228e-35   1.5561032e-07               0               0               0
    0.039513219   8.3477409e-05       1.0020573   0.00031962497  -2.6408839e-35   1.5562436e-07               0               0               0
    0.044640187   8.2060533e-05       1.0020553   0.00032088886  -3.8406727e-35   1.5563112e-07               0               0               0
    0.050432395   8.0763863e-05       1.0020537   0.00032241045   2.1439765e-35   1.5563091e-07               0               0               0
    0.056976161   7.9644655e-05       1.0020513   0.00032390103   1.1066653e-35   1.5563082e-07               0               0               0
    0.064369002   7.8772078e-05       1.0020474   0.00032495533   7.5232757e-36   1.5563082e-07               0               0               0
    0.072721087   7.8186946e-05        1.002042   0.00032562888   2.1162014e-35   1.5563087e-07               0               0               0
    0.082156882   7.7857236e-05       1.0020351   0.00032625252  -2.1907691e-35   1.5563096e-07               0               0               0
    0.092817002   7.7703048e-05       1.0020267   0.00032704708  -2.5173173e-35   1.5563108e-07               0               0               0
