#      distance           pMean         UMean_x         UMean_y         UMean_z         nutMean wallShearStr... wallShearStr... wallShearStr...
  3.0219182e-06    9.532357e-06    0.0047609549   7.3261252e-12   1.6364388e-39   5.3615952e-33               0               0               0
  5.0865428e-06   9.5323576e-06    0.0079886571   1.9569502e-11  -5.3571066e-40   1.2272764e-33               0               0               0
  7.2269684e-06   9.5323583e-06     0.011307654   3.9307405e-11  -1.7825633e-39   2.0671049e-34               0               0               0
  9.4750924e-06    9.532359e-06     0.014760205   6.7732897e-11  -1.2942075e-39   4.5076577e-37               0               0               0
  1.1864417e-05   9.5323597e-06     0.018390246   1.0651759e-10               0   3.4871582e-37               0               0               0
  1.4430548e-05   9.5323605e-06     0.022243869   1.5803719e-10               0   3.4190184e-37               0               0               0
  1.7211727e-05   9.5323614e-06     0.026369861    2.254843e-10   4.0794979e-38   7.0725065e-37               0               0               0
  2.0249401e-05   9.5323623e-06     0.030820306    3.130625e-10   3.7080867e-38   2.0198987e-36               0               0               0
  2.3588836e-05   9.5323634e-06     0.035651223   4.2626731e-10   3.2407922e-38    7.939202e-36               0               0               0
  2.7279799e-05   9.5323646e-06     0.040923232   5.7226391e-10  -3.4186917e-39   4.4474481e-35               0               0               0
  3.1377293e-05   9.5323659e-06     0.046702239   7.6038707e-10  -9.2801412e-38   3.4214409e-34               0               0               0
  3.5942381e-05   9.5323674e-06     0.053060127   1.0028046e-09  -5.3260688e-38   3.3455301e-33               0               0               0
  4.1043091e-05   9.5323691e-06     0.060075438   1.3153998e-09   4.5637589e-38   3.9886104e-32               0               0               0
  4.6755437e-05   9.5323711e-06     0.067834026   1.7189445e-09   1.2030115e-37   5.8023708e-31               0               0               0
  5.3164546e-05   9.5323734e-06     0.076429668   2.2406588e-09   1.5528784e-38   1.0497157e-29               0               0               0
  6.0365928e-05    9.532376e-06     0.085964581   2.9162794e-09   -1.392987e-37   2.3294836e-28               0               0               0
    6.84669e-05   9.5323791e-06     0.096549832   3.7927976e-09  -8.0163922e-38   1.6355822e-27               0               0               0
  7.7588184e-05   9.5323827e-06      0.10830557   4.9320707e-09               0   3.9611317e-27               0               0               0
   8.786571e-05   9.5323869e-06      0.12136103   6.4155745e-09  -6.7329276e-38   3.9573514e-27               0               0               0
  9.9452634e-05   9.5323919e-06      0.13585418   8.3506538e-09   1.9359789e-39   1.6683921e-27               0               0               0
  0.00011252163   9.5323977e-06      0.15193105   1.0878755e-08   6.9265255e-38   3.0098448e-28               0               0               0
  0.00012726745   9.5324047e-06      0.16974434   1.4186327e-08   5.6259709e-37   1.0763735e-28               0               0               0
  0.00014390985   9.5324129e-06      0.18945149   1.8519365e-08   7.7440895e-39    1.892964e-28               0               0               0
  0.00016269684   9.5324228e-06      0.21121173   2.4203028e-08  -1.5271589e-38   3.5639958e-28               0               0               0
  0.00018390838   9.5324346e-06      0.23518206   3.1668421e-08   2.1820683e-38   5.5725313e-28               0               0               0
  0.00020786057   9.5324489e-06      0.26151189   4.1489656e-08  -5.1776073e-37   1.1831694e-27               0               0               0
  0.00023491035   9.5324664e-06      0.29033589   5.4435888e-08               0   5.2070066e-27               0               0               0
  0.00026546084   9.5324877e-06      0.32176512    7.154551e-08               0   1.9129583e-26               0               0               0
   0.0002999673    9.532514e-06      0.35587575   9.4233607e-08               0   7.2379952e-26               0               0               0
  0.00033894396   9.5325468e-06      0.39269552   1.2444989e-07               0    2.585339e-25               0               0               0
  0.00038297165   9.5325879e-06      0.43218774   1.6491358e-07               0   9.6074269e-25               0               0               0
  0.00043270649   9.5326401e-06      0.47423308   2.1946521e-07               0   4.6813133e-24               0               0               0
  0.00048888965    9.532707e-06      0.51860976   2.9359316e-07               0   1.8189897e-23               0               0               0
  0.00055235838   9.5327938e-06      0.56497334   3.9521403e-07               0   5.4019428e-23               0               0               0
   0.0006240585   9.5329083e-06      0.61283815   5.3580343e-07               0   1.3196342e-22               0               0               0
  0.00070505852    9.533062e-06       0.6615635   7.3197009e-07               0   2.8177863e-22               0               0               0
  0.00079656552   9.5332723e-06      0.71034868   1.0074978e-06               0   5.4949744e-22               0               0               0
  0.00089994316   9.5335657e-06      0.75824232   1.3956549e-06               0   1.0068088e-21               0               0               0
    0.001016732   9.5339819e-06      0.80417159    1.941021e-06               0   1.7566511e-21               0               0               0
   0.0011486725   9.5345794e-06      0.84699658   2.6989916e-06               0   2.9064054e-21               0               0               0
   0.0012977308   9.5354402e-06      0.88559272   3.7294245e-06               0   4.4450348e-21               0               0               0
   0.0014661282   9.5366714e-06      0.91895977     5.07937e-06               0   6.0128143e-21               0               0               0
   0.0016563743   9.5383988e-06      0.94635158   6.7512742e-06               0   6.8981015e-21               0               0               0
   0.0018713042   9.5407473e-06      0.96741382   8.6625464e-06               0    6.687008e-21               0               0               0
   0.0021141207   9.5438132e-06      0.98230533   1.0622429e-05               0   5.7780239e-21               0               0               0
   0.0023884425   9.5476433e-06      0.99175328   1.2367748e-05               0   5.2482839e-21               0               0               0
   0.0026983575   9.5522406e-06      0.99696854   1.3673157e-05               0   1.0132408e-20               0               0               0
   0.0030484842   9.5575948e-06      0.99937971   1.4471275e-05   2.5655247e-37   1.0020861e-19               0               0               0
   0.0034440402   9.5637167e-06       1.0002701   1.4872184e-05   3.8507627e-37   3.6708895e-18               0               0               0
   0.0038909203   9.5706504e-06       1.0005159   1.5059915e-05  -7.2693075e-38   1.4119355e-16               0               0               0
    0.004395784   9.5784727e-06       1.0005608   1.5176045e-05  -3.0186517e-37   3.6630262e-16               0               0               0
   0.0049661549   9.5872833e-06       1.0005641   1.5285805e-05   1.7413909e-37   3.3090674e-16               0               0               0
   0.0056105328   9.5972021e-06       1.0005634   1.5408127e-05   4.4697661e-37   1.0675607e-16               0               0               0
   0.0063385204   9.6083616e-06       1.0005631   1.5546818e-05  -1.2526993e-37   5.7187255e-18               0               0               0
   0.0071609664    9.620913e-06        1.000563   1.5703973e-05  -3.5969464e-37   2.1651936e-18               0               0               0
   0.0080901272   9.6350185e-06       1.0005628   1.5881522e-05  -6.2235477e-38   2.0076483e-18               0               0               0
   0.0091398493   9.6508656e-06       1.0005627   1.6082384e-05               0   2.1438228e-18               0               0               0
    0.010325776   9.6686502e-06       1.0005624   1.6309074e-05               0   2.3658116e-18               0               0               0
     0.01166558   9.6886032e-06       1.0005622   1.6565449e-05               0   2.6415011e-18               0               0               0
    0.013179228   9.7109577e-06       1.0005619   1.6854606e-05               0   2.9619165e-18               0               0               0
    0.014889277   9.7359964e-06       1.0005616   1.7181599e-05               0   3.3220273e-18               0               0               0
    0.016821209   9.7639902e-06       1.0005613   1.7550195e-05               0   3.7218431e-18               0               0               0
    0.019003816   9.7952842e-06       1.0005609   1.7966993e-05               0   4.1605608e-18               0               0               0
    0.021469624   9.8301841e-06       1.0005604   1.8436513e-05               0   4.6402944e-18               0               0               0
    0.024255377     9.86911e-06       1.0005599    1.896734e-05               0   5.1599426e-18               0               0               0
    0.027402591   9.9123935e-06       1.0005593   1.9564816e-05               0   5.7198455e-18               0               0               0
    0.030958166   9.9605472e-06       1.0005587    2.024005e-05   7.3349494e-37   6.3154596e-18               0               0               0
    0.034975088   1.0013912e-05        1.000558   2.0999225e-05   8.1773759e-37     6.94182e-18               0               0               0
    0.039513219   1.0073118e-05       1.0005571   2.1856577e-05  -5.6501311e-37   7.5878628e-18               0               0               0
    0.044640187    1.013849e-05       1.0005562   2.2819034e-05  -6.4925577e-37   8.2392889e-18               0               0               0
    0.050432395   1.0210817e-05       1.0005551    2.390457e-05   2.7660082e-37    8.875661e-18               0               0               0
    0.056976161   1.0290374e-05       1.0005539   2.5120507e-05   1.7002547e-37   9.4696984e-18               0               0               0
    0.064369002   1.0378172e-05       1.0005525   2.6488991e-05   1.3989593e-37   9.9912475e-18               0               0               0
    0.072721087   1.0474413e-05       1.0005509   2.8016872e-05   2.8883967e-37   1.0401929e-17               0               0               0
    0.082156882   1.0580404e-05       1.0005489   2.9730317e-05  -2.8412548e-37   1.0672974e-17               0               0               0
    0.092817002     1.06963e-05       1.0005466   3.1633822e-05  -3.2649213e-37   1.0776374e-17               0               0               0
