#      distance           pMean         UMean_x         UMean_y         UMean_z         nutMean wallShearStr... wallShearStr... wallShearStr...
  3.0219182e-06   9.6240723e-05     0.021585956   5.5328954e-08   5.0316485e-39   4.8979288e-13               0               0               0
  5.0865428e-06    9.625585e-05     0.036306295   9.0859074e-08   3.7832225e-39   4.4838204e-12               0               0               0
  7.2269684e-06   9.6277085e-05     0.051531722    1.282892e-07  -5.7463011e-39   2.5004083e-11               0               0               0
  9.4750924e-06   9.6304148e-05     0.067473142   1.6842198e-07  -9.6864822e-39   1.0174126e-10               0               0               0
  1.1864417e-05   9.6336446e-05     0.084344788   2.1214447e-07               0   3.3427267e-10               0               0               0
  1.4430548e-05   9.6373409e-05      0.10235716   2.6044707e-07               0    9.415714e-10               0               0               0
  1.7211727e-05   9.6414564e-05       0.1216991   3.1440155e-07   1.2562398e-37   2.3558494e-09               0               0               0
  2.0249401e-05   9.6459616e-05      0.14250281   3.7506149e-07   1.1735706e-37   5.3420734e-09               0               0               0
  2.3588836e-05   9.6508547e-05      0.16479041   4.4332895e-07   2.3234255e-37   1.1095955e-08               0               0               0
  2.7279799e-05   9.6561706e-05      0.18841721    5.196715e-07  -1.2179034e-38   2.1232094e-08               0               0               0
  3.1377293e-05   9.6619858e-05      0.21304762   6.0392425e-07  -3.9744176e-37   3.7591324e-08               0               0               0
  3.5942381e-05   9.6684166e-05      0.23820156   6.9538594e-07  -1.4465326e-37   6.1893318e-08               0               0               0
  4.1043091e-05   9.6756068e-05      0.26336584   7.9301303e-07   2.5876794e-37    9.545659e-08               0               0               0
  4.6755437e-05   9.6837091e-05      0.28811169   8.9588732e-07   3.9837587e-37   1.3911109e-07               0               0               0
  5.3164546e-05   9.6928626e-05      0.31216404    1.003811e-06  -1.0293357e-37   1.9312044e-07               0               0               0
  6.0365928e-05   9.7031843e-05      0.33539106   1.1174415e-06   -3.788876e-37   2.5819143e-07               0               0               0
    6.84669e-05   9.7147831e-05      0.35772582   1.2378966e-06  -1.3634609e-37   3.3660016e-07               0               0               0
  7.7588184e-05   9.7277781e-05      0.37911115    1.366421e-06               0   4.3118656e-07               0               0               0
   8.786571e-05   9.7422989e-05      0.39950936   1.5044346e-06  -2.1147256e-37   5.4440909e-07               0               0               0
  9.9452634e-05   9.7584705e-05      0.41892271   1.6537133e-06  -8.5774032e-39   6.7839836e-07               0               0               0
  0.00011252163   9.7763951e-05      0.43740042   1.8165632e-06   2.0289515e-37   8.3433224e-07               0               0               0
  0.00012726745   9.7961427e-05      0.45503562   1.9959754e-06   1.5096638e-36   1.0122223e-06               0               0               0
  0.00014390985   9.8177666e-05      0.47193935   2.1955258e-06   4.2190649e-38   1.2134935e-06               0               0               0
  0.00016269684   9.8413319e-05      0.48820508   2.4190125e-06  -3.5246552e-38   1.4421655e-06               0               0               0
  0.00018390838   9.8669286e-05      0.50390104   2.6703287e-06   2.9997808e-38   1.7023118e-06               0               0               0
  0.00020786057   9.8946657e-05      0.51908403   2.9538261e-06  -1.4022287e-36   1.9974622e-06               0               0               0
  0.00023491035   9.9246665e-05      0.53380651   3.2744549e-06               0   2.3315269e-06               0               0               0
  0.00026546084   9.9570682e-05      0.54811639    3.637752e-06               0   2.7088423e-06               0               0               0
   0.0002999673   9.9920241e-05       0.5620568   4.0500075e-06               0   3.1342058e-06               0               0               0
  0.00033894396   0.00010029704      0.57566633   4.5183893e-06               0    3.612891e-06               0               0               0
  0.00038297165   0.00010070281      0.58897963   5.0512358e-06               0   4.1506737e-06               0               0               0
  0.00043270649   0.00010113922      0.60202778   5.6580761e-06               0   4.7538663e-06               0               0               0
  0.00048888965   0.00010160822      0.61483853   6.3496552e-06               0   5.4293309e-06               0               0               0
  0.00055235838   0.00010211205      0.62743664   7.1383812e-06               0   6.1844759e-06               0               0               0
   0.0006240585   0.00010265323      0.63984436   8.0386488e-06               0   7.0272429e-06               0               0               0
  0.00070505852   0.00010323454      0.65208182   9.0671304e-06               0   7.9660821e-06               0               0               0
  0.00079656552   0.00010385908      0.66416732   1.0243123e-05               0   9.0098992e-06               0               0               0
  0.00089994316   0.00010453023      0.67611759    1.158878e-05               0   1.0167956e-05               0               0               0
    0.001016732    0.0001052516       0.6879481   1.3129257e-05               0   1.1449739e-05               0               0               0
   0.0011486725   0.00010602677      0.69967325     1.48926e-05               0   1.2864758e-05               0               0               0
   0.0012977308   0.00010685897      0.71130654   1.6910817e-05               0   1.4422245e-05               0               0               0
   0.0014661282   0.00010775104      0.72286089   1.9223063e-05               0   1.6130742e-05               0               0               0
   0.0016563743   0.00010870593      0.73434887   2.1878301e-05               0   1.7997559e-05               0               0               0
   0.0018713042   0.00010972726      0.74578291   2.4935106e-05               0   2.0028064e-05               0               0               0
   0.0021141207   0.00011081924      0.75717552   2.8460997e-05               0    2.222476e-05               0               0               0
   0.0023884425   0.00011198621      0.76853933   3.2534839e-05               0   2.4586085e-05               0               0               0
   0.0026983575   0.00011323225      0.77988709   3.7251102e-05               0   2.7104856e-05               0               0               0
   0.0030484842   0.00011456102      0.79123195   4.2723982e-05   5.2236424e-36   2.9766216e-05               0               0               0
   0.0034440402   0.00011597545      0.80258795   4.9092194e-05   7.8491928e-36   3.2545217e-05               0               0               0
   0.0038909203   0.00011747733       0.8139703   5.6525163e-05  -2.3322667e-36   3.5403965e-05               0               0               0
    0.004395784   0.00011906652      0.82539565   6.5231088e-05  -7.4395699e-36   3.8288141e-05               0               0               0
   0.0049661549   0.00012073975      0.83688235   7.5467284e-05   4.3884048e-36   4.1122986e-05               0               0               0
   0.0056105328   0.00012248865      0.84845103   8.7553613e-05   1.1618739e-35   4.3808811e-05               0               0               0
   0.0063385204   0.00012429701      0.86012516   0.00010189298  -3.7162577e-36   4.6216061e-05               0               0               0
   0.0071609664   0.00012613738      0.87193226   0.00011900055  -1.0531927e-35   4.8178518e-05               0               0               0
   0.0080901272   0.00012797054      0.88391133   0.00013958548  -2.0670879e-36   4.9430266e-05               0               0               0
   0.0091398493   0.00012974274      0.89612758   0.00016465211               0     4.96021e-05               0               0               0
    0.010325776   0.00013137319      0.90867353   0.00019561531               0   4.8412876e-05               0               0               0
     0.01166558   0.00013275505      0.92165125   0.00023447267               0   4.5724045e-05               0               0               0
    0.013179228   0.00013377343      0.93515271   0.00028397783               0   4.1486282e-05               0               0               0
    0.014889277   0.00013429841      0.94920648   0.00034758018               0    3.586203e-05               0               0               0
    0.016821209   0.00013412056      0.96361742   0.00042808577               0   2.9273252e-05               0               0               0
    0.019003816   0.00013317861      0.97779754   0.00052759426               0   2.1776884e-05               0               0               0
    0.021469624   0.00013135013      0.99036556   0.00063589374               0   1.3364982e-05               0               0               0
    0.024255377   0.00012808837      0.99879647    0.0007150303               0   5.8566853e-06               0               0               0
    0.027402591   0.00012375109       1.0021268   0.00074355598               0   1.5430557e-06               0               0               0
    0.030958166   0.00011938621       1.0026842    0.0007460631    5.017945e-35    2.486468e-07               0               0               0
    0.034975088   0.00011526516        1.002703   0.00074477502   5.8855953e-35   1.4420888e-07               0               0               0
    0.039513219    0.0001112652       1.0026996   0.00074325322  -3.2826676e-35   1.4386442e-07               0               0               0
    0.044640187   0.00010736831       1.0026978   0.00074213631  -4.1503179e-35   1.4388359e-07               0               0               0
    0.050432395   0.00010367429       1.0026979   0.00074144152   2.2343607e-35   1.4388425e-07               0               0               0
    0.056976161   0.00010034077       1.0026982   0.00074082594   7.7882662e-36   1.4388397e-07               0               0               0
    0.064369002   9.7582445e-05       1.0026963   0.00073903919   7.2676155e-36   1.4388394e-07               0               0               0
    0.072721087   9.5510216e-05       1.0026913    0.0007352192   2.5804203e-35   1.4388394e-07               0               0               0
    0.082156882   9.3963838e-05       1.0026837    0.0007301605  -2.6719483e-35   1.4388396e-07               0               0               0
    0.092817002   9.2725294e-05       1.0026738   0.00072495483  -3.0700566e-35   1.4388401e-07               0               0               0
