#      distance             U_x             U_y             U_z wallShearStr... wallShearStr... wallShearStr...               p         epsilon               k             nut
  5.5511169e-17      0.99958115   2.5041063e-22               0               0               0               0    0.0041826058   1.5952948e-05    0.0001462183    0.0001206166
   0.0021021021      0.99956947   2.5041063e-22               0               0               0               0    0.0041942213    1.595186e-05   0.00014618201   0.00012056497
   0.0042042042      0.99955779   2.5041063e-22               0               0               0               0    0.0042058368   1.5950772e-05   0.00014614572   0.00012051333
   0.0063063063       0.9995461   2.5041063e-22               0               0               0               0    0.0042174523   1.5949685e-05   0.00014610944   0.00012046169
   0.0084084084      0.99953442   2.5041063e-22               0               0               0               0    0.0042290677   1.5948597e-05   0.00014607315   0.00012041005
    0.010510511      0.99952274   2.5041063e-22               0               0               0               0    0.0042406832   1.5947509e-05   0.00014603687   0.00012035842
    0.012612613      0.99951105   2.5041063e-22               0               0               0               0    0.0042522987   1.5946421e-05   0.00014600058   0.00012030678
    0.014714715      0.99949937   2.5041063e-22               0               0               0               0    0.0042639142   1.5945333e-05   0.00014596429   0.00012025514
    0.016816817      0.99948769   2.5041063e-22               0               0               0               0    0.0042755297   1.5944246e-05   0.00014592801    0.0001202035
    0.018918919      0.99947601   2.5041063e-22               0               0               0               0    0.0042871452   1.5943158e-05   0.00014589172   0.00012015187
    0.021021021      0.99946432   2.5041063e-22               0               0               0               0    0.0042987607    1.594207e-05   0.00014585543   0.00012010023
    0.023123123       0.9994466   3.8216469e-22               0               0               0               0    0.0043165424   1.5941333e-05   0.00014581884   0.00012004557
    0.025225225      0.99942868   3.8216469e-22               0               0               0               0    0.0043345257   1.5940608e-05   0.00014578224   0.00011999081
    0.027327327      0.99941077   3.8216469e-22               0               0               0               0     0.004352509   1.5939883e-05   0.00014574563   0.00011993605
    0.029429429      0.99939285   3.8216469e-22               0               0               0               0    0.0043704923   1.5939158e-05   0.00014570903   0.00011988129
    0.031531532      0.99937493   3.8216469e-22               0               0               0               0    0.0043884756   1.5938433e-05   0.00014567243   0.00011982653
    0.033633634      0.99935701   3.8216469e-22               0               0               0               0     0.004406459   1.5937708e-05   0.00014563582   0.00011977177
    0.035735736      0.99933909   3.8216469e-22               0               0               0               0    0.0044244423   1.5936982e-05   0.00014559922   0.00011971701
    0.037837838      0.99932117   3.8216469e-22               0               0               0               0    0.0044424256   1.5936257e-05   0.00014556262   0.00011966225
     0.03993994      0.99930326   3.8216469e-22               0               0               0               0    0.0044604089   1.5935532e-05   0.00014552601   0.00011960749
    0.042042042      0.99928534   3.8216469e-22               0               0               0               0    0.0044783923   1.5934807e-05   0.00014548941   0.00011955273
    0.044144144      0.99926742   3.8216469e-22               0               0               0               0    0.0044963756   1.5934082e-05   0.00014545281   0.00011949797
    0.046246246       0.9992495   3.8216469e-22               0               0               0               0    0.0045143589   1.5933357e-05    0.0001454162   0.00011944321
    0.048348348      0.99922543   5.7891092e-22               0               0               0               0    0.0045382069   1.5933015e-05   0.00014537934   0.00011938524
     0.05045045      0.99919834   5.7891092e-22               0               0               0               0    0.0045649344   1.5932861e-05   0.00014534234   0.00011932568
    0.052552553      0.99917125   5.7891092e-22               0               0               0               0    0.0045916618   1.5932707e-05   0.00014530535   0.00011926612
    0.054654655      0.99914416   5.7891092e-22               0               0               0               0    0.0046183893   1.5932553e-05   0.00014526835   0.00011920656
    0.056756757      0.99911707   5.7891092e-22               0               0               0               0    0.0046451167     1.59324e-05   0.00014523136     0.000119147
    0.058858859      0.99908998   5.7891092e-22               0               0               0               0    0.0046718442   1.5932246e-05   0.00014519436   0.00011908744
    0.060960961      0.99906289   5.7891092e-22               0               0               0               0    0.0046985716   1.5932092e-05   0.00014515737   0.00011902789
    0.063063063       0.9990358   5.7891092e-22               0               0               0               0     0.004725299   1.5931938e-05   0.00014512037   0.00011896833
    0.065165165      0.99900871   5.7891092e-22               0               0               0               0    0.0047520265   1.5931784e-05   0.00014508338   0.00011890877
    0.067267267      0.99897125    8.324166e-22               0               0               0               0    0.0047900601   1.5932331e-05   0.00014504665   0.00011884454
    0.069369369      0.99893202    8.324166e-22               0               0               0               0    0.0048300129   1.5932997e-05   0.00014500998   0.00011877951
    0.071471471      0.99889279    8.324166e-22               0               0               0               0    0.0048699657   1.5933662e-05    0.0001449733   0.00011871449
    0.073573574      0.99885357    8.324166e-22               0               0               0               0    0.0049099185   1.5934328e-05   0.00014493662   0.00011864946
    0.075675676      0.99881434    8.324166e-22               0               0               0               0    0.0049498714   1.5934993e-05   0.00014489995   0.00011858443
    0.077777778      0.99877511    8.324166e-22               0               0               0               0    0.0049898242   1.5935659e-05   0.00014486327   0.00011851941
     0.07987988      0.99872143   1.4340196e-21               0               0               0               0    0.0050403458   1.5938751e-05   0.00014482443   0.00011843299
    0.081981982      0.99865517   1.4340196e-21               0               0               0               0    0.0051000508   1.5943952e-05   0.00014478372   0.00011832798
    0.084084084      0.99858892   1.4340196e-21               0               0               0               0    0.0051597557   1.5949152e-05   0.00014474301   0.00011822297
    0.086186186      0.99852266   1.4340196e-21               0               0               0               0    0.0052194607   1.5954353e-05   0.00014470229   0.00011811797
    0.088288288      0.99845629   1.9700351e-21               0               0               0               0    0.0052793967   1.5964441e-05   0.00014466169   0.00011798798
     0.09039039      0.99836426   1.9700351e-21               0               0               0               0    0.0053895101   1.7035892e-05   0.00014464659     0.000112435
    0.092492492      0.99827223   1.9700351e-21               0               0               0               0    0.0054996236   1.8107343e-05   0.00014463148   0.00010688201
    0.094594595       0.9981802   1.9700351e-21               0               0               0               0     0.005609737   1.9178794e-05   0.00014461637   0.00010132902
    0.096696697      0.83590867   1.1144178e-20               0   -0.0001008704  -5.7217041e-08   1.8353874e-22    0.0057464509    0.0004521296   0.00015245583   8.0854358e-05
    0.098798799      0.62152266   1.1144178e-20               0  -0.00023415432  -1.3282011e-07   4.2605549e-22    0.0058917126    0.0010238598   0.00016281926   5.5584792e-05
      0.1009009       0.3555062   3.3992252e-20               0  -0.00041375007  -2.4551325e-07   5.7050724e-22    0.0060134839     0.002021235   0.00018820751   2.9332364e-05
       0.103003     0.020649136   3.3992252e-20               0  -0.00065509495  -4.0765982e-07   5.8420565e-22    0.0061039348     0.003586137   0.00023362886   1.7694522e-06
     0.10510511   1.1034979e-16   3.7053772e-20   -6.263949e-36  -0.00073654381   -5.530827e-07   2.4012265e-22    0.0061077177    0.0054181281   0.00030333015   9.7099852e-08
     0.10720721   1.1001444e-16   5.5832169e-20               0  -0.00081117296  -7.3065368e-07   9.5506714e-22    0.0061003412    0.0077864471   0.00038634259   1.2783789e-07
     0.10930931   1.1001444e-16   5.5832169e-20               0  -0.00089128157  -9.5761735e-07   3.2782566e-21    0.0060848476      0.01092547   0.00048675987   1.6097237e-07
     0.11141141   1.0960326e-16   7.5090578e-20               0  -0.00097658286  -1.2328416e-06   1.5183136e-20    0.0060840231     0.015641607    0.0006154714   1.9654273e-07
     0.11351351   1.0910709e-16   9.5509619e-20               0   -0.0010638987  -1.5248112e-06   2.3660505e-20    0.0060878996     0.021225629   0.00075804605   2.3310074e-07
     0.11561562   1.0910709e-16   9.5509619e-20               0   -0.0011549808   -1.843201e-06   8.0764402e-21    0.0060981194     0.029064846   0.00093367019   2.7161057e-07
     0.11771772   1.0851825e-16   1.0941469e-19   -1.915913e-33   -0.0012473445  -2.1604115e-06  -6.2325687e-21    0.0061056585     0.038800593    0.0011321005   3.1096813e-07
     0.11981982   1.0851825e-16   1.0941469e-19   -1.915913e-33    -0.001340963  -2.4764673e-06  -1.9293104e-20    0.0061105726     0.050393331    0.0013528615   3.5115575e-07
     0.12192192   1.0782538e-16   1.1827792e-19  -3.5456527e-35   -0.0014344838  -2.8746325e-06   1.6719635e-20    0.0061049101      0.06560094    0.0016091209    3.918936e-07
     0.12402402   1.0782538e-16   1.1827792e-19  -3.5456527e-35   -0.0015279758  -3.2971017e-06   6.7257906e-20     0.006096117      0.08187854    0.0018758877   4.3279433e-07
     0.12612613   1.0702589e-16   1.4395192e-19               0   -0.0016183066  -3.8607669e-06   6.7904888e-20    0.0060674139      0.10337023    0.0021836672   4.7325601e-07
     0.12822823   1.0611356e-16    1.710979e-19               0   -0.0017076674  -4.4340097e-06   7.7287558e-20    0.0060363714      0.12569466    0.0024965332   5.1346687e-07
     0.13033033   1.0611356e-16    1.710979e-19               0   -0.0017915027  -5.0515388e-06   1.4373705e-19    0.0059931505      0.15252871    0.0028360894   5.5221381e-07
     0.13243243   1.0508618e-16   1.9728967e-19               0   -0.0018730223  -5.6722748e-06   1.9394243e-19    0.0059474719      0.18041995    0.0031792519   5.9023811e-07
     0.13453453   1.0508618e-16   1.9728967e-19               0   -0.0019473851  -6.3029226e-06   1.9394249e-19    0.0058941971       0.2115786    0.0035335606   6.2602895e-07
     0.13663664   1.0394752e-16   2.2177533e-19               0   -0.0020183415  -6.9269091e-06   1.2237555e-19    0.0058376113      0.24345376    0.0038863875    6.606654e-07
     0.13873874   1.0394752e-16   2.2177533e-19               0   -0.0020808653   -7.534406e-06  -1.2635518e-19    0.0057728295      0.27710266    0.0042355461   6.9244417e-07
     0.14084084   1.0270574e-16   2.4355361e-19               0   -0.0021398097  -8.1253344e-06   -3.077088e-19    0.0057054837      0.31077031      0.00457793   7.2294138e-07
     0.14294294   1.0270574e-16   2.4355361e-19               0   -0.0021891196  -8.6716669e-06  -3.0770888e-19    0.0056312366      0.34448844    0.0049020789   7.4998909e-07
     0.14504505   1.0137255e-16   2.6162604e-19               0   -0.0022358317  -9.1991846e-06  -2.2660271e-19    0.0055558053      0.37773744    0.0052182515   7.7606379e-07
     0.14714715   1.0137255e-16   2.6162604e-19               0    -0.002271616  -9.6475625e-06   1.9565715e-19     0.005475393      0.40901314    0.0055008741   7.9804572e-07
     0.14924925   9.9962891e-17   2.7467558e-19               0   -0.0023067639  -1.0090524e-05   5.9705384e-19    0.0053948144      0.44006479    0.0057809077   8.1977902e-07
     0.15135135   9.9962891e-17   2.7467558e-19               0   -0.0023296651  -1.0429276e-05   5.9701188e-19    0.0053110369      0.46680553    0.0060111255   8.3672828e-07
     0.15345345   9.9962891e-17   2.7467558e-19               0   -0.0023525662  -1.0768027e-05   5.9696992e-19    0.0052272595      0.49354626    0.0062413433   8.5367754e-07
     0.15555556   9.8493385e-17   2.8422077e-19               0   -0.0023658408  -1.0986289e-05   6.3101675e-19     0.005143572      0.51540304    0.0064241077   8.6669977e-07
     0.15765766   9.8493385e-17   2.8422077e-19               0   -0.0023772941  -1.1181754e-05   6.7151316e-19    0.0050599016      0.53633578     0.006597894   8.7897902e-07
     0.15975976    9.698132e-17   2.8479906e-19               0   -0.0023832179  -1.1299136e-05   6.8916981e-19    0.0049774471      0.55365226    0.0067399514   8.8888379e-07
     0.16186186    9.698132e-17   2.8479906e-19               0   -0.0023848766  -1.1356292e-05   6.8920969e-19    0.0048959305      0.56817945    0.0068575357   8.9695708e-07
     0.16396396   9.5445697e-17   2.8212696e-19               0   -0.0023850762  -1.1391859e-05   6.2703522e-19    0.0048150265      0.58159861    0.0069658594   9.0437236e-07
     0.16606607   9.5445697e-17   2.8212696e-19               0   -0.0023800494  -1.1350105e-05   3.4203302e-19    0.0047363165      0.59104927    0.0070410148   9.0943086e-07
     0.16816817   9.5445697e-17   2.8212696e-19               0   -0.0023750226  -1.1308351e-05   5.7030814e-20    0.0046576065      0.60049992    0.0071161702   9.1448937e-07
     0.17027027   9.3899182e-17   2.7415191e-19               0   -0.0023648696  -1.1181088e-05   6.3075638e-20    0.0045822152      0.60532381    0.0071543581   9.1704665e-07
     0.17237237   9.3899182e-17   2.7415191e-19               0   -0.0023534342  -1.1032434e-05   1.4193069e-19    0.0045076542      0.60899023    0.0071832978    9.189782e-07
     0.17447447    9.236199e-17   2.6121955e-19               0   -0.0023405477  -1.0858528e-05   2.1810971e-19     0.004434786      0.61118652    0.0072006433   9.2013667e-07
     0.17657658    9.236199e-17   2.6121955e-19               0    -0.002324389  -1.0627681e-05   2.8825444e-19    0.0043657349      0.61006772    0.0071918442   9.1955187e-07
     0.17867868    9.236199e-17   2.6121955e-19               0   -0.0023082303  -1.0396833e-05   3.5839916e-19    0.0042966838      0.60894892    0.0071830451   9.1896708e-07
     0.18078078   9.0846972e-17   2.4469833e-19               0   -0.0022910463  -1.0128619e-05   4.1245953e-19    0.0042318644      0.60634574    0.0071625126   9.1759797e-07
     0.18288288   9.0846972e-17   2.4469833e-19               0   -0.0022734981  -9.8471368e-06     4.60809e-19    0.0041685477      0.60321552    0.0071378142   9.1595037e-07
     0.18498498   8.9367787e-17   2.2480776e-19               0   -0.0022558537  -9.5619563e-06   4.9888843e-19    0.0041056769      0.59991982    0.0071117894   9.1421274e-07
     0.18708709   8.9367787e-17   2.2480776e-19               0   -0.0022372334  -9.2392807e-06   4.3286306e-19    0.0040473271      0.59494665    0.0070723201   9.1156243e-07
     0.18918919   8.9367787e-17   2.2480776e-19               0    -0.002218613  -8.9166052e-06    3.668377e-19    0.0039889773      0.58997348    0.0070328508   9.0891212e-07
     0.19129129   8.7939458e-17   2.0197793e-19               0   -0.0021999413  -8.5855407e-06    2.565917e-19    0.0039325497      0.58461535    0.0069901793   9.0603559e-07
     0.19339339   8.7939458e-17   2.0197793e-19               0   -0.0021811786  -8.2395786e-06   6.7817058e-20    0.0038795357       0.5785736    0.0069418215   9.0275735e-07
      0.1954955   8.7939458e-17   2.0197793e-19               0   -0.0021624159  -7.8936166e-06  -1.2095759e-19    0.0038265218      0.57253186    0.0068934637   8.9947911e-07
      0.1975976   8.6579458e-17   1.7745213e-19               0    -0.002143983   -7.546247e-06  -2.0650043e-19    0.0037767862      0.56625426    0.0068429255   8.9603053e-07
      0.1996997   8.6579458e-17   1.7745213e-19               0   -0.0021258235   -7.197711e-06  -2.0650051e-19    0.0037297673      0.55978121    0.0067905806    8.924408e-07
      0.2018018   8.6579458e-17   1.7745213e-19               0   -0.0021076639   -6.849175e-06  -2.0650059e-19    0.0036827484      0.55330817    0.0067382356   8.8885107e-07
      0.2039039   8.5302082e-17   1.5244519e-19               0   -0.0020902494  -6.5083754e-06  -1.5054936e-19    0.0036395889      0.54687089    0.0066857981   8.8522524e-07
     0.20600601   8.5302082e-17   1.5244519e-19               0   -0.0020732413  -6.1717963e-06  -6.4073859e-20    0.0035985349      0.54045314    0.0066333102   8.8157971e-07
     0.20810811   8.5302082e-17   1.5244519e-19               0   -0.0020562332  -5.8352173e-06   2.2401645e-20    0.0035574809      0.53403538    0.0065808222   8.7793418e-07
     0.21021021   8.4118642e-17   1.2759686e-19               0   -0.0020402401  -5.5123822e-06   5.1968077e-20    0.0035202008       0.5278891    0.0065301757   8.7438667e-07
     0.21231231   8.4118642e-17   1.2759686e-19               0   -0.0020247745  -5.1966876e-06   5.1968099e-20    0.0034848815      0.52188386    0.0064804861   8.7089009e-07
     0.21441441   8.4118642e-17   1.2759686e-19               0   -0.0020093088  -4.8809931e-06    5.196812e-20    0.0034495621      0.51587862    0.0064307965    8.673935e-07
     0.21651652   8.3038048e-17    1.035794e-19               0   -0.0019948858  -4.5810662e-06   4.2519393e-20    0.0034174851      0.51025712    0.0063839905   8.6407654e-07
     0.21861862   8.3038048e-17    1.035794e-19               0   -0.0019812261  -4.2926822e-06   2.6153533e-20    0.0033877815      0.50491655    0.0063392956   8.6089107e-07
     0.22072072   8.3038048e-17    1.035794e-19               0   -0.0019675665  -4.0042982e-06   9.7876734e-21     0.003358078      0.49957598    0.0062946007    8.577056e-07
     0.22282282   8.2065854e-17   8.0912032e-20               0   -0.0019546941  -3.7290207e-06               0    0.0033305496      0.49456866    0.0062525342   8.5469449e-07
     0.22492492   8.2065854e-17   8.0912032e-20               0   -0.0019429931  -3.4732441e-06               0    0.0033062575      0.49005719    0.0062143787   8.5194282e-07
     0.22702703   8.2065854e-17   8.0912032e-20               0   -0.0019312922  -3.2174675e-06               0    0.0032819655      0.48554572    0.0061762232   8.4919115e-07
     0.22912913    8.120445e-17   6.0341738e-20               0   -0.0019198504  -2.9666202e-06  -9.0633752e-23    0.0032583229       0.4811526    0.0061390324   8.4650609e-07
     0.23123123    8.120445e-17   6.0341738e-20               0   -0.0019101589  -2.7490575e-06  -7.9326928e-22    0.0032390659      0.47755868    0.0061083561   8.4427085e-07
     0.23333333    8.120445e-17   6.0341738e-20               0   -0.0019004675  -2.5314947e-06  -1.4959048e-21    0.0032198089      0.47396476    0.0060776798   8.4203562e-07
     0.23543544    8.120445e-17   6.0341738e-20               0    -0.001890776  -2.3139319e-06  -2.1985403e-21    0.0032005519      0.47037083    0.0060470035   8.3980039e-07
     0.23753754   8.0452325e-17   4.2681578e-20               0   -0.0018825573  -2.1287227e-06  -7.3327975e-21    0.0031845888      0.46748204    0.0060222164   8.3798359e-07
     0.23963964   8.0452325e-17   4.2681578e-20               0   -0.0018748154  -1.9539847e-06  -1.3901374e-20    0.0031696917      0.46482146    0.0059993352   8.3630223e-07
     0.24174174   8.0452325e-17   4.2681578e-20               0   -0.0018670734  -1.7792468e-06   -2.046995e-20    0.0031547946      0.46216089    0.0059764541   8.3462086e-07
     0.24384384   7.9801904e-17   2.8636093e-20               0   -0.0018598218  -1.6172507e-06   -2.502619e-20    0.0031408974      0.45974192    0.0059556264   8.3308835e-07
     0.24594595   7.9801904e-17   2.8636093e-20               0   -0.0018538418  -1.4882917e-06  -2.4364827e-20    0.0031295929      0.45794939    0.0059401228   8.3194183e-07
     0.24804805   7.9801904e-17   2.8636093e-20               0   -0.0018478617  -1.3593327e-06  -2.3703463e-20    0.0031182885      0.45615687    0.0059246192    8.307953e-07
     0.25015015   7.9801904e-17   2.8636093e-20               0   -0.0018418817  -1.2303737e-06    -2.30421e-20     0.003106984      0.45436434    0.0059091155   8.2964877e-07
     0.25225225   7.9239829e-17   1.8815569e-20               0   -0.0018369098  -1.1326338e-06  -1.1957652e-20    0.0030975546      0.45307024    0.0058978976   8.2881708e-07
     0.25435435   7.9239829e-17   1.8815569e-20               0   -0.0018323817  -1.0486361e-06   3.7148343e-21    0.0030889506      0.45199553    0.0058885661   8.2812398e-07
     0.25645646   7.9239829e-17   1.8815569e-20               0   -0.0018278536  -9.6463827e-07    1.938732e-20    0.0030803466      0.45092082    0.0058792347   8.2743087e-07
     0.25855856   7.8749113e-17   1.3181727e-20               0   -0.0018233257  -8.8065103e-07   3.5053373e-20     0.003071743      0.44984625    0.0058699044   8.2673785e-07
     0.26066066   7.8749113e-17   1.3181727e-20               0   -0.0018198526  -8.3529834e-07   2.7144211e-20    0.0030645215       0.4492709    0.0058648967   8.2636489e-07
     0.26276276   7.8749113e-17   1.3181727e-20               0   -0.0018163794  -7.8994565e-07   1.9235048e-20    0.0030572999      0.44869556     0.005859889   8.2599193e-07
     0.26486486   7.8749113e-17   1.3181727e-20               0   -0.0018129062  -7.4459296e-07   1.1325886e-20    0.0030500784      0.44812021    0.0058548814   8.2561896e-07
     0.26696697   7.8311075e-17   1.1039912e-20               0   -0.0018095561  -7.0473094e-07   3.2195495e-21    0.0030428899      0.44759401    0.0058503006   8.2527773e-07
     0.26906907   7.8311075e-17   1.1039912e-20               0   -0.0018067214  -6.8787203e-07  -5.7128447e-21    0.0030358399      0.44727366    0.0058475083   8.2506942e-07
     0.27117117   7.8311075e-17   1.1039912e-20               0   -0.0018038866  -6.7101311e-07  -1.4645239e-20    0.0030287898      0.44695331     0.005844716   8.2486112e-07
     0.27327327   7.8311075e-17   1.1039912e-20               0   -0.0018010519   -6.541542e-07  -2.3577633e-20    0.0030217398      0.44663296    0.0058419238   8.2465282e-07
     0.27537538   7.7908202e-17   1.1306102e-20               0   -0.0017982942  -6.4182431e-07  -2.8118612e-20    0.0030145579      0.44632405    0.0058392305   8.2445184e-07
     0.27747748   7.7908202e-17   1.1306102e-20               0   -0.0017957469  -6.4185573e-07  -2.0673882e-20    0.0030070165      0.44604634    0.0058368073   8.2427087e-07
     0.27957958   7.7908202e-17   1.1306102e-20               0   -0.0017931995  -6.4188714e-07  -1.3229152e-20    0.0029994751      0.44576862    0.0058343842    8.240899e-07
     0.28168168   7.7908202e-17   1.1306102e-20               0   -0.0017906522  -6.4191855e-07  -5.7844219e-21    0.0029919337      0.44549091     0.005831961   8.2390893e-07
     0.28378378   7.7527201e-17   1.2740666e-20               0   -0.0017881186  -6.4337998e-07   2.6182587e-22    0.0029842407      0.44519257     0.005829357   8.2371439e-07
     0.28588589   7.7527201e-17   1.2740666e-20               0   -0.0017856331  -6.4982354e-07   1.4358387e-21    0.0029760191      0.44482233    0.0058261231   8.2347257e-07
     0.28798799   7.7527201e-17   1.2740666e-20               0   -0.0017831476   -6.562671e-07   2.6098515e-21    0.0029677976       0.4444521    0.0058228892   8.2323076e-07
     0.29009009   7.7527201e-17   1.2740666e-20               0   -0.0017806621  -6.6271067e-07   3.7838644e-21     0.002959576      0.44408187    0.0058196553   8.2298894e-07
     0.29219219     7.71599e-17   1.4298823e-20               0   -0.0017781748  -6.6911297e-07   4.8949309e-21    0.0029513323      0.44370413    0.0058163555   8.2274217e-07
     0.29429429     7.71599e-17   1.4298823e-20               0   -0.0017756574  -6.7478707e-07   4.8949338e-21     0.002942698      0.44319397     0.005811893   8.2240796e-07
      0.2963964     7.71599e-17   1.4298823e-20               0   -0.0017731399  -6.8046117e-07   4.8949366e-21    0.0029340636      0.44268381    0.0058074305   8.2207374e-07
      0.2984985     7.71599e-17   1.4298823e-20               0   -0.0017706225  -6.8613527e-07   4.8949394e-21    0.0029254293      0.44217365     0.005802968   8.2173952e-07
      0.3006006     7.71599e-17   1.4298823e-20               0    -0.001768105  -6.9180937e-07   4.8949422e-21    0.0029167949      0.44166349    0.0057985055   8.2140531e-07
      0.3027027   7.6802303e-17   1.5343118e-20               0   -0.0017655646  -6.9436499e-07   4.0593749e-21    0.0029082095      0.44106148    0.0057932318   8.2100968e-07
      0.3048048   7.6802303e-17   1.5343118e-20               0   -0.0017630168  -6.9591478e-07   2.9543031e-21    0.0028996399      0.44042985    0.0057876965   8.2059425e-07
     0.30690691   7.6802303e-17   1.5343118e-20               0   -0.0017604689  -6.9746456e-07   1.8492314e-21    0.0028910703      0.43979821    0.0057821611   8.2017882e-07
     0.30900901   7.6802303e-17   1.5343118e-20               0   -0.0017579211  -6.9901435e-07    7.441596e-22    0.0028825007      0.43916657    0.0057766257   8.1976339e-07
     0.31111111   7.6452955e-17   1.5653489e-20               0   -0.0017553776  -6.9921899e-07               0    0.0028740263      0.43851076     0.005770874   8.1933133e-07
     0.31321321   7.6452955e-17   1.5653489e-20               0    -0.001752843   -6.966501e-07               0    0.0028657481      0.43780512    0.0057646761     8.18865e-07
     0.31531532   7.6452955e-17   1.5653489e-20               0   -0.0017503085  -6.9408121e-07               0    0.0028574699      0.43709947    0.0057584782   8.1839867e-07
     0.31741742   7.6452955e-17   1.5653489e-20               0   -0.0017477739  -6.9151232e-07               0    0.0028491917      0.43639382    0.0057522803   8.1793233e-07
     0.31951952   7.6452955e-17   1.5653489e-20               0   -0.0017452393  -6.8894343e-07               0    0.0028409135      0.43568817    0.0057460825     8.17466e-07
     0.32162162   7.6111109e-17   1.5414806e-20               0   -0.0017427459  -6.8475818e-07               0    0.0028328032      0.43495988    0.0057396733   8.1698272e-07
     0.32372372   7.6111109e-17   1.5414806e-20               0   -0.0017402655  -6.8006525e-07               0    0.0028247458      0.43422448    0.0057331978   8.1649411e-07
     0.32582583   7.6111109e-17   1.5414806e-20               0   -0.0017377851  -6.7537233e-07               0    0.0028166883      0.43348908    0.0057267222    8.160055e-07
     0.32792793   7.6111109e-17   1.5414806e-20               0   -0.0017353047   -6.706794e-07               0    0.0028086308      0.43275368    0.0057202467    8.155169e-07
     0.33003003   7.5775501e-17   1.4968027e-20               0   -0.0017328282  -6.6598423e-07               0    0.0028005798      0.43201806    0.0057137682   8.1502799e-07
     0.33213213   7.5775501e-17   1.4968027e-20               0     -0.00173042  -6.6125056e-07               0    0.0027926406      0.43127865    0.0057072397   8.1453388e-07
     0.33423423   7.5775501e-17   1.4968027e-20               0   -0.0017280118  -6.5651689e-07               0    0.0027847013      0.43053924    0.0057007112   8.1403978e-07
     0.33633634   7.5775501e-17   1.4968027e-20               0   -0.0017256035  -6.5178322e-07               0    0.0027767621      0.42979982    0.0056941826   8.1354567e-07
     0.33843844   7.5775501e-17   1.4968027e-20               0   -0.0017231953  -6.4704955e-07               0    0.0027688228      0.42906041    0.0056876541   8.1305157e-07
     0.34054054   7.5444349e-17   1.4579972e-20               0   -0.0017208015  -6.4252642e-07               0    0.0027609004      0.42832192      0.00568113   8.1255747e-07
     0.34264264   7.5444349e-17   1.4579972e-20               0   -0.0017184639  -6.3882149e-07               0    0.0027530436      0.42758704    0.0056746231   8.1206344e-07
     0.34474474   7.5444349e-17   1.4579972e-20               0   -0.0017161263  -6.3511656e-07               0    0.0027451867      0.42685215    0.0056681161    8.115694e-07
     0.34684685   7.5444349e-17   1.4579972e-20               0   -0.0017137887  -6.3141163e-07               0    0.0027373299      0.42611726    0.0056616092   8.1107537e-07
     0.34894895   7.5444349e-17   1.4579972e-20               0    -0.001711451  -6.2770669e-07               0     0.002729473      0.42538237    0.0056551023   8.1058133e-07
     0.35105105   7.5115978e-17   1.4344677e-20               0   -0.0017091265  -6.2420094e-07               0    0.0027216514       0.4246486    0.0056486014   8.1008743e-07
     0.35315315   7.5115978e-17   1.4344677e-20               0   -0.0017068524  -6.2146673e-07               0    0.0027139661      0.42391919    0.0056421241   8.0959403e-07