/*--------------------------------*- C++ -*----------------------------------*\
  =========                 |
  \\      /  F ield         | OpenFOAM: The Open Source CFD Toolbox
   \\    /   O peration     | Website:  https://openfoam.org
    \\  /    A nd           | Version:  12
     \\/     M anipulation  |
\*---------------------------------------------------------------------------*/
FoamFile
{
    format      ascii;
    class       volScalarField;
    location    "200";
    object      epsilon;
}
// * * * * * * * * * * * * * * * * * * * * * * * * * * * * * * * * * * * * * //

dimensions      [0 2 -3 0 0 0 0];

internalField   nonuniform List<scalar> 
7480
(
0.0025015249
0.0044026559
0.0078930717
0.013875592
0.023721082
0.039254813
0.062607935
0.09584182
0.14034137
0.19608346
0.26102287
0.33119814
0.4013768
0.46614968
0.52099595
0.56329018
0.59100825
0.61101958
0.6107239
0.60605017
0.59497699
0.57945293
0.56130118
0.54205086
0.52294053
0.50495502
0.4888615
0.47521926
0.46438914
0.45649313
0.45133786
0.44838946
0.44684266
0.44581029
0.44456842
0.44271602
0.44018288
0.43711785
0.43373309
0.43018707
0.42654854
0.42282512
0.41901459
0.41513837
0.41124071
0.40736788
0.4035497
0.39979647
0.39610806
0.39248339
0.38892312
0.38542732
0.38199551
0.3786262
0.37531748
0.37206774
0.36887557
0.36573913
0.36265639
0.3596266
0.35664821
0.3537189
0.35083662
0.34799986
0.34520718
0.34245721
0.33974869
0.33708044
0.33445152
0.33186125
0.32930901
0.32679414
0.32431579
0.32187261
0.31946298
0.31708514
0.3147374
0.31241825
0.31012642
0.30786088
0.30562074
0.30340519
0.30121335
0.29904425
0.29689677
0.2947696
0.2926612
0.29056989
0.28849387
0.28643133
0.28438086
0.28234135
0.28031351
0.27829711
0.27630106
0.27431605
0.27238871
0.27041393
0.26874845
0.26592239
9.0532329e-05
0.00016787239
0.00027719796
0.00044163082
0.00070354939
0.0011342249
0.0018445734
0.0029881744
0.0047451676
0.0072801946
0.010690678
0.015020795
0.020245478
0.026120254
0.032284241
0.038411913
0.04410612
0.049627744
0.054570708
0.059402119
0.064705177
0.07153814
0.08022463
0.08963081
0.099838967
0.11106975
0.12337412
0.13647377
0.14990186
0.16295001
0.17464535
0.18402986
0.19044878
0.19377896
0.19444606
0.19323064
0.19098035
0.18837298
0.18578985
0.18334501
0.18100505
0.17870562
0.17642007
0.1741677
0.17198518
0.16989645
0.16790377
0.16599581
0.16415854
0.16238236
0.16066149
0.1589911
0.15736641
0.15578334
0.15423869
0.15272963
0.1512535
0.14980812
0.1483918
0.14700373
0.14564235
0.14430605
0.14299367
0.14170441
0.14043751
0.13919223
0.13796788
0.13676389
0.13557981
0.13441531
0.13327007
0.13214372
0.13103577
0.12994556
0.12887233
0.12781534
0.12677389
0.12574738
0.12473534
0.12373736
0.12275304
0.12178197
0.12082368
0.11987764
0.11894325
0.11801983
0.11710662
0.11620281
0.11530753
0.11441986
0.11353906
0.11266453
0.11179612
0.11093429
0.11008107
0.10923841
0.10841521
0.10759967
0.10689185
0.10575358
3.7115192e-05
4.4239077e-05
5.4980267e-05
6.9373071e-05
8.8328068e-05
0.00011355102
0.00014747971
0.00019313569
0.00025384354
0.00033285817
0.00043313779
0.0005576056
0.00070927624
0.00089007544
0.0010998752
0.001336771
0.0015950552
0.001871421
0.0021597502
0.0024592401
0.0027770676
0.0031410658
0.0035938297
0.0041858267
0.0049856317
0.006087179
0.0076007291
0.0097894565
0.012928216
0.017313214
0.023803027
0.031697025
0.040688034
0.050369456
0.060075331
0.069130691
0.076899636
0.082927975
0.087087378
0.089571024
0.090783071
0.091186435
0.091171022
0.090978003
0.090706353
0.090371014
0.089962183
0.089480546
0.088944106
0.088375573
0.087790342
0.087194379
0.086588839
0.085974673
0.085353812
0.084728277
0.084099505
0.083468484
0.082836025
0.082202854
0.08156975
0.080937388
0.080306361
0.079677208
0.079050406
0.078426388
0.077805572
0.07718839
0.076575305
0.075966817
0.075363402
0.07476542
0.074173062
0.073586336
0.073005131
0.072429301
0.071858742
0.071293446
0.070733492
0.070179002
0.069630089
0.069086803
0.068549119
0.068016919
0.067490005
0.066968096
0.066450841
0.065937827
0.065428609
0.064922741
0.064419823
0.063919639
0.063422225
0.062928371
0.062439302
0.061958418
0.061488997
0.061031975
0.060638979
0.06000888
3.4025868e-05
3.4915806e-05
3.6589509e-05
3.9093974e-05
4.2464775e-05
4.6781088e-05
5.2181211e-05
5.8852223e-05
6.7003894e-05
7.6835852e-05
8.8512403e-05
0.0001021606
0.00011788263
0.00013574138
0.00015572897
0.00017776266
0.00020163258
0.00022709756
0.00025385139
0.0002816223
0.00031022902
0.00033987408
0.00037114709
0.00040542208
0.00044502167
0.0004934706
0.00055604323
0.0006415619
0.00076481213
0.00094628779
0.0012381647
0.0016987512
0.0024139498
0.0034823545
0.0051375952
0.0075358544
0.011050945
0.015696908
0.021101139
0.026883835
0.032618048
0.037892566
0.042363921
0.045856987
0.048391656
0.050139913
0.051338294
0.052197541
0.052850969
0.053357575
0.053735214
0.05399408
0.054151106
0.054227393
0.054240686
0.054202373
0.05411953
0.053997824
0.053842603
0.0536586
0.053449783
0.053219413
0.052970251
0.052704709
0.052424912
0.052132726
0.051829816
0.051517712
0.051197855
0.050871617
0.050540262
0.05020488
0.049866335
0.049525251
0.04918207
0.048837143
0.04849082
0.048143515
0.04779571
0.047447918
0.047100625
0.046754242
0.046409076
0.046065328
0.04572309
0.045382358
0.045043048
0.044705011
0.044368059
0.044032005
0.0436967
0.04336216
0.043028608
0.042696972
0.042368376
0.042046168
0.041732405
0.041429711
0.041173549
0.040758136
3.3638054e-05
3.3801658e-05
3.4107799e-05
3.4617569e-05
3.5377849e-05
3.6423361e-05
3.7783432e-05
3.9487016e-05
4.1563998e-05
4.4043237e-05
4.6949319e-05
5.0300328e-05
5.4107774e-05
5.837664e-05
6.3103925e-05
6.8278051e-05
7.3875653e-05
7.9863959e-05
8.6200685e-05
9.2838749e-05
9.9728999e-05
0.00010683447
0.00011413702
0.00012165757
0.00012947506
0.00013774619
0.000146737
0.0001568552
0.00016878467
0.00018339639
0.000202488
0.00022848275
0.00026527484
0.00031828944
0.0003983222
0.00052103724
0.00071958082
0.0010479392
0.0015732963
0.0024209156
0.0037236468
0.0056289454
0.0083226979
0.011587624
0.015188901
0.01885966
0.022330731
0.025380776
0.027896282
0.029879989
0.031421605
0.032640712
0.033634946
0.034461085
0.03514526
0.035702913
0.036150569
0.036506233
0.036785429
0.036999453
0.037156665
0.037264138
0.037328201
0.037354329
0.037347112
0.03731045
0.037247766
0.03716212
0.037056266
0.036932718
0.03679375
0.036641368
0.036477267
0.036302816
0.036119109
0.035927065
0.035727531
0.035521364
0.035309453
0.035092701
0.034871969
0.034648027
0.034421523
0.034192974
0.033962765
0.033731164
0.03349834
0.033264384
0.033029337
0.032793235
0.032556142
0.032318264
0.03207999
0.031842296
0.031606294
0.031374902
0.031149813
0.030932966
0.030752418
0.030451949
3.3382241e-05
3.3474162e-05
3.3586905e-05
3.3736216e-05
3.3942959e-05
3.4228508e-05
3.4613222e-05
3.5115654e-05
3.5752406e-05
3.6537992e-05
3.7484537e-05
3.860139e-05
3.9894934e-05
4.1368644e-05
4.3023136e-05
4.4856292e-05
4.6863165e-05
4.9036111e-05
5.1364755e-05
5.3836605e-05
5.6437394e-05
5.915235e-05
6.1967326e-05
6.4870971e-05
6.7857599e-05
7.0930232e-05
7.4104909e-05
7.7413297e-05
8.091467e-05
8.4692624e-05
8.8892953e-05
9.3729504e-05
9.9525511e-05
0.00010670392
0.00011597051
0.00012824384
0.00014519409
0.00016939527
0.00020476671
0.00025838781
0.00034172038
0.00047416968
0.00069526793
0.0010545108
0.001651155
0.002575151
0.0039675765
0.0058483124
0.0081005554
0.010560155
0.013048517
0.015391385
0.017466313
0.019223826
0.020683331
0.021900959
0.022932651
0.023815382
0.024569444
0.025208924
0.02574808
0.02620113
0.026580092
0.026894323
0.027151458
0.027358206
0.027520498
0.027643471
0.027731608
0.027788917
0.027818999
0.027825039
0.027809785
0.027775546
0.027724241
0.027657497
0.027576766
0.02748343
0.02737885
0.027264365
0.027141253
0.027010682
0.026873681
0.026731119
0.02658371
0.026432021
0.026276499
0.02611749
0.025955275
0.025790113
0.025622275
0.025452142
0.025280236
0.025107537
0.024935109
0.024765359
0.024599734
0.0244392
0.024307107
0.024079052
3.3080279e-05
3.3166975e-05
3.3258432e-05
3.3354989e-05
3.3460914e-05
3.3583015e-05
3.3729459e-05
3.390934e-05
3.4132195e-05
3.4407549e-05
3.4744492e-05
3.5151279e-05
3.563498e-05
3.6201245e-05
3.6854163e-05
3.7596222e-05
3.8428325e-05
3.9349849e-05
4.0358704e-05
4.1451508e-05
4.2623732e-05
4.3869938e-05
4.5184043e-05
4.6559736e-05
4.7991065e-05
4.9473127e-05
5.1003014e-05
5.2580533e-05
5.4210042e-05
5.5901262e-05
5.767283e-05
5.955493e-05
6.1595197e-05
6.3857876e-05
6.6443758e-05
6.9467823e-05
7.3118991e-05
7.7666657e-05
8.3498419e-05
9.1185693e-05
0.00010164229
0.00011615055
0.0001370072
0.00016770824
0.0002150985
0.00028945493
0.00041128595
0.00061351309
0.00094730797
0.001493427
0.0023348887
0.0035378443
0.0050455593
0.0067590266
0.0085593317
0.010320861
0.011944953
0.013380353
0.01462422
0.015701401
0.016640124
0.017460004
0.018173509
0.018791359
0.019324632
0.01978372
0.020177329
0.020512718
0.020796307
0.021033909
0.021230701
0.021391242
0.021519524
0.021618984
0.021692534
0.02174266
0.021771548
0.021781206
0.021773544
0.021750399
0.021713521
0.021664526
0.021604868
0.021535817
0.021458459
0.021373705
0.021282314
0.021184919
0.021082065
0.020974247
0.020861951
0.020745724
0.020626206
0.020504353
0.020381143
0.020258493
0.020137587
0.020018668
0.01992129
0.019745236
3.2733856e-05
3.2819611e-05
3.2908711e-05
3.2998857e-05
3.3090169e-05
3.3183824e-05
3.3281804e-05
3.338685e-05
3.3502424e-05
3.3632614e-05
3.3781995e-05
3.395545e-05
3.4157948e-05
3.4394316e-05
3.4669023e-05
3.4985982e-05
3.5348405e-05
3.5758702e-05
3.6218408e-05
3.6728185e-05
3.7287847e-05
3.7896407e-05
3.8552155e-05
3.9252778e-05
3.999553e-05
4.077744e-05
4.1595579e-05
4.2447341e-05
4.3330835e-05
4.4245306e-05
4.5191708e-05
4.6173328e-05
4.7196894e-05
4.8273186e-05
4.9417516e-05
5.0660465e-05
5.2043486e-05
5.3617715e-05
5.5454366e-05
5.7645268e-05
6.0338161e-05
6.3702911e-05
6.8011223e-05
7.3644212e-05
8.1244457e-05
9.1730462e-05
0.00010665606
0.00012854303
0.00016176327
0.00021410212
0.00029903099
0.00044060048
0.00067464306
0.0010630372
0.0016742417
0.0025475084
0.0036536181
0.004927634
0.0062837789
0.0076311565
0.0088971772
0.010043818
0.011065568
0.011973478
0.012780182
0.013494794
0.014124774
0.014677967
0.015162378
0.015585271
0.015953016
0.016271367
0.016545539
0.016780114
0.016979041
0.017145736
0.017283194
0.017394119
0.017481026
0.017546299
0.017592192
0.017620809
0.017634066
0.017633675
0.017621136
0.017597744
0.017564608
0.017522685
0.017472808
0.017415734
0.017352173
0.017282845
0.017208501
0.01713007
0.017048432
0.01696508
0.016880924
0.016795825
0.01672587
0.016591623
3.2350812e-05
3.2435655e-05
3.2523757e-05
3.2612546e-05
3.2701491e-05
3.2790625e-05
3.2880245e-05
3.29709e-05
3.3063427e-05
3.3158984e-05
3.3259081e-05
3.3365575e-05
3.348065e-05
3.3606754e-05
3.3746528e-05
3.3902692e-05
3.4077943e-05
3.4274834e-05
3.4495662e-05
3.4742388e-05
3.501656e-05
3.5319268e-05
3.5651111e-05
3.60122e-05
3.640219e-05
3.682034e-05
3.726559e-05
3.773667e-05
3.8232237e-05
3.8751036e-05
3.9292087e-05
3.9854883e-05
4.043967e-05
4.1047787e-05
4.1681625e-05
4.2346353e-05
4.3050701e-05
4.3806865e-05
4.4631696e-05
4.554643e-05
4.6581888e-05
4.7790769e-05
4.9231868e-05
5.0980654e-05
5.3149446e-05
5.589085e-05
5.9420485e-05
6.4056502e-05
7.030655e-05
7.8967145e-05
9.131227e-05
0.00010946912
0.00013709692
0.00018080346
0.0002525618
0.00037184816
0.0005716287
0.00089954102
0.0014158215
0.002127465
0.0030120752
0.0040208859
0.0050870305
0.0061435209
0.0071413809
0.0080577718
0.0088893837
0.0096404177
0.010315514
0.010919047
0.011456184
0.011932726
0.01235429
0.012725957
0.013052326
0.013337534
0.013585264
0.013798838
0.013981332
0.014135644
0.014264518
0.014370528
0.014456059
0.014523274
0.014574107
0.014610262
0.014633229
0.014644313
0.014644666
0.014635323
0.014617238
0.014591315
0.014558426
0.014519492
0.014475311
0.014427038
0.014375325
0.014319969
0.014273688
0.014176338
3.1937897e-05
3.2021782e-05
3.2108909e-05
3.2196712e-05
3.2284593e-05
3.237242e-05
3.2460189e-05
3.2547959e-05
3.263586e-05
3.2724111e-05
3.2813043e-05
3.2903133e-05
3.2995021e-05
3.3089529e-05
3.3187667e-05
3.329062e-05
3.3399731e-05
3.3516457e-05
3.3642322e-05
3.3778861e-05
3.3927562e-05
3.4089801e-05
3.4266788e-05
3.4459521e-05
3.4668756e-05
3.4894988e-05
3.5138457e-05
3.5399157e-05
3.5676877e-05
3.5971253e-05
3.628183e-05
3.6608139e-05
3.6949782e-05
3.7306562e-05
3.7678532e-05
3.8066253e-05
3.8471178e-05
3.889592e-05
3.9344609e-05
3.982302e-05
4.0339045e-05
4.0905521e-05
4.153942e-05
4.2262103e-05
4.3101437e-05
4.4095489e-05
4.5305073e-05
4.679962e-05
4.8680927e-05
5.1093357e-05
5.4237277e-05
5.841432e-05
6.4098548e-05
7.2052103e-05
8.3559787e-05
0.00010069523
0.00012726622
0.00016971942
0.0002407179
0.00035819001
0.00055631695
0.00087897709
0.0013550571
0.0019839821
0.0027398994
0.0035775903
0.0044430035
0.0052890286
0.0060869484
0.0068255228
0.0075027665
0.0081194773
0.0086774801
0.0091797716
0.0096301232
0.010032372
0.010390145
0.010706902
0.010985953
0.011230475
0.011443522
0.01162802
0.011786728
0.011922203
0.01203678
0.012132559
0.01221141
0.012274994
0.01232479
0.012362129
0.012388217
0.012404165
0.012410979
0.01240961
0.012400813
0.012385503
0.012364112
0.012336614
0.012312375
0.012249943
3.1501248e-05
3.1584173e-05
3.1670314e-05
3.1757141e-05
3.1844055e-05
3.1930906e-05
3.201765e-05
3.2104268e-05
3.2190756e-05
3.2277117e-05
3.2363379e-05
3.2449597e-05
3.2535873e-05
3.262237e-05
3.2709326e-05
3.2797072e-05
3.2886039e-05
3.2976762e-05
3.3069875e-05
3.3166108e-05
3.3266261e-05
3.3371186e-05
3.348175e-05
3.3598808e-05
3.3723168e-05
3.3855564e-05
3.3996635e-05
3.4146898e-05
3.4306747e-05
3.4476452e-05
3.4656164e-05
3.4845931e-05
3.5045723e-05
3.5255461e-05
3.5475052e-05
3.5704443e-05
3.5943726e-05
3.619327e-05
3.6453881e-05
3.6726944e-05
3.7014534e-05
3.7319942e-05
3.764803e-05
3.800544e-05
3.8400953e-05
3.8845975e-05
3.935738e-05
3.995651e-05
4.0671804e-05
4.15388e-05
4.2615435e-05
4.3975364e-05
4.5718668e-05
4.7991705e-05
5.1010671e-05
5.5093283e-05
6.0768033e-05
6.8858702e-05
8.0835835e-05
9.9074867e-05
0.00012796545
0.00017566154
0.00025506986
0.00038867553
0.00061059352
0.00095105589
0.001419035
0.0020023826
0.0026707133
0.0033817659
0.0040946426
0.0047812133
0.0054274998
0.0060281276
0.0065812062
0.0070865397
0.0075453294
0.0079596802
0.0083320809
0.0086652171
0.0089619155
0.0092250551
0.0094574805
0.0096619356
0.0098410086
0.0099970943
0.010132378
0.010248836
0.010348253
0.010432243
0.010502266
0.010559645
0.010605545
0.010640986
0.010666734
0.01068356
0.010691728
0.010691559
0.010689047
0.010661252
3.1046495e-05
3.1128475e-05
3.1213644e-05
3.1299506e-05
3.1385467e-05
3.1471376e-05
3.1557187e-05
3.1642871e-05
3.1728402e-05
3.1813752e-05
3.1898886e-05
3.1983769e-05
3.2068367e-05
3.2152654e-05
3.2236621e-05
3.2320283e-05
3.2403689e-05
3.2486933e-05
3.2570159e-05
3.2653569e-05
3.2737425e-05
3.2822049e-05
3.2907813e-05
3.2995136e-05
3.3084469e-05
3.3176285e-05
3.327106e-05
3.336926e-05
3.3471325e-05
3.3577656e-05
3.3688607e-05
3.380447e-05
3.3925479e-05
3.4051799e-05
3.4183538e-05
3.4320746e-05
3.446345e-05
3.4611688e-05
3.4765568e-05
3.4925343e-05
3.5091468e-05
3.5264728e-05
3.5446392e-05
3.5638382e-05
3.584344e-05
3.6065269e-05
3.6309114e-05
3.6582035e-05
3.6893558e-05
3.7255506e-05
3.768488e-05
3.8204387e-05
3.884368e-05
3.9640777e-05
4.0655493e-05
4.196905e-05
4.3695626e-05
4.6000576e-05
4.9134434e-05
5.3483459e-05
5.9677989e-05
6.8812447e-05
8.2683165e-05
0.0001045022
0.00014026744
0.00019999569
0.00030035062
0.00046903199
0.00073169048
0.0011002476
0.0015694542
0.0021175611
0.0027109063
0.0033153234
0.0039060108
0.0044691154
0.0049977829
0.005488521
0.0059398806
0.0063520146
0.0067261304
0.0070640432
0.0073679443
0.0076402323
0.0078833646
0.0080997538
0.0082917032
0.0084613683
0.0086107433
0.0087416622
0.0088558027
0.0089546809
0.0090396285
0.009111769
0.0091719273
0.0092208242
0.0092586104
0.0092860645
0.0093057701
0.0093133282
3.0578763e-05
3.065983e-05
3.0744055e-05
3.0828979e-05
3.0914011e-05
3.0999004e-05
3.1083909e-05
3.1168698e-05
3.1253344e-05
3.1337813e-05
3.1422064e-05
3.1506048e-05
3.1589706e-05
3.1672974e-05
3.1755783e-05
3.1838065e-05
3.1919755e-05
3.2000797e-05
3.208115e-05
3.2160792e-05
3.2239728e-05
3.231799e-05
3.2395643e-05
3.2472782e-05
3.254954e-05
3.2626082e-05
3.2702604e-05
3.2779327e-05
3.2856493e-05
3.2934355e-05
3.301317e-05
3.309319e-05
3.3174648e-05
3.3257752e-05
3.3342677e-05
3.3429554e-05
3.3518479e-05
3.3609512e-05
3.3702699e-05
3.3798088e-05
3.3895761e-05
3.3995866e-05
3.4098675e-05
3.4204654e-05
3.4314545e-05
3.4429452e-05
3.4550985e-05
3.4681418e-05
3.4823948e-05
3.4982774e-05
3.5163605e-05
3.5374174e-05
3.5624811e-05
3.5928541e-05
3.6303728e-05
3.6775345e-05
3.7377161e-05
3.8152952e-05
3.9173171e-05
4.0534177e-05
4.2372922e-05
4.4903062e-05
4.8443059e-05
5.3511456e-05
6.1000954e-05
7.2414733e-05
9.0366557e-05
0.00011985411
0.00016918579
0.00025229422
0.00039275548
0.00061099097
0.00091869674
0.001313269
0.0017773516
0.0022829259
0.0028016465
0.0033126478
0.0038034509
0.0042670337
0.0046994625
0.005098967
0.0054653678
0.0057994935
0.0061027775
0.0063770098
0.0066241506
0.0068462023
0.0070451317
0.0072228253
0.0073810612
0.0075214782
0.0076455378
0.0077544706
0.0078491947
0.007930449
0.0079983232
0.0080541173
0.0080969579
0.0081411479
3.0102677e-05
3.018287e-05
3.0266192e-05
3.0350214e-05
3.0434355e-05
3.0518465e-05
3.0602499e-05
3.0686426e-05
3.0770221e-05
3.085385e-05
3.0937273e-05
3.1020441e-05
3.1103293e-05
3.1185762e-05
3.1267771e-05
3.1349237e-05
3.143007e-05
3.151018e-05
3.1589474e-05
3.166786e-05
3.1745255e-05
3.1821582e-05
3.1896771e-05
3.1970769e-05
3.2043537e-05
3.2115055e-05
3.2185327e-05
3.2254376e-05
3.232225e-05
3.2389019e-05
3.2454771e-05
3.2519608e-05
3.2583639e-05
3.2646974e-05
3.2709716e-05
3.2771953e-05
3.2833755e-05
3.2895173e-05
3.2956239e-05
3.3016967e-05
3.3077364e-05
3.3137434e-05
3.3197199e-05
3.3256717e-05
3.331612e-05
3.3375648e-05
3.3435709e-05
3.3496934e-05
3.356028e-05
3.3627115e-05
3.3699348e-05
3.3779621e-05
3.3871573e-05
3.3979976e-05
3.4111266e-05
3.4274134e-05
3.4480352e-05
3.474501e-05
3.5089686e-05
3.554422e-05
3.614862e-05
3.6959499e-05
3.8066724e-05
3.9592285e-05
4.1725562e-05
4.4753957e-05
4.9137084e-05
5.5677717e-05
6.5737747e-05
8.1666124e-05
0.00010807151
0.00015227387
0.00022737835
0.00035332153
0.00054729939
0.00081864475
0.0011648024
0.0015698312
0.00200942
0.0024601423
0.0029050384
0.0033336095
0.0037395934
0.0041194527
0.0044716227
0.0047958829
0.0050928495
0.0053636495
0.0056097052
0.0058325829
0.0060338947
0.0062152173
0.0063780228
0.0065235879
0.0066529093
0.0067667757
0.0068652485
0.0069501845
0.007017182
0.0070995226
2.9622357e-05
2.9701724e-05
2.9784188e-05
2.9867355e-05
2.9950647e-05
3.0033919e-05
3.0117122e-05
3.0200228e-05
3.028321e-05
3.0366038e-05
3.044867e-05
3.0531061e-05
3.0613153e-05
3.0694881e-05
3.077617e-05
3.0856937e-05
3.0937094e-05
3.1016545e-05
3.1095189e-05
3.1172922e-05
3.1249636e-05
3.1325226e-05
3.1399582e-05
3.1472598e-05
3.1544169e-05
3.1614201e-05
3.1682604e-05
3.1749302e-05
3.1814232e-05
3.1877344e-05
3.1938603e-05
3.1997986e-05
3.2055481e-05
3.2111083e-05
3.2164786e-05
3.2216584e-05
3.2266467e-05
3.2314416e-05
3.2360407e-05
3.2404405e-05
3.2446367e-05
3.2486242e-05
3.2523969e-05
3.2559489e-05
3.259275e-05
3.2623723e-05
3.2652424e-05
3.267893e-05
3.2703422e-05
3.2726226e-05
3.2747865e-05
3.2769125e-05
3.2791166e-05
3.2815614e-05
3.2844717e-05
3.2881549e-05
3.2930341e-05
3.299668e-05
3.3088155e-05
3.3215183e-05
3.3391819e-05
3.3636806e-05
3.397761e-05
3.4451944e-05
3.5111386e-05
3.6038482e-05
3.7349573e-05
3.922331e-05
4.1937552e-05
4.5929434e-05
5.1987091e-05
6.1419919e-05
7.6578786e-05
0.00010195158
0.00014447707
0.00021770106
0.00033818872
0.00052050626
0.00077116304
0.0010855799
0.0014475687
0.0018357852
0.0022313264
0.0026209588
0.0029963215
0.003352306
0.0036860696
0.0039963706
0.0042830157
0.0045464788
0.0047876508
0.0050076489
0.0052076765
0.0053888743
0.0055522107
0.0056984855
0.0058277225
0.0059423391
0.0060343189
0.0061562588
2.9141423e-05
2.9220014e-05
2.9301672e-05
2.9384034e-05
2.9466527e-05
2.9549008e-05
2.9631427e-05
2.9713757e-05
2.9795972e-05
2.987804e-05
2.9959924e-05
3.0041579e-05
3.012295e-05
3.0203976e-05
3.0284585e-05
3.0364699e-05
3.0444232e-05
3.0523093e-05
3.0601183e-05
3.0678399e-05
3.0754633e-05
3.0829775e-05
3.0903707e-05
3.0976313e-05
3.1047473e-05
3.1117065e-05
3.1184974e-05
3.1251083e-05
3.1315284e-05
3.1377472e-05
3.1437552e-05
3.1495433e-05
3.1551029e-05
3.1604257e-05
3.1655033e-05
3.1703274e-05
3.1748892e-05
3.1791796e-05
3.1831894e-05
3.186909e-05
3.1903281e-05
3.1934361e-05
3.1962215e-05
3.1986724e-05
3.2007762e-05
3.2025204e-05
3.2038928e-05
3.2048826e-05
3.2054813e-05
3.2056845e-05
3.2054942e-05
3.204921e-05
3.2039885e-05
3.202738e-05
3.2012341e-05
3.1995732e-05
3.1978949e-05
3.1963945e-05
3.1953416e-05
3.1951081e-05
3.1962059e-05
3.1993207e-05
3.2054058e-05
3.2157897e-05
3.2322354e-05
3.2573261e-05
3.2947058e-05
3.3494445e-05
3.4294647e-05
3.5463523e-05
3.7181794e-05
3.9729154e-05
4.3558303e-05
4.9488002e-05
5.8851189e-05
7.4251588e-05
0.00010021552
0.00014438135
0.00022017624
0.00034194693
0.00052094977
0.00076040825
0.0010525898
0.0013810336
0.0017275079
0.002077322
0.0024204659
0.0027505063
0.0030635005
0.0033572902
0.0036309407
0.0038843104
0.0041177603
0.0043318916
0.0045273702
0.0047048433
0.0048642012
0.005008376
0.0051256334
0.0052881666
2.8663003e-05
2.8740871e-05
2.8821777e-05
2.8903386e-05
2.8985133e-05
2.9066873e-05
2.9148559e-05
2.9230163e-05
2.9311658e-05
2.9393014e-05
2.9474195e-05
2.9555158e-05
2.963585e-05
2.9716214e-05
2.9796182e-05
2.987568e-05
2.9954627e-05
3.0032934e-05
3.0110509e-05
3.0187253e-05
3.0263061e-05
3.0337826e-05
3.0411435e-05
3.048377e-05
3.0554712e-05
3.0624138e-05
3.0691924e-05
3.0757946e-05
3.0822083e-05
3.0884213e-05
3.0944217e-05
3.1001977e-05
3.1057376e-05
3.1110293e-05
3.1160606e-05
3.1208186e-05
3.12529e-05
3.129461e-05
3.1333174e-05
3.1368447e-05
3.140028e-05
3.1428519e-05
3.1453003e-05
3.1473567e-05
3.149004e-05
3.1502244e-05
3.1509999e-05
3.1513121e-05
3.1511426e-05
3.1504738e-05
3.1492894e-05
3.1475754e-05
3.1453218e-05
3.1425239e-05
3.1391857e-05
3.1353221e-05
3.1309642e-05
3.1261644e-05
3.121004e-05
3.1156026e-05
3.1101339e-05
3.1048406e-05
3.1000611e-05
3.0962724e-05
3.0941214e-05
3.0945115e-05
3.0987221e-05
3.1084947e-05
3.1263635e-05
3.1559697e-05
3.2025065e-05
3.274066e-05
3.3827206e-05
3.5477355e-05
3.7982379e-05
4.1852519e-05
4.7974823e-05
5.7872193e-05
7.4521053e-05
0.00010273621
0.00015181425
0.00023399116
0.00036183704
0.00054289883
0.00077618855
0.0010509149
0.0013513302
0.0016626459
0.0019738377
0.0022774556
0.0025686719
0.0028445549
0.0031035142
0.0033448108
0.0035682358
0.003773897
0.0039612945
0.0041337299
0.0042756119
0.0044787789
2.8189753e-05
2.8266951e-05
2.834716e-05
2.842807e-05
2.8509123e-05
2.8590176e-05
2.8671181e-05
2.8752109e-05
2.8832934e-05
2.8913627e-05
2.8994153e-05
2.907447e-05
2.9154529e-05
2.9234274e-05
2.9313642e-05
2.9392563e-05
2.9470959e-05
2.9548748e-05
2.962584e-05
2.9702141e-05
2.9777553e-05
2.9851972e-05
2.9925289e-05
2.9997392e-05
3.0068164e-05
3.0137487e-05
3.0205238e-05
3.0271297e-05
3.0335539e-05
3.0397841e-05
3.0458079e-05
3.0516129e-05
3.0571862e-05
3.0625147e-05
3.0675846e-05
3.0723813e-05
3.0768896e-05
3.0810935e-05
3.0849764e-05
3.0885212e-05
3.0917101e-05
3.0945247e-05
3.0969463e-05
3.0989551e-05
3.1005309e-05
3.1016528e-05
3.1022994e-05
3.1024485e-05
3.1020775e-05
3.1011632e-05
3.0996825e-05
3.0976123e-05
3.09493e-05
3.0916144e-05
3.0876467e-05
3.0830115e-05
3.0776986e-05
3.0717053e-05
3.0650396e-05
3.0577237e-05
3.0497999e-05
3.0413377e-05
3.0324427e-05
3.0232725e-05
3.0140522e-05
3.0051e-05
2.9968703e-05
2.989994e-05
2.9853603e-05
2.9842423e-05
2.9884104e-05
3.000469e-05
3.0242075e-05
3.0651683e-05
3.1319816e-05
3.2379285e-05
3.4042631e-05
3.6640274e-05
4.0776407e-05
4.7452787e-05
5.8616128e-05
7.7640405e-05
0.00011054288
0.00016729384
0.00025960664
0.00039689088
0.00058265882
0.00081129734
0.0010703485
0.0013459494
0.0016267075
0.0019045008
0.0021738507
0.0024311978
0.0026743711
0.002902165
0.0031131419
0.0033106324
0.0034749758
0.0037171563
2.7723882e-05
2.7800462e-05
2.7880028e-05
2.7960294e-05
2.8040708e-05
2.8121126e-05
2.8201501e-05
2.8281804e-05
2.836201e-05
2.844209e-05
2.8522009e-05
2.8601727e-05
2.8681199e-05
2.876037e-05
2.8839181e-05
2.8917564e-05
2.8995448e-05
2.9072753e-05
2.9149395e-05
2.9225284e-05
2.9300325e-05
2.9374421e-05
2.9447467e-05
2.9519356e-05
2.9589977e-05
2.9659214e-05
2.9726951e-05
2.9793069e-05
2.9857449e-05
2.9919969e-05
2.9980507e-05
3.0038938e-05
3.0095135e-05
3.0148964e-05
3.0200285e-05
3.024895e-05
3.02948e-05
3.0337672e-05
3.0377391e-05
3.0413777e-05
3.0446642e-05
3.0475791e-05
3.0501021e-05
3.0522121e-05
3.0538873e-05
3.0551053e-05
3.0558426e-05
3.0560753e-05
3.0557787e-05
3.0549272e-05
3.0534947e-05
3.0514547e-05
3.0487799e-05
3.0454431e-05
3.0414173e-05
3.0366758e-05
3.0311935e-05
3.0249473e-05
3.0179173e-05
3.0100888e-05
3.0014538e-05
2.9920144e-05
2.9817863e-05
2.9708043e-05
2.9591296e-05
2.9468585e-05
2.9341379e-05
2.9211832e-05
2.9083036e-05
2.8959472e-05
2.8847463e-05
2.8756072e-05
2.8698442e-05
2.8693227e-05
2.8768218e-05
2.8964467e-05
2.934339e-05
3.0002666e-05
3.1096335e-05
3.2863286e-05
3.5721427e-05
4.0393026e-05
4.8171223e-05
6.1493534e-05
8.4444918e-05
0.0001248096
0.00019261987
0.0002978515
0.00044648346
0.00063690117
0.00085996724
0.0011033602
0.0013558799
0.0016090672
0.0018570065
0.0020957901
0.0023220047
0.0025383112
0.0027206225
0.0029975133
2.7267191e-05
2.7343205e-05
2.742218e-05
2.7501855e-05
2.7581681e-05
2.7661516e-05
2.7741312e-05
2.7821041e-05
2.7900677e-05
2.7980192e-05
2.8059552e-05
2.8138719e-05
2.8217649e-05
2.829629e-05
2.8374586e-05
2.8452474e-05
2.8529884e-05
2.8606741e-05
2.8682965e-05
2.8758471e-05
2.8833169e-05
2.8906965e-05
2.8979761e-05
2.9051451e-05
2.9121932e-05
2.9191091e-05
2.9258818e-05
2.9324999e-05
2.9389515e-05
2.9452252e-05
2.9513089e-05
2.9571905e-05
2.9628574e-05
2.9682966e-05
2.9734943e-05
2.9784358e-05
2.9831056e-05
2.9874875e-05
2.9915641e-05
2.9953175e-05
2.9987288e-05
3.0017784e-05
3.0044458e-05
3.0067095e-05
3.0085475e-05
3.0099366e-05
3.010853e-05
3.011272e-05
3.011168e-05
3.0105147e-05
3.009285e-05
3.0074509e-05
3.0049837e-05
3.0018539e-05
2.9980318e-05
2.993487e-05
2.9881889e-05
2.9821074e-05
2.9752127e-05
2.9674765e-05
2.9588725e-05
2.9493775e-05
2.9389733e-05
2.9276481e-05
2.9154002e-05
2.9022408e-05
2.8882001e-05
2.873334e-05
2.8577342e-05
2.8415433e-05
2.8249739e-05
2.808337e-05
2.7920897e-05
2.7768877e-05
2.7636888e-05
2.7538943e-05
2.7495454e-05
2.753738e-05
2.7711275e-05
2.8088649e-05
2.8785125e-05
2.9984403e-05
3.1985069e-05
3.5323558e-05
4.0913326e-05
5.0539849e-05
6.7271095e-05
9.6858008e-05
0.0001478128
0.00022972622
0.00034977684
0.00050914194
0.00070156489
0.00091646683
0.0011432152
0.0013734826
0.0016002659
0.0018243072
0.0020164866
0.0023195827
2.6821112e-05
2.6896608e-05
2.6975043e-05
2.7054177e-05
2.7133465e-05
2.7212765e-05
2.7292031e-05
2.7371234e-05
2.7450348e-05
2.7529345e-05
2.7608193e-05
2.7686855e-05
2.7765287e-05
2.7843442e-05
2.7921265e-05
2.7998696e-05
2.8075669e-05
2.8152113e-05
2.8227953e-05
2.8303106e-05
2.8377487e-05
2.8451007e-05
2.852357e-05
2.8595078e-05
2.866543e-05
2.8734519e-05
2.8802238e-05
2.8868478e-05
2.8933125e-05
2.8996066e-05
2.9057187e-05
2.9116368e-05
2.9173487e-05
2.9228417e-05
2.9281024e-05
2.9331166e-05
2.9378691e-05
2.9423442e-05
2.946525e-05
2.9503939e-05
2.9539326e-05
2.9571217e-05
2.9599411e-05
2.9623698e-05
2.9643859e-05
2.9659664e-05
2.9670878e-05
2.9677255e-05
2.9678539e-05
2.9674469e-05
2.966477e-05
2.9649162e-05
2.9627355e-05
2.9599052e-05
2.9563945e-05
2.9521722e-05
2.9472063e-05
2.9414644e-05
2.9349136e-05
2.9275212e-05
2.9192546e-05
2.9100818e-05
2.8999723e-05
2.8888978e-05
2.8768331e-05
2.8637579e-05
2.8496584e-05
2.8345309e-05
2.8183845e-05
2.8012475e-05
2.7831747e-05
2.7642571e-05
2.7446391e-05
2.7245387e-05
2.7042809e-05
2.6843475e-05
2.665443e-05
2.6486189e-05
2.6354298e-05
2.6282066e-05
2.6305335e-05
2.6478948e-05
2.6891744e-05
2.7686307e-05
2.9087977e-05
3.150211e-05
3.5627247e-05
4.2791039e-05
5.5369623e-05
7.7720796e-05
0.00011698805
0.00018194959
0.00028015565
0.00041456011
0.00058116724
0.00077131268
0.00097417137
0.0011872111
0.0013755327
0.0016898089
2.6386748e-05
2.6461772e-05
2.6539715e-05
2.6618355e-05
2.6697151e-05
2.6775964e-05
2.6854746e-05
2.6933468e-05
2.7012104e-05
2.7090628e-05
2.7169008e-05
2.7247206e-05
2.7325184e-05
2.7402893e-05
2.7480283e-05
2.7557295e-05
2.7633868e-05
2.7709934e-05
2.778542e-05
2.7860249e-05
2.7934339e-05
2.8007604e-05
2.8079954e-05
2.8151294e-05
2.8221528e-05
2.8290553e-05
2.8358266e-05
2.8424561e-05
2.8489331e-05
2.8552464e-05
2.8613849e-05
2.8673371e-05
2.8730911e-05
2.8786345e-05
2.8839543e-05
2.8890368e-05
2.8938672e-05
2.8984303e-05
2.9027098e-05
2.9066887e-05
2.9103491e-05
2.9136723e-05
2.9166388e-05
2.9192281e-05
2.9214189e-05
2.9231889e-05
2.9245151e-05
2.9253733e-05
2.9257387e-05
2.9255853e-05
2.9248865e-05
2.9236146e-05
2.9217409e-05
2.919236e-05
2.9160696e-05
2.9122104e-05
2.9076264e-05
2.902285e-05
2.8961529e-05
2.8891961e-05
2.8813803e-05
2.8726712e-05
2.8630343e-05
2.8524358e-05
2.8408426e-05
2.8282232e-05
2.8145484e-05
2.7997924e-05
2.7839346e-05
2.7669611e-05
2.7488679e-05
2.7296651e-05
2.709382e-05
2.6880755e-05
2.6658415e-05
2.6428325e-05
2.6192809e-05
2.5955397e-05
2.572136e-05
2.5498575e-05
2.5298968e-05
2.5140514e-05
2.5051197e-05
2.5074151e-05
2.5278558e-05
2.5776399e-05
2.674698e-05
2.8505419e-05
3.1603625e-05
3.7058683e-05
4.6763867e-05
6.4132813e-05
9.5155941e-05
0.0001476876
0.00022910398
0.00034364321
0.00048784534
0.00066069807
0.00082313444
0.0011236002
2.5964921e-05
2.6039515e-05
2.6117009e-05
2.6195198e-05
2.6273547e-05
2.6351915e-05
2.6430254e-05
2.6508537e-05
2.6586739e-05
2.666483e-05
2.6742782e-05
2.6820558e-05
2.689812e-05
2.6975422e-05
2.7052415e-05
2.7129045e-05
2.7205251e-05
2.728097e-05
2.7356132e-05
2.7430664e-05
2.7504487e-05
2.7577518e-05
2.7649673e-05
2.7720859e-05
2.7790985e-05
2.7859951e-05