/*--------------------------------*- C++ -*----------------------------------*\
  =========                 |
  \\      /  F ield         | OpenFOAM: The Open Source CFD Toolbox
   \\    /   O peration     | Website:  https://openfoam.org
    \\  /    A nd           | Version:  12
     \\/     M anipulation  |
\*---------------------------------------------------------------------------*/
FoamFile
{
    format      ascii;
    class       volScalarField;
    location    "200";
    object      k;
}
// * * * * * * * * * * * * * * * * * * * * * * * * * * * * * * * * * * * * * //

dimensions      [0 2 -2 0 0 0 0];

internalField   nonuniform List<scalar> 
7480
(
0.00018430082
0.00026865207
0.00039646204
0.0005774703
0.00082561231
0.0011550645
0.0015767211
0.0020942549
0.0027004795
0.0033749601
0.0040839928
0.0047864808
0.0054406624
0.0060111917
0.0064738236
0.0068195324
0.007041392
0.0071993824
0.0071970424
0.0071602478
0.0070727422
0.0069491596
0.0068032582
0.0066468023
0.0064896447
0.006339982
0.0062045523
0.0060885848
0.0059957319
0.0059275813
0.0058828754
0.0058572319
0.0058437566
0.0058347536
0.0058239131
0.005807724
0.0057855488
0.0057586608
0.0057288951
0.0056976281
0.005665456
0.0056324386
0.0055985483
0.0055639683
0.0055290884
0.0054943213
0.0054599369
0.0054260315
0.0053926082
0.0053596614
0.005327201
0.0052952319
0.005263754
0.0052327574
0.0052022287
0.0051721569
0.0051425324
0.0051133418
0.0050845697
0.0050562122
0.0050282581
0.0050006889
0.0049734882
0.0049466447
0.0049201475
0.0048939863
0.0048681513
0.0048426333
0.004817425
0.0047925219
0.0047679198
0.004743615
0.004719602
0.0046958707
0.0046724081
0.0046491993
0.0046262295
0.0046034853
0.0045809551
0.0045586301
0.0045365027
0.0045145661
0.0044928131
0.0044712355
0.0044498237
0.004428566
0.0044074485
0.0043864553
0.0043655693
0.004344772
0.0043240487
0.0043033863
0.0042827889
0.0042622489
0.0042418515
0.0042214945
0.0042016492
0.0041812335
0.0041639194
0.0041345096
0.00013859875
0.00014091907
0.00014469291
0.0001502477
0.00015830308
0.00017006679
0.00018728733
0.00021221756
0.00024733845
0.00029508151
0.00035810362
0.00043727977
0.00053111241
0.00063620797
0.00074803068
0.00086248318
0.00097507138
0.0010884467
0.0011997176
0.0013162148
0.0014483035
0.0016157816
0.0018288575
0.0020664993
0.0023287803
0.0026192138
0.0029380177
0.0032817308
0.0036415122
0.0040009379
0.0043379412
0.0046303734
0.004861574
0.0050264814
0.0051328275
0.0051960405
0.0052328385
0.0052561672
0.0052727853
0.0052843167
0.0052901562
0.0052899371
0.0052846029
0.0052759925
0.0052658121
0.0052549943
0.0052437169
0.0052318284
0.0052192597
0.0052061093
0.0051925034
0.0051785005
0.0051640943
0.0051492853
0.0051341044
0.005118585
0.0051027427
0.0050865865
0.0050701404
0.0050534606
0.0050365399
0.0050193771
0.0050019881
0.0049843943
0.0049666148
0.0049486661
0.0049305628
0.0049123217
0.0048939629
0.004875509
0.0048569835
0.0048384063
0.0048197885
0.0048011335
0.0047824393
0.0047636999
0.0047449107
0.0047260716
0.0047071879
0.0046882691
0.0046693258
0.0046503676
0.0046314011
0.0046124294
0.0045934515
0.0045744618
0.0045554511
0.0045364067
0.0045173146
0.0044981596
0.0044789333
0.0044596363
0.004440282
0.0044209214
0.0044016191
0.0043825477
0.0043638235
0.0043455683
0.004329671
0.0043041494
0.00013754393
0.0001376043
0.00013780621
0.00013814513
0.00013861468
0.00013921423
0.00013994704
0.00014081586
0.0001418179
0.00014294225
0.00014419233
0.00014557954
0.0001471063
0.00014876995
0.00015057039
0.00015252195
0.00015465068
0.00015706317
0.00015990587
0.00016350057
0.00016834444
0.000175683
0.0001863506
0.00020612617
0.00023868974
0.00028720839
0.00035590177
0.00044990959
0.00057706077
0.00074903439
0.00099528558
0.0012976877
0.001643235
0.0020165643
0.0023976724
0.0027632612
0.0030908123
0.0033645789
0.0035797239
0.0037418641
0.0038632607
0.0039576099
0.0040358287
0.0041040304
0.0041642688
0.0042166905
0.0042614334
0.0042994253
0.0043320526
0.0043605141
0.004385499
0.0044073279
0.0044262365
0.0044425119
0.0044564484
0.0044682773
0.0044781671
0.0044862631
0.0044927034
0.0044975933
0.0045010587
0.0045032072
0.0045041336
0.0045039227
0.0045026491
0.0045003805
0.0044971806
0.0044931114
0.0044882361
0.0044826196
0.0044763258
0.0044694125
0.0044619249
0.0044538945
0.0044453411
0.0044362778
0.0044267182
0.0044166812
0.0044061934
0.0043952873
0.0043839975
0.0043723569
0.0043603939
0.0043481311
0.0043355842
0.0043227626
0.0043096695
0.0042963036
0.0042826612
0.0042687415
0.0042545456
0.0042400899
0.0042254059
0.0042105796
0.0041956921
0.0041810117
0.0041665715
0.0041528813
0.0041409018
0.0041221664
0.00013754526
0.00013740531
0.0001372913
0.00013720581
0.00013714622
0.00013710676
0.00013708016
0.00013705804
0.00013703086
0.0001369876
0.00013691712
0.00013680873
0.0001366514
0.0001364333
0.00013614248
0.00013576519
0.00013528725
0.00013469916
0.0001339981
0.00013318644
0.00013226911
0.00013127399
0.00013021805
0.00012919888
0.00012839143
0.00012793676
0.00012825528
0.00012969619
0.00013294877
0.00013900443
0.00015061077
0.0001704049
0.0002077204
0.00027062246
0.00036677914
0.00050410333
0.00070149307
0.00096081387
0.0012602034
0.0015807427
0.0019021812
0.0022039011
0.0024698846
0.0026927834
0.0028743483
0.0030226155
0.0031474391
0.0032566686
0.0033545545
0.0034425786
0.0035212073
0.00359117
0.0036536563
0.003709883
0.0037607259
0.0038067294
0.0038483119
0.0038858858
0.0039198413
0.0039504966
0.0039781214
0.0040029571
0.0040252222
0.0040451094
0.0040627875
0.0040784086
0.0040921118
0.0041040272
0.0041142802
0.0041229941
0.0041302876
0.0041362694
0.0041410315
0.0041446454
0.0041471645
0.0041486305
0.0041490823
0.0041485633
0.0041471257
0.0041448285
0.0041417337
0.0041379014
0.0041333858
0.0041282331
0.0041224807
0.0041161568
0.0041092813
0.004101868
0.0040939271
0.004085471
0.0040765158
0.0040670944
0.0040572566
0.0040471123
0.0040367606
0.0040265121
0.0040163675
0.0040070138
0.0039987598
0.0039861285
0.00013762343
0.0001374603
0.00013729659
0.00013713676
0.00013698236
0.00013683307
0.00013668703
0.00013654122
0.00013639164
0.00013623367
0.00013606237
0.00013587276
0.00013565988
0.00013541885
0.0001351446
0.00013483182
0.00013447537
0.00013407002
0.00013360754
0.00013308318
0.00013249368
0.00013183807
0.00013111667
0.00013033584
0.00012950917
0.00012865678
0.00012780534
0.00012697327
0.00012619734
0.00012551099
0.00012500385
0.00012483095
0.00012522446
0.00012663947
0.00012991609
0.00013603753
0.00014751567
0.00016761004
0.00020612002
0.00027154445
0.00037178264
0.00051756225
0.00072106737
0.00096406172
0.0012302608
0.0015018479
0.0017612109
0.0019953629
0.0021988214
0.0023730931
0.0025238705
0.0026573834
0.0027778951
0.0028874044
0.0029867419
0.0030766927
0.0031583275
0.0032327373
0.0033007656
0.0033630122
0.0034199778
0.0034721337
0.0035199051
0.0035636545
0.0036036941
0.0036403028
0.0036737323
0.0037042116
0.003731954
0.0037571623
0.003780029
0.0038007309
0.0038194224
0.0038362308
0.0038512569
0.003864583
0.0038762827
0.0038864317
0.003895113
0.0039024172
0.0039084382
0.0039132681
0.003916992
0.0039196851
0.0039214114
0.0039222232
0.003922162
0.003921261
0.0039195486
0.0039170535
0.0039138091
0.0039098647
0.0039052872
0.0039002023
0.0038947223
0.0038891709
0.0038835264
0.0038785794
0.0038740485
0.0038674021
0.00013772634
0.00013756242
0.00013739252
0.00013721876
0.00013704245
0.00013686434
0.00013668457
0.00013650269
0.00013631774
0.00013612811
0.00013593167
0.00013572591
0.00013550811
0.00013527538
0.00013502505
0.00013475453
0.00013446101
0.00013414173
0.00013379349
0.00013341313
0.00013299767
0.00013254453
0.00013205149
0.00013151698
0.00013094031
0.00013032224
0.00012966474
0.00012896853
0.00012823949
0.00012749505
0.00012675047
0.00012602303
0.0001253346
0.00012471345
0.00012423643
0.00012382851
0.00012392363
0.00012437027
0.00012577068
0.00012882972
0.00013456622
0.0001449487
0.00016321559
0.00019777127
0.00025705825
0.00034864001
0.00048531697
0.00066699269
0.00088001041
0.0011104123
0.0013426605
0.0015632381
0.0017639663
0.0019427333
0.0021019495
0.0022455668
0.0023766795
0.0024968973
0.0026070346
0.0027078818
0.0028003921
0.0028854719
0.0029638349
0.0030360477
0.0031026165
0.0031640058
0.003220627
0.0032728423
0.0033209822
0.0033653559
0.0034062521
0.0034439359
0.0034786433
0.003510575
0.0035398964
0.0035667447
0.0035912405
0.0036135009
0.0036336471
0.0036518071
0.0036681125
0.0036826924
0.0036956686
0.0037071515
0.0037172374
0.0037260087
0.0037335341
0.0037398713
0.003745071
0.0037491823
0.0037522576
0.0037543633
0.0037555813
0.0037560472
0.0037558796
0.0037553981
0.0037545562
0.0037542329
0.0037535363
0.0037530753
0.00013784957
0.00013768729
0.00013751839
0.00013734405
0.00013716478
0.00013698087
0.0001367925
0.00013659975
0.00013640249
0.00013620035
0.00013599268
0.00013577852
0.00013555667
0.00013532569
0.00013508398
0.00013482991
0.00013456174
0.00013427769
0.00013397592
0.00013365448
0.00013331144
0.00013294486
0.00013255287
0.00013213372
0.00013168584
0.00013120796
0.00013069923
0.00013015892
0.00012958672
0.00012898437
0.00012835496
0.00012770224
0.00012703112
0.00012634381
0.00012565894
0.00012498285
0.00012435748
0.00012378483
0.00012332529
0.00012288462
0.00012291052
0.0001231926
0.0001240708
0.00012607217
0.00013005515
0.00013724917
0.00015007452
0.00017311992
0.00021473815
0.00028248486
0.00038583513
0.00053088104
0.00070757193
0.00090509532
0.0011103885
0.0013112411
0.001499435
0.0016718129
0.0018291581
0.0019737069
0.0021072534
0.0022307463
0.0023448077
0.0024501542
0.0025475767
0.0026377758
0.0027213249
0.0027987284
0.0028704585
0.0029369534
0.0029986151
0.0030558132
0.0031088821
0.0031581133
0.0032037529
0.0032460085
0.0032850607
0.0033210779
0.0033542276
0.0033846814
0.0034126135
0.003438196
0.0034615929
0.0034829554
0.0035024189
0.0035201015
0.0035361051
0.0035505176
0.0035634167
0.0035748756
0.0035849681
0.0035937785
0.0036014022
0.0036079802
0.0036136321
0.0036186638
0.0036229998
0.0036276186
0.0036309653
0.0036371141
0.00013799044
0.00013783015
0.00013766331
0.00013749088
0.00013731307
0.00013712988
0.00013694125
0.00013674714
0.00013654745
0.00013634206
0.00013613073
0.00013591315
0.00013568883
0.00013545714
0.00013521733
0.0001349685
0.00013470964
0.00013443963
0.0001341573
0.00013386137
0.00013355052
0.00013322337
0.00013287853
0.00013251457
0.00013213014
0.00013172389
0.00013129461
0.0001308412
0.00013036265
0.00012985827
0.0001293279
0.00012877185
0.00012819107
0.0001275861
0.00012695995
0.00012631547
0.00012565973
0.00012499814
0.00012434096
0.00012368835
0.00012309511
0.00012256159
0.00012210864
0.00012177986
0.00012167451
0.00012193029
0.00012276039
0.00012450112
0.00012796606
0.00013428923
0.00014549941
0.00016520476
0.00020091208
0.00025963915
0.00035074608
0.00047765691
0.00063355973
0.00080937096
0.00099386254
0.0011765332
0.0013503496
0.0015125779
0.0016634418
0.0018040422
0.0019351653
0.0020572671
0.0021708267
0.002276441
0.0023747078
0.0024661579
0.002551279
0.0026305378
0.0027043681
0.0027731553
0.0028372333
0.0028968893
0.0029523732
0.0030039125
0.0030517267
0.0030960353
0.003137059
0.0031750164
0.003210118
0.0032425608
0.0032725243
0.0033001686
0.0033256344
0.0033490449
0.0033705097
0.0033901304
0.0034080048
0.0034242362
0.0034389337
0.0034522409
0.0034642755
0.0034753266
0.0034852866
0.0034952554
0.0035029504
0.0035163022
0.00013814602
0.00013798792
0.00013782342
0.00013765339
0.00013747799
0.00013729712
0.00013711063
0.00013691834
0.00013672011
0.00013651574
0.00013630506
0.00013608785
0.00013586386
0.00013563276
0.0001353942
0.00013514771
0.00013489275
0.00013462871
0.00013435485
0.00013407039
0.00013377446
0.00013346612
0.00013314436
0.00013280815
0.00013245638
0.00013208798
0.00013170183
0.00013129685
0.000130872
0.00013042627
0.00012995879
0.00012946886
0.00012895605
0.00012842
0.00012786081
0.00012727894
0.00012667567
0.00012605287
0.0001254135
0.00012475875
0.00012409796
0.00012343913
0.00012278577
0.00012215722
0.00012157182
0.00012104481
0.00012062556
0.00012025955
0.00012027356
0.00012061369
0.00012155511
0.00012344053
0.00012709319
0.00013370879
0.00014536972
0.00016600913
0.00020239329
0.00026129332
0.0003521967
0.00047301183
0.00061893637
0.00078160361
0.00095097734
0.0011184599
0.0012789121
0.0014305766
0.0015734531
0.0017078451
0.0018339453
0.0019520081
0.002062446
0.0021657369
0.0022623381
0.0023526743
0.0024371396
0.0025160862
0.0025898242
0.0026586357
0.0027227888
0.0027825483
0.0028381792
0.0028899455
0.002938104
0.0029828993
0.0030245579
0.0030632856
0.0030992662
0.003132663
0.0031636218
0.0031922761
0.0032187511
0.0032431709
0.0032656592
0.0032863628
0.0033053973
0.0033230357
0.0033391378
0.0033549497
0.0033673918
0.0033886678
0.00013831349
0.00013815774
0.00013799572
0.0001378283
0.00013765557
0.00013747744
0.00013729371
0.0001371042
0.0001369087
0.00013670699
0.00013649886
0.00013628408
0.00013606241
0.00013583361
0.00013559743
0.00013535356
0.00013510169
0.00013484145
0.00013457239
0.00013429404
0.00013400585
0.0001337072
0.00013339741
0.00013307575
0.00013274143
0.0001323936
0.0001320314
0.00013165391
0.00013126021
0.00013084937
0.00013042045
0.00012997257
0.00012950491
0.00012901671
0.00012850735
0.00012797636
0.00012742353
0.00012684896
0.00012625321
0.00012563667
0.0001250011
0.00012434952
0.0001236841
0.00012300937
0.00012233175
0.00012165691
0.00012099738
0.00012035884
0.00011978005
0.00011927775
0.00011888775
0.00011866394
0.00011872597
0.00011924675
0.00012048529
0.00012289372
0.00012739803
0.00013540821
0.00014938636
0.00017439745
0.00021648494
0.0002836817
0.00037949628
0.00050156032
0.000644187
0.00079882145
0.00095676371
0.0011117296
0.001260633
0.0014025002
0.0015370876
0.001664295
0.0017841767
0.0018969694
0.002002991
0.0021025567
0.0021959666
0.0022835126
0.0023654802
0.0024421551
0.0025138285
0.0025807955
0.0026433497
0.0027017764
0.0027563458
0.0028073085
0.0028548923
0.0028993023
0.0029407233
0.0029793232
0.0030152568
0.0030486721
0.0030797091
0.0031085202
0.0031352214
0.003160074
0.0031829071
0.0032051335
0.0032228092
0.0032528277
0.00013849023
0.00013833694
0.00013817753
0.00013801282
0.0001378429
0.00013766766
0.00013748692
0.00013730047
0.0001371081
0.0001369096
0.00013670471
0.0001364932
0.00013627484
0.00013604937
0.00013581655
0.00013557612
0.00013532783
0.00013507139
0.00013480649
0.00013453279
0.00013424994
0.0001339575
0.00013365501
0.00013334197
0.0001330178
0.00013268191
0.00013233363
0.00013197225
0.00013159704
0.00013120721
0.00013080196
0.00013038046
0.00012994187
0.00012948538
0.00012901019
0.00012851556
0.00012800082
0.00012746542
0.000126909
0.00012633128
0.00012573226
0.0001251125
0.00012447271
0.00012381408
0.0001231386
0.00012244862
0.00012174794
0.00012104
0.00012033372
0.00011963681
0.00011896595
0.00011833576
0.00011776555
0.00011729329
0.00011696808
0.00011687594
0.00011716089
0.00011804651
0.00011985292
0.00012329938
0.00012951799
0.00014043682
0.00015965543
0.00019268765
0.00024643913
0.00032614445
0.00043132977
0.00055833466
0.00070003457
0.00084822257
0.00099634936
0.0011407044
0.0012796894
0.0014126108
0.0015390834
0.0016589488
0.0017722441
0.001879107
0.0019797196
0.0020743027
0.002163112
0.0022464281
0.0023245467
0.0023977689
0.0024663908
0.0025306957
0.0025909482
0.0026473912
0.0027002459
0.0027497144
0.0027959821
0.0028392214
0.0028795914
0.0029172536
0.0029523287
0.0029850726
0.0030152864
0.0030445668
0.0030680387
0.0031076907
0.00013867385
0.0001385231
0.00013836637
0.00013820445
0.00013803741
0.00013786515
0.00013768749
0.00013750422
0.00013731514
0.00013712001
0.00013691861
0.0001367107
0.00013649602
0.00013627434
0.00013604539
0.00013580894
0.00013556472
0.00013531248
0.00013505195
0.00013478284
0.00013450486
0.00013421767
0.00013392093
0.00013361426
0.00013329722
0.00013296937
0.00013263021
0.0001322792
0.00013191577
0.00013153928
0.00013114909
0.0001307445
0.00013032478
0.00012988918
0.00012943694
0.00012896731
0.00012847952
0.00012797285
0.00012744664
0.00012690026
0.0001263332
0.00012574511
0.00012513579
0.00012450527
0.00012385386
0.00012318216
0.00012249127
0.00012178251
0.00012105852
0.00012032234
0.00011957916
0.00011883533
0.00011809776
0.00011737822
0.00011669875
0.00011607356
0.0001155379
0.00011513699
0.00011494769
0.0001150963
0.00011578156
0.00011730839
0.00012023618
0.00012557351
0.0001349881
0.00015146004
0.00017993245
0.0002267555
0.00029702905
0.00039152398
0.00050776721
0.00063958766
0.00077938949
0.00092087238
0.0010602237
0.0011955246
0.001325742
0.0014502384
0.0015686762
0.0016809514
0.0017871031
0.0018872635
0.0019816349
0.0020704651
0.0021540257
0.0022325963
0.0023064523
0.0023758565
0.0024410548
0.0025022753
0.0025597289
0.0026136106
0.0026640989
0.0027113666
0.0027555443
0.0027968885
0.0028351766
0.0028722004
0.0029020902
0.0029523196
0.0001388622
0.00013871404
0.00013856002
0.00013840093
0.00013823682
0.00013806758
0.00013789304
0.00013771301
0.00013752727
0.0001373356
0.00013713778
0.00013693356
0.00013672271
0.00013650497
0.00013628011
0.00013604787
0.00013580799
0.00013556022
0.00013530431
0.00013503997
0.00013476694
0.00013448492
0.0001341936
0.00013389265
0.00013358174
0.00013326048
0.00013292846
0.00013258527
0.00013223043
0.00013186345
0.00013148379
0.00013109087
0.0001306841
0.00013026283
0.00012982639
0.00012937411
0.00012890526
0.00012841915
0.00012791504
0.00012739225
0.00012685009
0.00012628791
0.00012570517
0.00012510138
0.00012447617
0.00012382934
0.00012316089
0.00012247099
0.00012176024
0.00012102957
0.00012028056
0.00011951557
0.00011873753
0.0001179503
0.00011716123
0.00011637775
0.000115609
0.00011487991
0.00011420323
0.00011361267
0.0001131524
0.00011290299
0.00011297871
0.00011356861
0.00011497278
0.00011770061
0.00012270926
0.00013157841
0.00014710524
0.00017381969
0.00021791473
0.00028359662
0.00037235401
0.00048212731
0.00060721058
0.00074054075
0.00087629559
0.0010108372
0.0011421311
0.0012689544
0.0013905481
0.0015065122
0.0016166996
0.0017211219
0.0018198947
0.0019132009
0.0020012598
0.0020843058
0.0021625752
0.0022362982
0.0023056942
0.0023709699
0.0024323168
0.0024899178
0.0025439152
0.0025945709
0.0026416424
0.0026871227
0.002724087
0.0027858711
0.00013905337
0.00013890782
0.00013875652
0.00013860026
0.00013843908
0.00013827288
0.00013810148
0.00013792469
0.00013774231
0.00013755411
0.00013735989
0.0001371594
0.00013695241
0.00013673868
0.00013651795
0.00013628999
0.00013605455
0.00013581137
0.00013556018
0.00013530074
0.00013503276
0.00013475597
0.00013447007
0.00013417476
0.00013386971
0.0001335546
0.00013322906
0.00013289272
0.00013254518
0.00013218602
0.00013181476
0.00013143094
0.00013103404
0.00013062351
0.00013019878
0.00012975926
0.00012930431
0.00012883329
0.00012834553
0.00012784036
0.00012731709
0.00012677503
0.00012621351
0.00012563188
0.00012502953
0.00012440591
0.00012376055
0.00012309308
0.00012240329
0.00012169114
0.00012095685
0.00012020096
0.00011942444
0.0001186286
0.00011781578
0.00011698924
0.00011615246
0.00011531329
0.0001144794
0.00011366044
0.00011288001
0.00011215386
0.00011151644
0.00011101278
0.00011072715
0.0001107736
0.00011134669
0.00011275447
0.00011552446
0.00012061483
0.00012964622
0.00014548753
0.00017253351
0.00021664343
0.00028140945
0.00036837645
0.00047521078
0.00059622357
0.00072481607
0.00085576955
0.00098579229
0.0011129197
0.001235925
0.0013540711
0.0014669772
0.0015744946
0.0016766196
0.0017734408
0.0018651012
0.0019517726
0.0020336406
0.0021108933
0.0021837148
0.0022522859
0.0023167548
0.0023773886
0.002433925
0.0024885619
0.0025332562
0.0026075799
0.00013924567
0.00013910271
0.00013895413
0.00013880068
0.00013864242
0.00013847924
0.00013831096
0.0001381374
0.00013795835
0.00013777362
0.00013758298
0.0001373862
0.00013718306
0.00013697331
0.00013675672
0.00013653304
0.00013630203
0.00013606344
0.00013581701
0.00013556248
0.00013529958
0.00013502804
0.00013474757
0.00013445787
0.00013415865
0.00013384957
0.0001335303
0.00013320049
0.00013285977
0.00013250776
0.00013214403
0.00013176817
0.00013137971
0.00013097816
0.00013056304
0.0001301338
0.00012968989
0.00012923074
0.00012875575
0.0001282643
0.00012775575
0.00012722944
0.00012668471
0.00012612088
0.00012553728
0.00012493327
0.0001243082
0.00012366148
0.00012299257
0.000122301
0.00012158642
0.00012084861
0.00012008755
0.00011930343
0.00011849677
0.0001176686
0.00011682022
0.0001159541
0.00011507363
0.00011418266
0.00011328899
0.00011240094
0.00011152938
0.00011069826
0.00010992581
0.00010924872
0.000108716
0.00010841799
0.00010848007
0.00010911211
0.00011064779
0.0001136793
0.00011924146
0.0001290514
0.0001462918
0.00017554214
0.00022189227
0.0002887584
0.00037698532
0.00048342756
0.00060218483
0.00072720679
0.00085401386
0.00097978005
0.0011027448
0.0012217997
0.0013362922
0.0014458765
0.0015504007
0.0016498368
0.0017442355
0.0018336949
0.0019183411
0.0019983175
0.0020737559
0.0021449161
0.0022115083
0.0022759331
0.0023289661
0.0024167799
0.00013943764
0.00013929725
0.00013915134
0.00013900067
0.00013884529
0.00013868509
0.00013851989
0.00013834952
0.00013817377
0.00013799245
0.00013780535
0.00013761224
0.00013741289
0.00013720709
0.00013699458
0.00013677514
0.00013654851
0.00013631446
0.00013607274
0.00013582307
0.00013556521
0.00013529888
0.0001350238
0.00013473968
0.00013444622
0.0001341431
0.00013383
0.00013350658
0.00013317249
0.00013282736
0.0001324708
0.0001321024
0.00013172175
0.00013132839
0.00013092186
0.00013050168
0.00013006736
0.00012961835
0.00012915412
0.00012867411
0.00012817772
0.00012766435
0.00012713337
0.00012658415
0.00012601603
0.00012542835
0.00012482044
0.00012419164
0.0001235413
0.0001228688
0.00012217355
0.00012145502
0.00012071275
0.0001199464
0.00011915576
0.00011834083
0.00011750181
0.00011663927
0.00011575432
0.0001148484
0.0001139241
0.00011298502
0.00011203552
0.00011108389
0.00011013937
0.00010921411
0.00010833379
0.0001075194
0.00010681217
0.00010626834
0.00010598776
0.00010611608
0.00010689507
0.00010869655
0.00011222937
0.00011868577
0.00013009622
0.00014995582
0.00018313733
0.00023395594
0.00030538648
0.00039693983
0.00050441249
0.00062185349
0.0007439723
0.00086709188
0.0009888655
0.0011077849
0.0012228989
0.001333639
0.001439686
0.0015408819
0.001637178
0.001728598
0.0018151996
0.0018971964
0.001974247
0.0020489409
0.0021108071
0.0022129549
0.00013962805
0.00013949017
0.00013934689
0.00013919895
0.00013904639
0.0001388891
0.00013872693
0.00013855968
0.00013838717
0.0001382092
0.00013802557
0.00013783606
0.00013764044
0.0001374385
0.00013723
0.00013701471
0.00013679239
0.0001365628
0.0001363257
0.00013608082
0.00013582791
0.0001355667
0.00013529692
0.00013501828
0.00013473049
0.00013443323
0.0001341262
0.00013380905
0.00013348145
0.00013314303
0.00013279343
0.00013243226
0.00013205909
0.00013167353
0.00013127511
0.0001308634
0.00013043791
0.00012999816
0.00012954363
0.00012907381
0.00012858814
0.00012808607
0.000127567
0.00012703035
0.00012647548
0.00012590178
0.00012530858
0.00012469523
0.00012406107
0.00012340544
0.00012272767
0.00012202712
0.00012130317
0.00012055525
0.00011978283
0.00011898549
0.00011816288
0.00011731483
0.00011644137
0.00011554277
0.0001146197
0.00011367333
0.00011270535
0.00011171859
0.00011071706
0.0001097057
0.0001086937
0.00010769147
0.00010671296
0.00010578669
0.00010493769
0.00010421394
0.00010368334
0.00010345882
0.00010371734
0.00010474737
0.00010701756
0.00011138662
0.00011927912
0.00013328083
0.00015740148
0.00019617675
0.00025362906
0.00033141608
0.00042736635
0.00053637004
0.00065283766
0.00077239613
0.00089210933
0.001010052
0.0011249636
0.0012360413
0.0013427935
0.0014449364
0.001542321
0.0016350238
0.0017225877
0.0018077551
0.0018787332
0.0019958383
0.00013981584
0.00013968042
0.00013953971
0.00013939442
0.00013924462
0.00013909018
0.00013893095
0.00013876675
0.0001385974
0.0001384227
0.00013824245
0.00013805645
0.00013786447
0.0001376663
0.00013746172
0.00013725048
0.00013703236
0.00013680713
0.00013657453
0.00013633432
0.00013608625
0.00013583005
0.00013556544
0.00013529216
0.00013500991
0.00013471838
0.00013441727
0.00013410625
0.00013378499
0.00013345313
0.00013311032
0.00013275616
0.00013239028
0.00013201225
0.00013162165
0.00013121805
0.00013080099
0.00013037
0.0001299246
0.00012946428
0.00012898854
0.00012849683
0.0001279886
0.00012746329
0.00012692032
0.00012635907
0.00012577893
0.00012517928
0.00012455946
0.00012391881
0.00012325668
0.00012257239
0.00012186528
0.0001211347
0.00012038001
0.0001196006
0.0001187959
0.00011796542
0.00011710875
0.00011622558
0.00011531578
0.00011437945
0.00011341696
0.00011242909
0.00011141724
0.00011038332
0.00010933058
0.00010826361
0.00010718808
0.00010611439
0.00010505473
0.00010402558
0.0001030598
0.00010218783
0.00010146523
0.00010097998
0.00010086903
0.00010135385
0.00010278473
0.00010579697
0.00011148316
0.00012170697
0.00013966936
0.00016967925
0.00021608882
0.00028199236
0.00036708835
0.0004675218
0.00057786748
0.00069328583
0.00081030557
0.00092659247
0.0010405861
0.0011512628
0.001257968
0.0013604347
0.0014579446
0.0015533027
0.0016332955
0.0017655728
0.00014000016
0.00013986714
0.00013972891
0.00013958621
0.00013943908
0.0001392874
0.00013913104
0.0001389698
0.00013880352
0.00013863199
0.00013845503
0.00013827244
0.000138084
0.00013788949
0.0001376887
0.0001374814
0.00013726737
0.00013704636
0.00013681814
0.00013658247
0.0001363391
0.00013608776
0.00013582819
0.00013556011
0.00013528324
0.00013499729
0.00013470194
0.00013439689
0.00013408179
0.00013375631
0.00013342009
0.00013307276
0.00013271394
0.00013234322
0.0001319602
0.00013156444
0.00013115551
0.00013073295
0.00013029629
0.00012984505
0.00012937873
0.00012889682
0.00012839879
0.00012788408
0.00012735216
0.00012680243
0.0001262343
0.00012564718
0.00012504043
0.00012441342
0.00012376551
0.00012309604
0.00012240434
0.00012168974
0.00012095157
0.00012018918
0.00011940192
0.00011858915
0.00011775028
0.00011688478
0.00011599218
0.00011507209
0.00011412429
0.0001131487
0.00011214552
0.00011111526
0.00011005889
0.00010897806
0.00010787505
0.00010675363
0.00010561916
0.00010447838
0.00010334343
0.00010222859
0.00010115629
0.00010015986
9.9282329e-05
9.8589481e-05
9.819729e-05
9.8281715e-05
9.9128567e-05
0.00010121293
0.00010539402
0.00011309271
0.00012689699
0.00015059405
0.00018855208
0.0002446499
0.00032008367
0.0004123396
0.00051647941
0.00062743873
0.00074131001
0.00085539066
0.00096784921
0.0010776079
0.0011833607
0.0012877654
0.0013760295
0.0015229759
0.00014018033
0.00014004963
0.00013991381
0.00013977361
0.00013962906
0.00013948006
0.00013932646
0.00013916809
0.00013900477
0.00013883632
0.00013866255
0.00013848325
0.00013829822
0.00013810726
0.00013791015
0.00013770666
0.00013749657
0.00013727966
0.00013705568
0.0001368244
0.00013658557
0.00013633894
0.00013608424
0.0001358212
0.00013554955
0.00013526899
0.00013497923
0.00013467994
0.00013437082
0.00013405152
0.00013372169
0.00013338097
0.00013302899
0.00013266536
0.00013228966
0.0001319015
0.00013150042
0.000131086
0.00013065778
0.00013021527
0.00012975801
0.00012928548
0.00012879718
0.00012829259
0.00012777115
0.00012723231
0.00012667549
0.00012610013
0.0001255056
0.00012489131
0.00012425661
0.00012360088
0.00012292345
0.00012222368
0.0001215009
0.00012075443
0.00011998361
0.00011918777
0.00011836626
0.00011751844
0.00011664371
0.0001157415
0.00011481131
0.0001138527
0.00011286538
0.00011184918
0.00011080413
0.00010973057
0.00010862919
0.0001075012
0.00010634863
0.00010517422
0.00010398247
0.00010277965
0.00010157455
0.00010038076
9.9215408e-05
9.811156e-05
9.7100545e-05
9.6243655e-05
9.5627552e-05
9.5403359e-05
9.581035e-05
9.7222704e-05
0.00010034215
0.00010630451
0.00011722424
0.00013636448
0.00016793753
0.00021616999
0.00028333594
0.00036813416
0.00046626478
0.00057264185
0.00068304178
0.00079461169
0.00090474402
0.0010154748
0.0011101236
0.0012699837
0.00014035582
0.00014022735
0.00014009387
0.00013995607
0.00013981402
0.0001396676
0.00013951667
0.00013936106
0.0001392006
0.00013903511
0.00013886441
0.00013868829
0.00013850656
0.00013831901
0.00013812544
0.00013792563
0.00013771935
0.00013750638
0.00013728649
0.00013705945
0.000136825
0.00013658291
0.00013633291
0.00013607474
0.00013580812
0.00013553277
0.00013524839
0.00013495468
0.00013465132
0.00013433798
0.00013401432
0.00013367999
0.00013333462
0.00013297782
0.00013260921
0.00013222837
0.00013183488
0.00013142831
0.00013100822
0.00013057414
0.00013012559
0.0001296621
0.00012918317
0.00012868826
0.00012817687
0.00012764844
0.00012710243
0.00012653825
0.00012595534
0.00012535308
0.00012473087
0.00012408809
0.00012342411
0.00012273828
0.00012202994
0.00012129844
0.00012054311
0.00011976328
0.00011895829
0.00011812746
0.00011727015
0.00011638573
0.00011547357
0.00011453312
0.00011356384
0.00011256529
0.0001115371
0.00011047906
0.00010939111
0.00010827341
0.00010712651
0.00010595131
0.00010474937
0.00010352315
0.00010227614
0.00010101375
9.9743182e-05
9.8476903e-05
9.7229884e-05
9.6023715e-05
9.4899839e-05
9.3901449e-05
9.3104789e-05
9.2634715e-05
9.2698263e-05
9.3610101e-05
9.5944799e-05
0.00010067065
0.00010953002
0.00012536563
0.00015212886
0.00019414453
0.00025439528
0.00033257176
0.00042502254
0.00052695131
0.00063332933
0.00074463068
0.00084165242
0.0010104323
0.00014052623
0.00014039992
0.00014026867
0.00014013319
0.00013999353
0.0001398496
0.00013970123
0.00013954828
0.00013939057
0.00013922793
0.00013906018
0.00013888712
0.00013870856
0.0001385243
0.00013833414
0.00013813785
0.00013793524
0.00013772606
0.00013751011
0.00013728714
0.00013705691
0.00013681919
0.00013657371
0.00013632022
0.00013605844
0.0001357881
0.00013550891
0.00013522056
0.00013492275
0.00013461516
0.00013429744
0.00013396926
0.00013363025
0.00013328003
0.00013291824
0.00013254445
0.00013215827
0.00013175927
0.00013134701
0.00013092104
0.00013048089
0.0001300261
0.00012955616
0.00012907058
0.00012856885
0.00012805042
0.00012751476
0.00012696131
0.0001263895
0.00012579874
0.00012518845
0.00012455801
0.00012390681
0.00012323422
0.00012253959
0.00012182228
0.00012108163
0.00012031699
0.00011952768
0.00011871304
0.00011787242
0.00011700515
0.00011611058
0.0001151881