/*--------------------------------*- C++ -*----------------------------------*\
  =========                 |
  \\      /  F ield         | OpenFOAM: The Open Source CFD Toolbox
   \\    /   O peration     | Website:  https://openfoam.org
    \\  /    A nd           | Version:  12
     \\/     M anipulation  |
\*---------------------------------------------------------------------------*/
FoamFile
{
    format      ascii;
    class       volScalarField;
    location    "200";
    object      nut;
}
// * * * * * * * * * * * * * * * * * * * * * * * * * * * * * * * * * * * * * //

dimensions      [0 2 -1 0 0 0 0];

internalField   nonuniform List<scalar> 
7480
(
1.2220591e-06
1.4753945e-06
1.7922545e-06
2.162969e-06
2.5861894e-06
3.0588775e-06
3.5737397e-06
4.118571e-06
4.6766897e-06
5.2280393e-06
5.7508746e-06
6.2256869e-06
6.637336e-06
6.9765109e-06
7.2398553e-06
7.4305254e-06
7.5503314e-06
7.6344519e-06
7.6331838e-06
7.6135996e-06
7.5668999e-06
7.5004775e-06
7.421308e-06
7.3354707e-06
7.2482313e-06
7.1641697e-06
7.0872471e-06
7.0207125e-06
6.9669849e-06
6.9272888e-06
6.9011274e-06
6.8860782e-06
6.8781576e-06
6.8728595e-06
6.8664724e-06
6.8569219e-06
6.8438186e-06
6.8278972e-06
6.8102286e-06
6.7916196e-06
6.7724186e-06
6.7526565e-06
6.7323118e-06
6.7114896e-06
6.6904214e-06
6.669355e-06
6.6484549e-06
6.6277814e-06
6.6073387e-06
6.5871253e-06
6.5671497e-06
6.5474167e-06
6.5279288e-06
6.508682e-06
6.4896699e-06
6.4708879e-06
6.4523318e-06
6.4339952e-06
6.4158703e-06
6.3979564e-06
6.3802484e-06
6.3627362e-06
6.3454112e-06
6.3282681e-06
6.3113016e-06
6.2945065e-06
6.2778777e-06
6.2614097e-06
6.2450982e-06
6.2289403e-06
6.2129345e-06
6.1970801e-06
6.1813761e-06
6.1658187e-06
6.1504021e-06
6.1351184e-06
6.1199589e-06
6.104915e-06
6.0899793e-06
6.0751459e-06
6.0604103e-06
6.0457688e-06
6.0312175e-06
6.0167524e-06
6.0023684e-06
5.9880589e-06
5.9738162e-06
5.9596304e-06
5.9454904e-06
5.931383e-06
5.9172961e-06
5.9032162e-06
5.889139e-06
5.8750481e-06
5.8609887e-06
5.8468741e-06
5.8330134e-06
5.8186507e-06
5.8063227e-06
5.7854297e-06
1.909666e-05
1.06464e-05
6.7974647e-06
4.6004343e-06
3.2057279e-06
2.2949981e-06
1.7114467e-06
1.3564357e-06
1.1603105e-06
1.0764243e-06
1.0795797e-06
1.1456933e-06
1.2539707e-06
1.3946439e-06
1.5598784e-06
1.7429216e-06
1.9400659e-06
2.1484851e-06
2.373783e-06
2.6247871e-06
2.9175792e-06
3.284507e-06
3.7522739e-06
4.2880092e-06
4.8887685e-06
5.5588969e-06
6.296907e-06
7.1023035e-06
7.9615756e-06
8.8412109e-06
9.6973443e-06
1.048543e-05
1.1169099e-05
1.1734486e-05
1.2194295e-05
1.2575103e-05
1.2904123e-05
1.3199645e-05
1.3467925e-05
1.3707274e-05
1.3915179e-05
1.409306e-05
1.4246862e-05
1.4384118e-05
1.4510494e-05
1.4628598e-05
1.4738746e-05
1.4840631e-05
1.4934712e-05
1.5022085e-05
1.5103733e-05
1.5180208e-05
1.525172e-05
1.531847e-05
1.5380787e-05
1.5438996e-05
1.5493317e-05
1.5543901e-05
1.559095e-05
1.5634785e-05
1.5675427e-05
1.5712946e-05
1.5747478e-05
1.5779162e-05
1.5808124e-05
1.5834481e-05
1.5858332e-05
1.5879786e-05
1.5898964e-05
1.5915992e-05
1.5931004e-05
1.5944124e-05
1.5955433e-05
1.596499e-05
1.5972826e-05
1.5978952e-05
1.5983386e-05
1.598616e-05
1.5987335e-05
1.5986991e-05
1.5985219e-05
1.5982108e-05
1.5977735e-05
1.5972165e-05
1.5965443e-05
1.5957599e-05
1.5948646e-05
1.5938588e-05
1.5927424e-05
1.5915152e-05
1.5901804e-05
1.588745e-05
1.587219e-05
1.5856316e-05
1.5839986e-05
1.5824152e-05
1.5808354e-05
1.5795186e-05
1.578366e-05
1.5766021e-05
4.5874743e-05
3.8521259e-05
3.1086604e-05
2.475841e-05
1.9577726e-05
1.5360973e-05
1.1951919e-05
9.2402376e-06
7.1308042e-06
5.5246471e-06
4.3201691e-06
3.4207083e-06
2.7459311e-06
2.2379282e-06
1.8551467e-06
1.5662108e-06
1.3494924e-06
1.1863688e-06
1.0655351e-06
9.783182e-07
9.1844595e-07
8.843516e-07
8.6965419e-07
9.135399e-07
1.0284657e-06
1.2196092e-06
1.499849e-06
1.8609488e-06
2.3181792e-06
2.9165426e-06
3.7454651e-06
4.7815027e-06
5.9727612e-06
7.2660673e-06
8.6124365e-06
9.9406662e-06
1.1180558e-05
1.2285784e-05
1.3242999e-05
1.4068604e-05
1.4796046e-05
1.5458888e-05
1.6078707e-05
1.6662005e-05
1.7206095e-05
1.7707482e-05
1.8167448e-05
1.8592367e-05
1.8989467e-05
1.936358e-05
1.9716681e-05
2.0049555e-05
2.0363378e-05
2.0659946e-05
2.0940997e-05
2.1207739e-05
2.1460985e-05
2.1701485e-05
2.1930006e-05
2.2147055e-05
2.2353356e-05
2.2549514e-05
2.2736054e-05
2.2913438e-05
2.3082062e-05
2.3242282e-05
2.339443e-05
2.3538832e-05
2.3675828e-05
2.3805776e-05
2.3929046e-05
2.4045987e-05
2.4156878e-05
2.4261921e-05
2.4361235e-05
2.4454889e-05
2.4542943e-05
2.4625497e-05
2.4702706e-05
2.4774783e-05
2.4841977e-05
2.4904545e-05
2.496273e-05
2.5016745e-05
2.5066766e-05
2.5112927e-05
2.5155327e-05
2.519404e-05
2.5229129e-05
2.52607e-05
2.5288866e-05
2.5313857e-05
2.5335991e-05
2.5355944e-05
2.5374161e-05
2.5392471e-05
2.540989e-05
2.5432211e-05
2.5449572e-05
2.5484612e-05
5.0040837e-05
4.8666203e-05
4.6363046e-05
4.3338882e-05
3.9864044e-05
3.6165123e-05
3.2409889e-05
2.8726895e-05
2.5221983e-05
2.1980678e-05
1.906136e-05
1.6488711e-05
1.4256762e-05
1.2341587e-05
1.071175e-05
9.3320877e-06
8.1695008e-06
7.1905124e-06
6.3659062e-06
5.6688571e-06
5.0754782e-06
4.5633292e-06
4.1118646e-06
3.7055491e-06
3.333753e-06
2.9851896e-06
2.6624684e-06
2.3597088e-06
2.0799668e-06
1.8377081e-06
1.6488309e-06
1.5384269e-06
1.6086908e-06
1.8927672e-06
2.3566326e-06
3.0349332e-06
4.0076506e-06
5.2930612e-06
6.773574e-06
8.3651486e-06
9.9836265e-06
1.1536463e-05
1.2959841e-05
1.4231145e-05
1.5365645e-05
1.6399278e-05
1.7366638e-05
1.8286879e-05
1.9162813e-05
1.9990063e-05
2.0766663e-05
2.1496526e-05
2.218659e-05
2.2842531e-05
2.3467168e-05
2.4061806e-05
2.4627993e-05
2.5167861e-05
2.5683453e-05
2.6176198e-05
2.6647264e-05
2.7097816e-05
2.7528985e-05
2.7941751e-05
2.8336944e-05
2.8715313e-05
2.9077551e-05
2.9424318e-05
2.9756269e-05
3.0074083e-05
3.037845e-05
3.0670031e-05
3.0949392e-05
3.1216958e-05
3.1473007e-05
3.1717707e-05
3.1951193e-05
3.2173638e-05
3.2385306e-05
3.2586558e-05
3.277783e-05
3.2959588e-05
3.313229e-05
3.3296361e-05
3.3452164e-05
3.36e-05
3.374011e-05
3.3872688e-05
3.3997916e-05
3.4116015e-05
3.4227259e-05
3.433208e-05
3.4431042e-05
3.4525179e-05
3.4615186e-05
3.4703566e-05
3.4788522e-05
3.4879663e-05
3.4952227e-05
3.5085753e-05
5.0675309e-05
5.031055e-05
4.974029e-05
4.8893793e-05
4.773538e-05
4.6264157e-05
4.450366e-05
4.2492841e-05
4.0281044e-05
3.7925575e-05
3.5488633e-05
3.3032123e-05
3.0611576e-05
2.8272335e-05
2.6048548e-05
2.3963277e-05
2.2030619e-05
2.0256062e-05
1.863776e-05
1.7169576e-05
1.5842049e-05
1.4642417e-05
1.3556007e-05
1.2566985e-05
1.1658897e-05
1.0815044e-05
1.0018457e-05
9.2505633e-06
8.491999e-06
7.7306365e-06
6.9452843e-06
6.1380951e-06
5.3201607e-06
4.5348035e-06
3.8135892e-06
3.1966217e-06
2.7216937e-06
2.4127174e-06
2.4303698e-06
2.7412253e-06
3.3408136e-06
4.2829268e-06
5.6225077e-06
7.2186798e-06
8.9683086e-06
1.0763674e-05
1.2501506e-05
1.4118267e-05
1.5598258e-05
1.6962568e-05
1.8245185e-05
1.9471138e-05
2.064826e-05
2.1773528e-05
2.2843947e-05
2.3862014e-05
2.4833715e-05
2.5764179e-05
2.6656066e-05
2.7510856e-05
2.8330377e-05
2.9116844e-05
2.9872211e-05
3.059798e-05
3.1295458e-05
3.1965907e-05
3.2610487e-05
3.3230251e-05
3.3826215e-05
3.4399423e-05
3.4950929e-05
3.5481753e-05
3.5992798e-05
3.6484773e-05
3.6958171e-05
3.7413302e-05
3.7850392e-05
3.8269691e-05
3.8671555e-05
3.905648e-05
3.9425077e-05
3.9778025e-05
4.0116016e-05
4.0439707e-05
4.0749689e-05
4.1046467e-05
4.1330463e-05
4.1602031e-05
4.1861498e-05
4.2109226e-05
4.2345654e-05
4.2571401e-05
4.2787236e-05
4.299445e-05
4.3193852e-05
4.3388455e-05
4.357522e-05
4.3768969e-05
4.3923137e-05
4.4204458e-05
5.1140036e-05
5.087828e-05
5.0582317e-05
5.0231152e-05
4.9796987e-05
4.9253279e-05
4.8577982e-05
4.7755586e-05
4.6778036e-05
4.564503e-05
4.4364101e-05
4.2950191e-05
4.1424313e-05
3.9811519e-05
3.8138986e-05
3.6433917e-05
3.4721914e-05
3.3025874e-05
3.1365142e-05
2.9755138e-05
2.8207439e-05
2.6729704e-05
2.5325986e-05
2.3996934e-05
2.2740014e-05
2.1550047e-05
2.0419228e-05
1.9337237e-05
1.82919e-05
1.7273628e-05
1.6265758e-05
1.5249867e-05
1.4205288e-05
1.3118637e-05
1.1978237e-05
1.0760868e-05
9.5192295e-06
8.218156e-06
6.9525153e-06
5.7809954e-06
4.7691806e-06
3.987837e-06
3.4483678e-06
3.3382424e-06
3.6017848e-06
4.2480955e-06
5.3427907e-06
6.8462712e-06
8.604058e-06
1.05085e-05
1.2434084e-05
1.4289435e-05
1.603326e-05
1.7669696e-05
1.922501e-05
2.0721984e-05
2.2168151e-05
2.3560598e-05
2.4896641e-05
2.6178671e-05
2.741166e-05
2.8599353e-05
2.9743634e-05
3.0846017e-05
3.1908438e-05
3.2932859e-05
3.3920878e-05
3.4873865e-05
3.5793202e-05
3.6680301e-05
3.7536571e-05
3.8363379e-05
3.9161983e-05
3.9933412e-05
4.0678409e-05
4.1397458e-05
4.2090895e-05
4.2759036e-05
4.3402305e-05
4.4021292e-05
4.4616748e-05
4.5189532e-05
4.5740552e-05
4.6270696e-05
4.6780788e-05
4.7271553e-05
4.774361e-05
4.8197487e-05
4.8633664e-05
4.9052641e-05
4.9454989e-05
4.9841462e-05
5.0212948e-05
5.0570875e-05
5.0916034e-05
5.1251886e-05
5.1573823e-05
5.1903654e-05
5.2166353e-05
5.264749e-05
5.1699242e-05
5.144277e-05
5.1175525e-05
5.0898082e-05
5.0604591e-05
5.0285485e-05
4.9929556e-05
4.9524827e-05
4.9059473e-05
4.8522731e-05
4.7905745e-05
4.720234e-05
4.6409596e-05
4.5528096e-05
4.4561898e-05
4.3518186e-05
4.2406675e-05
4.123891e-05
4.0027528e-05
3.8785487e-05
3.7525449e-05
3.6259231e-05
3.4997391e-05
3.3748876e-05
3.252073e-05
3.1317965e-05
3.0143436e-05
2.8997825e-05
2.7879421e-05
2.6785211e-05
2.5709672e-05
2.4644604e-05
2.3578487e-05
2.2497588e-05
2.1388244e-05
2.0237631e-05
1.9035142e-05
1.7755903e-05
1.6393381e-05
1.4904275e-05
1.3376613e-05
1.1759543e-05
1.0112028e-05
8.5295586e-06
7.0771799e-06
5.8570784e-06
4.9284753e-06
4.3965573e-06
4.3809645e-06
4.8089346e-06
5.7382552e-06
7.1696543e-06
8.9304714e-06
1.0908047e-05
1.2964403e-05
1.4993108e-05
1.6939999e-05
1.8799673e-05
2.0590755e-05
2.2329009e-05
2.401704e-05
2.5650658e-05
2.7228153e-05
2.8752204e-05
3.0226357e-05
3.1652668e-05
3.3032363e-05
3.4366937e-05
3.5658152e-05
3.690767e-05
3.811708e-05
3.9288017e-05
4.0422052e-05
4.1520507e-05
4.2584373e-05
4.3614323e-05
4.4610798e-05
4.5574165e-05
4.6504873e-05
4.7403549e-05
4.8271018e-05
4.9108264e-05
4.9916358e-05
5.0696385e-05
5.144938e-05
5.2176274e-05
5.2877877e-05
5.355488e-05
5.42079e-05
5.4837544e-05
5.5444464e-05
5.602947e-05
5.6593481e-05
5.7137958e-05
5.7663611e-05
5.8174392e-05
5.8664004e-05
5.9163052e-05
5.9561997e-05
6.0296768e-05
5.2353214e-05
5.2095179e-05
5.1828433e-05
5.1557449e-05
5.1282278e-05
5.1001186e-05
5.0711243e-05
5.0408474e-05
5.0087974e-05
4.9744099e-05
4.9370734e-05
4.8961641e-05
4.8510853e-05
4.801309e-05
4.7464143e-05
4.6861188e-05
4.6202982e-05
4.5489944e-05
4.4724117e-05
4.3909003e-05
4.3049328e-05
4.2150751e-05
4.1219569e-05
4.0262376e-05
3.9285729e-05
3.8295842e-05
3.7298307e-05
3.6297864e-05
3.5298137e-05
3.4301611e-05
3.3309509e-05
3.2321624e-05
3.1336078e-05
3.0348921e-05
2.9355877e-05
2.8345652e-05
2.7306648e-05
2.622656e-05
2.5091994e-05
2.3885615e-05
2.2601228e-05
2.1222278e-05
1.9731254e-05
1.8124033e-05
1.6400155e-05
1.4586535e-05
1.2716672e-05
1.0852768e-05
9.1107098e-06
7.5806058e-06
6.3716042e-06
5.5749714e-06
5.3849359e-06
5.7073489e-06
6.6131747e-06
8.0604451e-06
9.8876822e-06
1.1964631e-05
1.4147323e-05
1.6325277e-05
1.8445171e-05
2.0501195e-05
2.2505261e-05
2.446333e-05
2.6371912e-05
2.8226537e-05
3.0026958e-05
3.1775281e-05
3.3473069e-05
3.5121246e-05
3.6721095e-05
3.8274326e-05
3.9782603e-05
4.1247343e-05
4.2669684e-05
4.4050432e-05
4.5390087e-05
4.6689008e-05
4.79476e-05
4.9166442e-05
5.034634e-05
5.1488307e-05
5.2593497e-05
5.366312e-05
5.4698366e-05
5.570033e-05
5.6669978e-05
5.7608132e-05
5.8515506e-05
5.9392762e-05
6.0240566e-05
6.1059706e-05
6.1851049e-05
6.2616033e-05
6.3355294e-05
6.4073412e-05
6.4762453e-05
6.5463466e-05
6.6027029e-05
6.7069644e-05
5.3092614e-05
5.2832599e-05
5.256393e-05
5.2291568e-05
5.2016523e-05
5.1738721e-05
5.145762e-05
5.1172305e-05
5.0881445e-05
5.0583256e-05
5.0275484e-05
4.9955421e-05
4.9619971e-05
4.9265757e-05
4.8889268e-05
4.8487044e-05
4.8055863e-05
4.7592936e-05
4.7096075e-05
4.6563819e-05
4.5995509e-05
4.5391324e-05
4.4752263e-05
4.4080071e-05
4.3377127e-05
4.2646294e-05
4.1890747e-05
4.1113796e-05
4.0318679e-05
3.9508392e-05
3.8685548e-05
3.7852245e-05
3.7009937e-05
3.6159138e-05
3.5299845e-05
3.4430202e-05
3.3546614e-05
3.2644182e-05
3.1716678e-05
3.0756022e-05
2.9754641e-05
2.8694864e-05
2.756083e-05
2.6343615e-05
2.5027047e-05
2.3593594e-05
2.203865e-05
2.0319754e-05
1.8517699e-05
1.6580182e-05
1.45633e-05
1.252756e-05
1.0603747e-05
8.8992969e-06
7.5304819e-06
6.6702305e-06
6.4494209e-06
6.8309035e-06
7.8850524e-06
9.4650757e-06
1.1446394e-05
1.3673946e-05
1.5999945e-05
1.8325931e-05
2.0613024e-05
2.2858609e-05
2.5065621e-05
2.7229749e-05
2.9344341e-05
3.1406606e-05
3.3417021e-05
3.537645e-05
3.728548e-05
3.9144944e-05
4.0955798e-05
4.2718696e-05
4.443396e-05
4.6101778e-05
4.7722357e-05
4.9296072e-05
5.0823556e-05
5.2305706e-05
5.3743623e-05
5.5138527e-05
5.6491662e-05
5.7804212e-05
5.9077226e-05
6.03116e-05
6.150808e-05
6.2667315e-05
6.3789909e-05
6.4876549e-05
6.5927986e-05
6.694561e-05
6.7930048e-05
6.8886691e-05
6.9806123e-05
7.0741203e-05
7.1497954e-05
7.2901498e-05
5.3909498e-05
5.3647246e-05
5.337627e-05
5.310162e-05
5.2824425e-05
5.2544854e-05
5.2262811e-05
5.1978087e-05
5.169036e-05
5.1399173e-05
5.1103901e-05
5.0803716e-05
5.049756e-05
5.0184131e-05
4.9861883e-05
4.952905e-05
4.9183692e-05
4.8823759e-05
4.8447179e-05
4.8051948e-05
4.7636227e-05
4.7198436e-05
4.6737331e-05
4.6252065e-05
4.5742219e-05
4.5207808e-05
4.464926e-05
4.4067367e-05
4.3463217e-05
4.2838099e-05
4.2193419e-05
4.1530607e-05
4.0851036e-05
4.0155884e-05
3.9446137e-05
3.8722369e-05
3.7984492e-05
3.7231648e-05
3.6462136e-05
3.5673122e-05
3.4861381e-05
3.4021134e-05
3.3144374e-05
3.2223133e-05
3.1248498e-05
3.0207995e-05
2.9083563e-05
2.7858401e-05
2.6524834e-05
2.5060915e-05
2.3454106e-05
2.1695055e-05
1.9791823e-05
1.7761882e-05
1.5635552e-05
1.3498733e-05
1.1477697e-05
9.7230155e-06
8.3436491e-06
7.6420401e-06
7.5818569e-06
8.2400072e-06
9.5653304e-06
1.141172e-05
1.3631128e-05
1.605282e-05
1.8542797e-05
2.1031243e-05
2.3497422e-05
2.5936564e-05
2.8341206e-05
3.0702594e-05
3.3016011e-05
3.5280218e-05
3.7494593e-05
3.965832e-05
4.1770757e-05
4.3831417e-05
4.5839874e-05
4.7795928e-05
4.9699736e-05
5.1551809e-05
5.3352959e-05
5.5104214e-05
5.6806705e-05
5.8461556e-05
6.0069793e-05
6.1632278e-05
6.3149701e-05
6.4622606e-05
6.6051445e-05
6.7436717e-05
6.8779003e-05
7.0079624e-05
7.1339287e-05
7.2564358e-05
7.3744135e-05
7.4944331e-05
7.5922392e-05
7.7737499e-05
5.4796524e-05
5.4531738e-05
5.4258151e-05
5.3980879e-05
5.370107e-05
5.3418921e-05
5.3134402e-05
5.2847418e-05
5.255785e-05
5.2265552e-05
5.1970344e-05
5.1671997e-05
5.1370215e-05
5.1064614e-05
5.0754701e-05
5.0439856e-05
5.0119319e-05
4.9792189e-05
4.9457429e-05
4.911389e-05
4.8760337e-05
4.8395492e-05
4.8018086e-05
4.7626905e-05
4.7220838e-05
4.6798925e-05
4.6360382e-05
4.590463e-05
4.5431303e-05
4.4940237e-05
4.4431455e-05
4.3905148e-05
4.3361644e-05
4.2801364e-05
4.2224793e-05
4.1632423e-05
4.1024653e-05
4.0401681e-05
3.9763406e-05
3.9109249e-05
3.8438255e-05
3.7748781e-05
3.703809e-05
3.6302526e-05
3.5537667e-05
3.4737958e-05
3.3895307e-05
3.2999915e-05
3.2042306e-05
3.1011177e-05
2.988966e-05
2.8659267e-05
2.7301436e-05
2.5800175e-05
2.4138828e-05
2.2314857e-05
2.032978e-05
1.8213356e-05
1.5993216e-05
1.3810226e-05
1.1798042e-05
1.0104802e-05
8.9939557e-06
8.5973197e-06
8.9517852e-06
1.0065989e-05
1.1799627e-05
1.40115e-05
1.6514073e-05
1.9147788e-05
2.1819752e-05
2.4493489e-05
2.7155125e-05
2.9792375e-05
3.2393756e-05
3.4952177e-05
3.7463762e-05
3.9925459e-05
4.2334692e-05
4.4689687e-05
4.6989377e-05
4.9233261e-05
5.1421368e-05
5.3554135e-05
5.5632256e-05
5.7656541e-05
5.9627774e-05
6.1546617e-05
6.3413554e-05
6.5228895e-05
6.699282e-05
6.8705534e-05
7.0367364e-05
7.1979527e-05
7.3542855e-05
7.5064798e-05
7.6533532e-05
7.802836e-05
7.9254727e-05
8.1528575e-05
5.5746687e-05
5.547906e-05
5.5202549e-05
5.4922342e-05
5.4639601e-05
5.4354533e-05
5.4067112e-05
5.3777262e-05
5.3484894e-05
5.3189918e-05
5.2892244e-05
5.2591782e-05
5.2288437e-05
5.1982101e-05
5.1672641e-05
5.1359887e-05
5.1043614e-05
5.0723534e-05
5.0399281e-05
5.0070401e-05
4.9736352e-05
4.9396506e-05
4.9050161e-05
4.8696551e-05
4.8334869e-05
4.7964288e-05
4.7583984e-05
4.7193162e-05
4.6791074e-05
4.6377044e-05
4.5950478e-05
4.5510879e-05
4.5057854e-05
4.4591121e-05
4.4110503e-05
4.3615923e-05
4.3107374e-05
4.258488e-05
4.2048445e-05
4.1497972e-05
4.0933226e-05
4.0353774e-05
3.9758828e-05
3.914714e-05
3.851695e-05
3.7865956e-05
3.7190938e-05
3.6487535e-05
3.5750545e-05
3.4973941e-05
3.414966e-05
3.3267522e-05
3.2315098e-05
3.1280625e-05
3.0147807e-05
2.8892159e-05
2.7494986e-05
2.5936358e-05
2.4202324e-05
2.2291832e-05
2.0216553e-05
1.7998391e-05
1.5736051e-05
1.3580418e-05
1.1691671e-05
1.0323287e-05
9.7013675e-06
9.8663317e-06
1.0852079e-05
1.253917e-05
1.4785062e-05
1.7386282e-05
2.0166805e-05
2.3020539e-05
2.5900259e-05
2.8783129e-05
3.165069e-05
3.4487838e-05
3.7284765e-05
4.0035141e-05
4.2734283e-05
4.5378928e-05
4.7967101e-05
5.0497723e-05
5.297033e-05
5.5384866e-05
5.7741456e-05
6.0040227e-05
6.2281193e-05
6.4464211e-05
6.6589004e-05
6.8655317e-05
7.0663089e-05
7.261332e-05
7.4506936e-05
7.6352465e-05
7.8137037e-05
7.9954015e-05
8.1453925e-05
8.4229525e-05
5.6753243e-05
5.6482464e-05
5.620271e-05
5.5919253e-05
5.5633271e-05
5.5344976e-05
5.5054344e-05
5.4761304e-05
5.446577e-05
5.4167661e-05
5.3866903e-05
5.356343e-05
5.3257188e-05
5.2948129e-05
5.2636213e-05
5.2321395e-05
5.2003623e-05
5.1682828e-05
5.1358913e-05
5.1031748e-05
5.0701156e-05
5.0366911e-05
5.0028733e-05
4.9686284e-05
4.933917e-05
4.8986939e-05
4.862909e-05
4.8265081e-05
4.7894335e-05
4.7516257e-05
4.7130244e-05
4.6735703e-05
4.6332067e-05
4.5918808e-05
4.5495456e-05
4.5061604e-05
4.4616911e-05
4.4161097e-05
4.3693926e-05
4.3215187e-05
4.2724664e-05
4.2222115e-05
4.1707224e-05
4.1179539e-05
4.0638409e-05
4.0082937e-05
3.9511884e-05
3.8923524e-05
3.8315586e-05
3.7685234e-05
3.7028834e-05
3.6341696e-05
3.5617705e-05
3.4849861e-05
3.4029782e-05
3.3145585e-05
3.2182481e-05
3.1131681e-05
2.9964745e-05
2.8659902e-05
2.7194533e-05
2.5549207e-05
2.3713965e-05
2.1692639e-05
1.9502754e-05
1.7217614e-05
1.4996484e-05
1.3000464e-05
1.151158e-05
1.0777876e-05
1.0881617e-05
1.1847039e-05
1.3582584e-05
1.5929872e-05
1.8670151e-05
2.1619648e-05
2.46678e-05
2.7760653e-05
3.0867156e-05
3.3963187e-05
3.7031079e-05
4.0059509e-05
4.3040944e-05
4.5970125e-05
4.8843581e-05
5.1659071e-05
5.4415076e-05
5.7110457e-05
5.9744213e-05
6.231532e-05
6.4822699e-05
6.7265347e-05
6.9642565e-05
7.1954902e-05
7.4203205e-05
7.6396917e-05
7.8522046e-05
8.0686255e-05
8.2482642e-05
8.5798345e-05
5.7809662e-05
5.7535426e-05
5.7252115e-05
5.6965093e-05
5.6675561e-05
5.6383734e-05
5.6089593e-05
5.5793067e-05
5.5494073e-05
5.5192532e-05
5.4888371e-05
5.458153e-05
5.4271958e-05
5.395962e-05
5.3644489e-05
5.3326549e-05
5.3005788e-05
5.2682195e-05
5.2355754e-05
5.2026442e-05
5.1694218e-05
5.1359023e-05
5.1020772e-05
5.0679351e-05
5.0334611e-05
4.9986361e-05
4.9634371e-05
4.9278363e-05
4.8918015e-05
4.8552963e-05
4.8182805e-05
4.7807108e-05
4.7425422e-05
4.7037291e-05
4.6642262e-05
4.6239901e-05
4.5829798e-05
4.5411569e-05
4.4984861e-05
4.4549345e-05
4.4104717e-05
4.3650688e-05
4.3186972e-05
4.2713271e-05
4.2229241e-05
4.173446e-05
4.1228395e-05
4.0710343e-05
4.0179371e-05
3.9634268e-05
3.9073465e-05
3.8494939e-05
3.7896019e-05
3.7273336e-05
3.6622807e-05
3.5939155e-05
3.5214994e-05
3.4443624e-05
3.3613806e-05
3.2710876e-05
3.1723773e-05
3.0629852e-05
2.940186e-05
2.8014176e-05
2.6445303e-05
2.4676501e-05
2.2708464e-05
2.0550794e-05
1.8271557e-05
1.6032527e-05
1.3997517e-05
1.2510328e-05
1.1782577e-05
1.1955383e-05
1.3022516e-05
1.4918692e-05
1.744869e-05
2.0380172e-05
2.3530297e-05
2.6791433e-05
3.0106583e-05
3.3439169e-05
3.6762276e-05
4.0057689e-05
4.3313581e-05
4.6521775e-05
4.9676471e-05
5.2773452e-05
5.5809388e-05
5.8781416e-05
6.1686937e-05
6.4523623e-05
6.7289652e-05
6.9984685e-05
7.2609097e-05
7.5172864e-05
7.7660584e-05
8.0194221e-05
8.2307233e-05
8.61963e-05
5.8909632e-05
5.8631639e-05
5.8344462e-05
5.8053569e-05
5.7760183e-05
5.7464526e-05
5.7166582e-05
5.6866281e-05
5.6563543e-05
5.625829e-05
5.5950451e-05
5.5639964e-05
5.532678e-05
5.5010863e-05
5.4692186e-05
5.4370738e-05
5.404651e-05
5.3719502e-05
5.3389718e-05
5.3057159e-05
5.2721824e-05
5.2383704e-05
5.2042782e-05
5.169903e-05
5.1352401e-05
5.1002826e-05
5.0650213e-05
5.0294439e-05
4.9935347e-05
4.9572748e-05
4.9206414e-05
4.8836091e-05
4.8461492e-05
4.8082314e-05
4.7698238e-05
4.7308941e-05
4.6914095e-05
4.6513377e-05
4.6106465e-05
4.5693041e-05
4.5272798e-05
4.4845438e-05
4.4410672e-05
4.3968221e-05
4.3517804e-05
4.3059125e-05
4.2591865e-05
4.2115657e-05
4.1630063e-05
4.1134538e-05
4.0628396e-05
4.0110769e-05
3.9580533e-05
3.9036226e-05
3.8476008e-05
3.7897572e-05
3.729772e-05
3.6672832e-05
3.6018163e-05
3.5326953e-05
3.4592172e-05
3.3803963e-05
3.294794e-05
3.201182e-05
3.0973759e-05
2.9806344e-05
2.8480252e-05
2.6971246e-05
2.5254533e-05
2.3329067e-05
2.1194956e-05
1.893634e-05
1.6710468e-05
1.4701918e-05
1.333164e-05
1.2739277e-05
1.3102909e-05
1.4417363e-05
1.6586134e-05
1.9375081e-05
2.254566e-05
2.5926059e-05
2.9417736e-05
3.296397e-05
3.6526167e-05
4.0077342e-05
4.3599533e-05
4.7080291e-05
5.0510392e-05
5.3882693e-05
5.7191345e-05
6.0431421e-05
6.3598982e-05
6.6691951e-05
6.9709483e-05
7.2661384e-05
7.553023e-05
7.8452007e-05
8.089852e-05
8.5388587e-05
6.0047072e-05
5.9765033e-05
5.9473692e-05
5.917863e-05
5.8881096e-05
5.8581318e-05
5.8279286e-05
5.7974929e-05
5.7668171e-05
5.7358934e-05
5.7047149e-05
5.6732754e-05
5.64157e-05
5.6095947e-05
5.5773469e-05
5.544825e-05
5.5120282e-05
5.4789563e-05
5.4456098e-05
5.4119892e-05
5.3780951e-05
5.3439278e-05
5.3094874e-05
5.2747734e-05
5.2397845e-05
5.2045183e-05
5.1689707e-05
5.1331362e-05
5.0970067e-05
5.0605723e-05
5.0238202e-05
4.9867357e-05
4.9493018e-05
4.9115e-05
4.8733104e-05
4.8347122e-05
4.795684e-05
4.7562033e-05
4.7162472e-05
4.6757918e-05
4.6348131e-05
4.5932865e-05
4.5511879e-05
4.508493e-05
4.465178e-05
4.4212187e-05
4.3765906e-05
4.3312683e-05
4.2852247e-05
4.2384295e-05
4.1908479e-05
4.1424388e-05
4.0931519e-05
4.0429239e-05
3.9916749e-05
3.9393056e-05
3.8856834e-05
3.8306435e-05
3.7739803e-05
3.715411e-05
3.6545926e-05
3.5910912e-05
3.5242846e-05
3.4534806e-05
3.3777282e-05
3.2956325e-05
3.2059278e-05
3.1063001e-05
2.9940402e-05
2.8659488e-05
2.7190902e-05
2.5509124e-05
2.3609509e-05
2.1486919e-05
1.9261953e-05
1.7073953e-05
1.5199764e-05
1.4017097e-05
1.3709632e-05
1.4406284e-05
1.6111882e-05
1.8648549e-05
2.1754795e-05
2.5200806e-05
2.8836065e-05
3.2573838e-05
3.6359507e-05
4.0155104e-05
4.3934501e-05
4.7679339e-05
5.1375836e-05
5.5013248e-05
5.8583223e-05
6.208018e-05
6.55006e-05
6.8852854e-05
7.2116382e-05
7.5440482e-05
7.8233372e-05
8.334557e-05
6.1216169e-05
6.0929805e-05
6.0634014e-05
6.0334496e-05
6.0032531e-05
5.9728354e-05
5.9421957e-05
5.9113274e-05
5.8802229e-05
5.8488747e-05
5.8172758e-05
5.7854202e-05
5.7533028e-05
5.7209196e-05
5.6882676e-05
5.6553451e-05
5.6221509e-05
5.5886845e-05
5.5549462e-05
5.5209364e-05
5.4866554e-05
5.4521038e-05
5.4172819e-05
5.3821896e-05
5.3468264e-05
5.311191e-05
5.2752812e-05
5.2390935e-05
5.2026229e-05
5.1658629e-05
5.1288053e-05
5.0914404e-05
5.0537572e-05
5.0157436e-05
4.977387e-05
4.9386741e-05
4.8995911e-05
4.860124e-05
4.8202576e-05
4.7799762e-05
4.7392631e-05
4.6981013e-05
4.6564731e-05
4.6143604e-05
4.5717449e-05
4.5286079e-05
4.4849305e-05
4.4406934e-05
4.3958769e-05
4.3504605e-05
4.3044225e-05
4.2577391e-05
4.2103841e-05
4.1623266e-05
4.11353e-05
4.0639498e-05
4.0135304e-05
3.9622011e-05
3.9098743e-05
3.856435e-05
3.8017357e-05
3.7455914e-05
3.6877486e-05
3.6278909e-05
3.5656133e-05
3.5003285e-05
3.4313782e-05
3.3578014e-05
3.2782146e-05
3.19133e-05
3.0946782e-05
2.9854289e-05
2.8601864e-05
2.7153532e-05
2.5489602e-05
2.3594304e-05
2.1485192e-05
1.9294727e-05
1.7182738e-05
1.5561605e-05
1.4687491e-05
1.4802604e-05
1.6000278e-05
1.8208356e-05
2.117756e-05
2.4637916e-05
2.8385166e-05
3.2294081e-05
3.6288351e-05
4.0316244e-05
4.4341544e-05
4.8338611e-05
5.2288627e-05
5.6178277e-05
5.9998236e-05
6.3752996e-05
6.7416786e-05
7.1150773e-05
7.4297542e-05
8.0044883e-05
6.2411408e-05
6.2120454e-05
6.1819938e-05
6.1515693e-05
6.1209026e-05
6.0900183e-05
6.0589159e-05
6.0275891e-05
5.9960304e-05
5.9642325e-05
5.9321886e-05
5.8998926e-05
5.8673394e-05
5.8345249e-05
5.8014459e-05
5.7681002e-05
5.7344866e-05
5.7006042e-05
5.6664528e-05
5.6320327e-05
5.5973439e-05
5.5623868e-05
5.5271616e-05
5.4916681e-05
5.455906e-05
5.419874e-05
5.3835703e-05
5.3469921e-05
5.3101353e-05
5.2729946e-05
5.2355636e-05
5.1978346e-05
5.1597991e-05
5.121448e-05
5.0827719e-05
5.0437615e-05
5.0044072e-05
4.9646993e-05
4.9246278e-05
4.8841822e-05
4.8433513e-05
4.8021237e-05
4.7604873e-05
4.7184297e-05
4.6759378e-05
4.6329985e-05
4.5895977e-05
4.5457214e-05
4.5013551e-05
4.456484e-05
4.4110929e-05
4.3651659e-05
4.3186866e-05
4.271637e-05
4.2239975e-05
4.1757459e-05
4.1268564e-05
4.0772977e-05
4.027032e-05
3.976012e-05
3.9241773e-05
3.871452e-05
3.817736e-05
3.7628996e-05
3.7067775e-05
3.6491394e-05
3.5896979e-05
3.5280703e-05
3.4636878e-05
3.3959165e-05
3.3237895e-05
3.2458889e-05
3.1608906e-05
3.0661015e-05
2.9584063e-05
2.8343002e-05
2.6898934e-05
2.5232733e-05
2.331797e-05
2.1228889e-05
1.9082882e-05
1.7170606e-05
1.5882324e-05
1.548888e-05
1.618793e-05
1.803209e-05
2.0814663e-05
2.4247456e-05
2.8078494e-05
3.213945e-05
3.6327096e-05
4.0573164e-05
4.4830013e-05
4.9064924e-05
5.3254959e-05
5.7395234e-05
6.1450532e-05
6.5590921e-05
6.9090806e-05
7.5474968e-05
6.36276e-05
6.3331805e-05
6.3026307e-05
6.2717076e-05
6.2405453e-05
6.2091692e-05
6.1775793e-05
6.1457695e-05
6.1137324e-05
6.0814611e-05
6.0489487e-05
6.0161893e-05
5.9831777e-05
5.9499096e-05
5.9163818e-05
5.8825916e-05
5.8485376e-05
5.8142187e-05
5.7796343e-05
5.7447843e-05
5.7096686e-05
5.6742872e-05
5.6386401e-05
5.602727e-05
5.5665474e-05
5.5300999e-05
5.4933829e-05
5.4563935e-05
5.419128e-05
5.3815817e-05
5.3437485e-05
5.3056217e-05
5.2671937e-05
5.2284568e-05
5.1894029e-05
5.1500242e-05
5.1103131e-05
5.0702619e-05
5.0298631e-05
4.9891088e-05
4.9479911e-05
4.9065015e-05
4.8646318e-05
4.822373e-05
4.7797162e-05
4.7366518e-05
4.6931701e-05
4.649261e-05
4.604914e-05
4.5601185e-05
4.5148635e-05
4.4691377e-05
4.4229298e-05
4.3762279e-05
4.3290196e-05
4.2812919e-05
4.2330309e-05
4.1842207e-05
4.1348436e-05
4.0848787e-05
4.0343006e-05
3.9830784e-05
3.931173e-05
3.8785337e-05
3.8250965e-05
3.770775e-05
3.7154567e-05
3.6589956e-05
3.6011797e-05
3.5417442e-05
3.4803292e-05
3.4163772e-05
3.3492682e-05
3.2779919e-05
3.2012187e-05
3.1171983e-05
3.0232644e-05
2.9157066e-05
2.7908231e-05
2.6453125e-05
2.4757761e-05
2.2824857e-05
2.0753283e-05
1.8718983e-05
1.7162146e-05
1.6353477e-05
1.6611317e-05
1.8085595e-05
2.0652098e-05
2.4025949e-05
2.7916863e-05
3.2112037e-05
3.6477159e-05
4.0925814e-05
4.5398812e-05
4.986735e-05
5.4276729e-05
5.8799165e-05
6.263682e-05
6.9641398e-05
6.4859903e-05
6.4559032e-05
6.4248311e-05
6.3933852e-05
6.3617034e-05
6.329812e-05
6.2977113e-05
6.2653955e-05
6.2328575e-05
6.2000905e-05
6.1670877e-05
6.1338433e-05
6.100352e-05
6.0666095e-05
6.0326122e-05
5.9983576e-05
5.9638436e-05
5.929069e-05
5.8940328e-05
5.8587346e-05
5.8231741e-05
5.787351e-05
5.751265e-05
5.7149157e-05
5.6783022e-05
5.6414234e-05
5.6042771e-05
5.5668609e-05
5.5291709e-05
5.4912026e-05
5.4529504e-05
5.4144078e-05
5.3755679e-05
5.3364233e-05
5.2969665e-05
5.2571905e-05
5.2170882e-05
5.176653e-05
5.1358782e-05
5.0947573e-05
5.0532834e-05
5.0114501e-05
4.9692504e-05
4.9266777e-05
4.8837252e-05
4.8403856e-05
4.7966516e-05
4.7525158e-05
4.7079706e-05
4.663008e-05
4.61762e-05
4.5717983e-05
4.5255348e-05
4.4788209e-05
4.4316481e-05
4.3840076e-05
4.3358906e-05
4.2872878e-05
4.2381892e-05
4.1885843e-05
4.1384613e-05
4.0878067e-05
4.0366044e-05
3.9848349e-05
3.9324739e-05
3.8794901e-05
3.8258427e-05
3.7714791e-05
3.7163257e-05
3.660285e-05
3.6032292e-05
3.5449644e-05
3.4852454e-05
3.423722e-05
3.3598758e-05
3.2930336e-05
3.2221063e-05
3.1460112e-05
3.0621703e-05
2.9679452e-05
2.8591732e-05
2.7319606e-05
2.5829742e-05
2.4083159e-05
2.214851e-05
2.0123892e-05
1.8384374e-05
1.7278639e-05
1.7172203e-05
1.8307235e-05
2.0656408e-05
2.3956087e-05
2.7889446e-05
3.2202674e-05
3.6728996e-05
4.1374167e-05
4.6036446e-05
5.0872471e-05
5.5003437e-05
6.2579047e-05
6.6103829e-05
6.5797666e-05
6.5481497e-05
6.5161589e-05
6.4839355e-05
6.4515069e-05
6.4188739e-05
6.3860309e-05
6.3529711e-05
6.3196876e-05
6.2861741e-05
6.2524246e-05
6.218434e-05
6.1841977e-05
6.1497121e-05
6.1149743e-05
6.0799822e-05
6.044734e-05
6.0092286e-05
5.9734653e-05
5.9374435e-05
5.9011626e-05
5.8646221e-05
5.8278214e-05
5.7907594e-05
5.7534347e-05
5.7158454e-05
5.6779886e-05
5.6398608e-05
5.6014576e-05
5.5627735e-05
5.5238023e-05
5.4845374e-05
5.4449718e-05
5.4050983e-05
5.3649101e-05
5.3244005e-05
5.2835631e-05
5.2423917e-05
5.20088e-05
5.1590221e-05
5.1168118e-05
5.0742432e-05
5.0313104e-05
4.9880075e-05
4.9443286e-05
4.9002676e-05
4.8558186e-05
4.8109752e-05
4.7657315e-05
4.7200809e-05
4.6740173e-05
4.6275342e-05
4.5806252e-05
4.533284e-05
4.4855041e-05
4.4372792e-05
4.3886029e-05
4.3394688e-05
4.2898705e-05
4.2398014e-05
4.1892546e-05
4.1382226e-05
4.0866975e-05
4.0346696e-05
3.9821277e-05
3.9290578e-05
3.8754422e-05
3.8212574e-05
3.7664713e-05
3.7110425e-05
3.6549103e-05
3.5979913e-05
3.5401731e-05
3.4812834e-05
3.4210918e-05
3.3592285e-05
3.295276e-05
3.2284243e-05
3.1574757e-05
3.0812691e-05
2.9969975e-05
2.9011326e-05
2.7894913e-05
2.6587174e-05
2.503504e-05
2.3254292e-05
2.1315494e-05
1.9500119e-05
1.8199617e-05
1.7804271e-05
1.8644115e-05
2.0790321e-05
2.4011856e-05
2.7974692e-05
3.2400597e-05
3.7056667e-05
4.2033583e-05
4.6348657e-05
5.4377511e-05
6.7355247e-05
6.7043593e-05
6.6721774e-05
6.6396212e-05
6.6068361e-05
6.5738505e-05
6.5406656e-05
6.507276e-05
6.4736752e-05
6.4398565e-05
6.4058137e-05
6.3715409e-05