/*--------------------------------*- C++ -*----------------------------------*\
  =========                 |
  \\      /  F ield         | OpenFOAM: The Open Source CFD Toolbox
   \\    /   O peration     | Website:  https://openfoam.org
    \\  /    A nd           | Version:  12
     \\/     M anipulation  |
\*---------------------------------------------------------------------------*/
FoamFile
{
    format      ascii;
    class       volScalarField;
    location    "200";
    object      p;
}
// * * * * * * * * * * * * * * * * * * * * * * * * * * * * * * * * * * * * * //

dimensions      [0 2 -2 0 0 0 0];

internalField   nonuniform List<scalar> 
7480
(
0.0061103262
0.0061440626
0.0061073166
0.006095613
0.0061162751
0.0061322217
0.0061353155
0.0061031056
0.006031532
0.0059417043
0.0058252558
0.0056821811
0.0055178661
0.0053382383
0.0051490068
0.0049561817
0.0047648148
0.0045756814
0.004392223
0.0042198865
0.0040566109
0.0039011668
0.0037576558
0.0036279705
0.0035118592
0.0034099776
0.0033228622
0.0032506242
0.0031926455
0.0031468156
0.0031115022
0.0030832752
0.0030566784
0.0030282016
0.0029959544
0.0029598922
0.0029219004
0.0028840559
0.0028464111
0.0028083427
0.0027694984
0.0027298439
0.0026903055
0.0026510827
0.0026116701
0.0025721513
0.0025329571
0.002494379
0.0024559325
0.0024173274
0.0023787606
0.0023405672
0.0023025421
0.0022643015
0.002226071
0.0021880289
0.0021499216
0.0021115482
0.0020732077
0.0020348741
0.0019961862
0.0019573333
0.0019183795
0.0018791002
0.0018395102
0.0017997007
0.0017595259
0.0017189568
0.0016780533
0.0016366843
0.0015948728
0.001552631
0.0015098356
0.0014665584
0.0014227626
0.0013783819
0.0013334527
0.0012879021
0.0012417294
0.0011949041
0.0011473903
0.0010991859
0.0010502469
0.0010005744
0.00095014635
0.00089895188
0.0008469716
0.00079418659
0.00074057799
0.00068609419
0.00063074585
0.00057438354
0.00051742887
0.00045901192
0.00040306999
0.00034196656
0.00030645129
0.00023214151
0.00042381763
-0.00035341366
0.0060310589
0.0060607052
0.0060248025
0.0060329127
0.0060638392
0.0060833464
0.0060765958
0.0060465867
0.0059989827
0.0059271847
0.0058274548
0.0057009114
0.0055519797
0.0053856215
0.0052072748
0.0050214922
0.0048345762
0.0046473527
0.0044635663
0.0042895974
0.0041244268
0.0039667115
0.0038194301
0.0036850545
0.0035645406
0.0034583568
0.0033668197
0.0032899645
0.0032269757
0.0031754536
0.0031341275
0.0031003697
0.0030692659
0.0030376185
0.0030036735
0.0029671225
0.0029294021
0.0028921053
0.0028548618
0.0028168734
0.0027778484
0.0027378993
0.0026980643
0.0026585637
0.002618881
0.0025790952
0.0025396308
0.0025007802
0.0024620647
0.0024232009
0.0023843853
0.0023459504
0.002307689
0.0022692185
0.0022307677
0.0021925144
0.0021542033
0.002115634
0.0020771072
0.0020385952
0.0019997356
0.0019607194
0.00192161
0.001882182
0.0018424506
0.0018025066
0.0017622034
0.0017215122
0.0016804927
0.0016390131
0.0015970964
0.0015547543
0.0015118632
0.001468495
0.0014246125
0.0013801495
0.0013351423
0.0012895177
0.0012432748
0.0011963832
0.0011488065
0.0011005424
0.0010515466
0.0010018202
0.00095134105
0.00090009802
0.00084807173
0.00079524322
0.00074159355
0.00068707104
0.00063168631
0.00057528966
0.00051830294
0.00045985487
0.00040388538
0.00034275178
0.00030719523
0.00023298458
0.00042471285
-0.00035273954
0.0059705534
0.0060131297
0.005999709
0.00601227
0.0060380178
0.0060501714
0.0060399503
0.0060117566
0.0059626866
0.0058847442
0.0057793612
0.0056486426
0.0054966162
0.0053282796
0.0051490727
0.0049637993
0.0047784189
0.0045942859
0.0044149182
0.0042458922
0.0040866044
0.0039358755
0.0037955355
0.0036681029
0.0035549522
0.0034562107
0.0033720775
0.0033022809
0.0032457472
0.0032002963
0.0031629234
0.0031302745
0.0030985982
0.0030648728
0.0030277832
0.002987308
0.0029452992
0.0029040893
0.0028638599
0.0028239561
0.0027839624
0.0027437501
0.002704071
0.0026648044
0.0026251985
0.0025853057
0.0025456308
0.0025065394
0.0024675829
0.002428494
0.0023894679
0.0023508316
0.0023123737
0.0022737145
0.0022350873
0.0021966662
0.0021581918
0.002119464
0.0020807866
0.0020421291
0.0020031275
0.0019639758
0.0019247359
0.0018851817
0.0018453291
0.0018052688
0.0017648534
0.0017240548
0.0016829325
0.0016413541
0.0015993429
0.0015569101
0.0015139316
0.0014704795
0.0014265162
0.0013819754
0.0013368939
0.0012911983
0.0012448878
0.0011979318
0.0011502939
0.0011019716
0.0010529203
0.001003141
0.0009526114
0.00090132027
0.00084924816
0.00079637611
0.00074268522
0.00068812383
0.00063270269
0.00057627194
0.00051925388
0.00046077581
0.00040478045
0.00034361627
0.00030804022
0.00023392611
0.00042564213
-0.0003520186
0.0059139536
0.0059635617
0.0059610313
0.0059717513
0.005992953
0.0060031833
0.0059940032
0.0059663576
0.0059171587
0.0058419813
0.0057423741
0.0056194761
0.0054762537
0.005317047
0.0051467094
0.0049696891
0.0047912088
0.0046130256
0.0044382573
0.0042718174
0.004113588
0.003963032
0.0038216923
0.003692221
0.0035760581
0.0034734831
0.0033849339
0.0033104713
0.0032495845
0.0032009601
0.003161254
0.0031273855
0.003096649
0.003065689
0.0030325444
0.0029968289
0.0029591416
0.0029203155
0.0028806946
0.0028401235
0.0027983712
0.0027556538
0.002713402
0.0026720761
0.0026311532
0.0025905861
0.0025507285
0.0025117157
0.0024728401
0.0024337206
0.0023945696
0.0023557679
0.0023171316
0.0022782935
0.0022394961
0.0022009085
0.0021622692
0.0021233817
0.0020845546
0.0020457523
0.0020066092
0.0019673231
0.001927954
0.0018882741
0.0018483005
0.0018081238
0.0017675956
0.0017266885
0.0016854623
0.0016437836
0.0016016764
0.0015591516
0.0015160839
0.0014725459
0.0014284996
0.0013838785
0.0013387198
0.0012929499
0.0012465686
0.001199545
0.0011518427
0.0011034592
0.0010543496
0.0010045148
0.00095393218
0.00090259053
0.00085047027
0.00079755243
0.00074381818
0.00068921592
0.0006337565
0.00057729009
0.0005202392
0.00046173011
0.0004057067
0.00034451093
0.00030891452
0.00023475722
0.0004265416
-0.00035134126
0.0058598652
0.0059134856
0.0059203677
0.0059327064
0.0059526433
0.0059621576
0.0059528524
0.0059248108
0.0058762177
0.0058035543
0.0057070466
0.0055875903
0.0054479583
0.005292309
0.0051252962
0.0049512495
0.0047750573
0.0045990441
0.0044262749
0.0042612842
0.0041044195
0.0039557685
0.0038164787
0.0036889925
0.0035747346
0.0034740501
0.0033872541
0.0033143022
0.0032545491
0.0032064163
0.0031665315
0.0031318716
0.003099716
0.0030668086
0.0030315752
0.0029943985
0.0029560318
0.0029172002
0.002878767
0.0028406476
0.0028022021
0.0027630934
0.0027233237
0.0026829438
0.0026420085
0.0026004747
0.0025590392
0.0025184468
0.0024783644
0.002438509
0.002399031
0.0023601787
0.0023215687
0.002282707
0.0022438293
0.00220513
0.0021663635
0.0021273451
0.0020883908
0.002049459
0.0020101845
0.0019707736
0.0019312838
0.0018914846
0.0018513955
0.0018111071
0.0017704696
0.0017294566
0.0016881285
0.0016463506
0.0016041483
0.0015615315
0.0015183743
0.0014747498
0.0014306191
0.0013859159
0.0013406777
0.0012948308
0.0012483755
0.001201281
0.001153511
0.0011050629
0.0010558916
0.001005998
0.00095535912
0.00090396377
0.00085179224
0.00079882556
0.00074504495
0.00069039889
0.00063489834
0.00057839348
0.00052130676
0.00046276378
0.00040670763
0.00034547682
0.00030984832
0.00023559706
0.0004274534
-0.0003505619
0.0058086907
0.0058643545
0.0058791003
0.0058933893
0.00591173
0.0059197962
0.0059099588
0.0058819133
0.0058342095
0.0057636169
0.005669887
0.0055541219
0.0054189521
0.0052682137
0.0051062554
0.0049372147
0.0047656139
0.0045940382
0.0044253521
0.0042637405
0.0041094924
0.0039632863
0.0038259719
0.0036998262
0.003586315
0.0034859083
0.0033988767
0.003325169
0.0032641803
0.0032144169
0.0031728487
0.0031366404
0.0031031952
0.0030695122
0.0030340977
0.0029970457
0.0029586829
0.0029195214
0.0028803281
0.0028410391
0.0028014159
0.0027616068
0.0027215036
0.0026815694
0.0026422375
0.0026032045
0.0025642486
0.0025251718
0.0024857342
0.0024457765
0.0024055413
0.0023657056
0.0023262325
0.0022867919
0.0022476243
0.0022088479
0.0021700714
0.002131023
0.002092013
0.0020530045
0.0020136393
0.0019741384
0.0019345551
0.0018946577
0.001854471
0.0018140869
0.0017733536
0.0017322468
0.0016908273
0.0016489594
0.00160667
0.0015639685
0.0015207278
0.0014770222
0.0014328117
0.0013880298
0.0013427148
0.0012967928
0.0012502648
0.0012031001
0.0011552625
0.0011067496
0.0010575162
0.0010075631
0.00095686728
0.00090541733
0.00085319351
0.00080017686
0.00074634864
0.00069165743
0.00063611425
0.00057956934
0.00052244473
0.00046386574
0.00040777269
0.00034650384
0.00031083238
0.00023648314
0.00042835498
-0.00034962278
0.0057598925
0.0058161339
0.0058369978
0.005853104
0.0058700195
0.0058768743
0.0058668301
0.0058390988
0.005792354
0.0057238079
0.0056330454
0.0055211591
0.0053905133
0.0052445916
0.0050874502
0.0049230442
0.0047555888
0.004587827
0.0044225294
0.0042634816
0.0041113832
0.0039669948
0.0038312398
0.0037062515
0.0035934915
0.0034934739
0.0034064665
0.0033324292
0.0032707868
0.0032201339
0.0031776489
0.003140548
0.0031062996
0.0030720756
0.0030363285
0.0029989892
0.0029603709
0.0029210297
0.0028817075
0.002842396
0.0028028964
0.0027631499
0.0027229279
0.0026826531
0.0026427091
0.0026030672
0.002563597
0.0025242564
0.0024853702
0.0024468743
0.0024084941
0.0023700405
0.0023312741
0.0022920132
0.0022524995
0.0022131532
0.0021738308
0.0021343951
0.0020951965
0.0020561351
0.0020167462
0.0019772166
0.0019375898
0.0018976357
0.0018573875
0.0018169381
0.0017761335
0.0017349534
0.0016934606
0.0016515184
0.0016091559
0.001566382
0.0015230691
0.0014792924
0.0014350108
0.0013901581
0.001344773
0.0012987815
0.0012521855
0.0012049544
0.0011570524
0.0011084773
0.0010591839
0.001009173
0.00095842147
0.00090691794
0.00085464254
0.00080157637
0.00074770073
0.00069296429
0.00063737811
0.00058079251
0.00052362875
0.00046501243
0.00040887904
0.00034757026
0.000311847
0.00023739449
0.00042920962
-0.00034850896
0.0057130923
0.0057688288
0.0057942395
0.0058120168
0.0058278181
0.0058336519
0.0058234711
0.005796102
0.0057503439
0.0056838529
0.0055960854
0.0054880181
0.0053617894
0.005220586
0.0050681946
0.0049083864
0.0047451065
0.0045811917
0.0044193424
0.0042630101
0.0041132455
0.003970857
0.0038368546
0.0037131988
0.0036013245
0.0035017946
0.0034148894
0.0033405837
0.0032783171
0.0032267367
0.0031832125
0.0031450537
0.0031098212
0.0030748574
0.0030386127
0.0030009479
0.0029621574
0.0029227374
0.0028833365
0.0028439598
0.0028043899
0.0027645377
0.002724253
0.0026839408
0.0026439683
0.002604306
0.002564753
0.0025252568
0.0024860851
0.0024472085
0.0024084491
0.0023696645
0.0023310795
0.0022928022
0.0022545845
0.0022162261
0.0021774923
0.0021382399
0.0020988562
0.0020594598
0.0020197446
0.0019799919
0.0019402677
0.0019002798
0.0018600126
0.0018195387
0.0017786999
0.00173748
0.001695943
0.0016539507
0.0016115357
0.0015687078
0.0015253384
0.001481505
0.0014371651
0.0013922529
0.0013468078
0.0013007557
0.0012540993
0.0012068083
0.0011588476
0.0011102152
0.0010608658
0.0010108006
0.00095999638
0.00090844177
0.00085611686
0.00080300281
0.00074908097
0.00069430013
0.00063867131
0.00058204501
0.00052484143
0.00046618707
0.00041001056
0.00034866109
0.00031287831
0.00023831396
0.00042998963
-0.00034719786
0.005667943
0.0057224137
0.0057510384
0.0057702607
0.0057851841
0.0057901086
0.0057798148
0.0057528687
0.0057081581
0.0056437083
0.0055588971
0.005454577
0.0053326982
0.0051961749
0.0050485252
0.0048933279
0.004734284
0.0045742661
0.004415916
0.0042624089
0.0041150442
0.0039747075
0.0038424732
0.0037201567
0.0036091691
0.0035101242
0.0034233166
0.0033487328
0.0032858304
0.0032333152
0.0031887455
0.0031495428
0.0031133517
0.0030776658
0.0030409545
0.0030030033
0.0029640503
0.0029245207
0.0028849897
0.0028454822
0.0028057953
0.0027658559
0.0027255494
0.0026852304
0.0026452394
0.0026055454
0.0025659611
0.0025264474
0.0024872329
0.0024482852
0.0024094193
0.0023705065
0.0023317576
0.0022932711
0.002254759
0.0022161227
0.0021775761
0.0021391472
0.0021006467
0.002061864
0.0020225779
0.0019829311
0.0019430881
0.0019028848
0.0018624294
0.001821851
0.0017809712
0.0017397357
0.001698185
0.001656173
0.001613735
0.0015708792
0.001527476
0.0014836056
0.001439225
0.0013942688
0.0013487775
0.0013026767
0.0012559707
0.0012086293
0.001160618
0.0011119354
0.0010625362
0.0010124222
0.00096156993
0.00090996825
0.00085759725
0.00080443815
0.00075047238
0.00069564885
0.00063997854
0.00058331223
0.00052606881
0.00046737646
0.00041115486
0.00034976529
0.00031391632
0.0002392323
0.00043067126
-0.00034565772
0.0056241474
0.0056768397
0.0057075643
0.0057279326
0.0057421509
0.0057462707
0.0057358967
0.0057094339
0.0056658162
0.0056033767
0.0055214704
0.0054208295
0.0053032282
0.0051713264
0.0050283822
0.0048777802
0.0047229997
0.0045669049
0.004412085
0.0042614831
0.0041165781
0.003978347
0.0038479122
0.0037269723
0.0036169104
0.0035183841
0.0034317034
0.0033568669
0.0032933564
0.0032399404
0.0031943528
0.0031541295
0.0031169968
0.0030805902
0.0030434043
0.00300515
0.0029660088
0.0029263487
0.0028866818
0.0028470477
0.0028072602
0.0027672489
0.0027269142
0.0026865674
0.0026465265
0.0026067724
0.0025671413
0.0025275967
0.0024883441
0.0024493589
0.002410467
0.0023715488
0.0023327741
0.0022942037
0.0022555756
0.0022168339
0.0021781792
0.0021396291
0.0021008545
0.0020619034
0.0020229917
0.0019839815
0.0019447089
0.0019049512
0.0018647374
0.001824188
0.0017831968
0.001741828
0.0017001898
0.0016581398
0.0016156908
0.0015728291
0.0015294168
0.0014855347
0.0014411365
0.0013961569
0.0013506377
0.0013045044
0.0012577629
0.0012103834
0.0011623325
0.0011136092
0.0010641687
0.0010140133
0.00096311946
0.00091147638
0.00085906414
0.00080586412
0.00075185783
0.00069699434
0.00064128458
0.00058457979
0.00052729734
0.00046856801
0.00041230037
0.0003508728
0.00031495215
0.00024014203
0.00043123228
-0.0003438518
0.0055814632
0.0056320419
0.0056639519
0.0056851333
0.0056987681
0.0057021829
0.0056917574
0.0056658213
0.0056233298
0.0055628717
0.0054838176
0.005386784
0.0052733777
0.005146025
0.0050077369
0.0048617045
0.004711202
0.0045590525
0.0044077931
0.0042601714
0.0041177938
0.0039817292
0.0038531371
0.003733621
0.0036245314
0.0035265632
0.003440044
0.0033649866
0.0033009004
0.0032466178
0.0032000363
0.0031588087
0.0031207454
0.0030836154
0.0030459432
0.0030073722
0.0029680307
0.0029282333
0.0028884306
0.0028486704
0.0028087816
0.0027686932
0.0027283202
0.0026879391
0.0026478477
0.0026080385
0.0025683631
0.0025287842
0.0024894863
0.0024504507
0.0024115138
0.0023725635
0.0023337505
0.0022951366
0.0022564887
0.002217744
0.0021790585
0.0021404116
0.00210153
0.0020625118
0.0020235422
0.0019843528
0.0019448682
0.0019052298
0.0018654339
0.0018253429
0.001784747
0.001743655
0.0017021205
0.0016600301
0.0016174974
0.0015745743
0.0015311343
0.0014872469
0.001442848
0.0013978658
0.0013523405
0.001306195
0.0012594361
0.0012120347
0.0011639581
0.0011152065
0.0010657356
0.0010155482
0.00096462125
0.00091294415
0.00086049711
0.00080726171
0.00075321957
0.00069832
0.00064257388
0.0005858331
0.00052851338
0.00046974915
0.00041343564
0.00035197375
0.0003159771
0.0002410352
0.00043165194
-0.00034173859
0.0055396926
0.0055879477
0.0056203071
0.0056419638
0.005655088
0.0056578863
0.0056474324
0.0056220543
0.0055807157
0.0055222135
0.0054459558
0.0053524541
0.0052431571
0.0051202765
0.0049865896
0.0048450951
0.0046988757
0.0045506884
0.0044030162
0.0042584419
0.0041186575
0.0039848175
0.0038581122
0.0037400664
0.0036319961
0.0035346276
0.003448308
0.0033730649
0.0033084384
0.0032533257
0.003205777
0.0031635649
0.0031245858
0.0030867332
0.0030485664
0.0030096693
0.0029701177
0.002930175
0.0028902327
0.0028503434
0.0028103499
0.0027701814
0.0027297668
0.0026893509
0.0026492104
0.0026093467
0.0025696252
0.0025300091
0.002490663
0.0024515738
0.0024125898
0.0023736046
0.0023347523
0.0022960936
0.0022574111
0.0022186352
0.0021799093
0.0021412217
0.0021023327
0.0020633084
0.0020242769
0.0019849948
0.0019454443
0.0019057721
0.0018658598
0.0018255818
0.0017850142
0.0017441957
0.0017030071
0.0016612548
0.0016189869
0.0015761908
0.0015327494
0.0014888126
0.0014443747
0.0013993769
0.0013538506
0.0013077073
0.0012609493
0.0012135443
0.0011654595
0.0011166952
0.0010672074
0.001017
0.00096605045
0.00091434857
0.00086187482
0.00080861109
0.00075453918
0.00069960865
0.00064383043
0.00058705727
0.00052970314
0.00047090724
0.00041454919
0.0003530582
0.00031698232
0.00024190295
0.00043188424
-0.00033927195
0.0054986735
0.005544483
0.0055767107
0.0055985197
0.0056111642
0.0056134209
0.0056029587
0.00557816
0.0055379942
0.0054814227
0.0054079034
0.0053178566
0.0052125819
0.0050940933
0.0049649473
0.0048279532
0.0046860131
0.0045418001
0.0043977382
0.0042562706
0.0041191414
0.0039875818
0.0038628076
0.0037462783
0.003639275
0.0035425499
0.0034564704
0.0033810801
0.0033159518
0.0032600482
0.0032115629
0.0031683893
0.0031285111
0.0030899391
0.0030512708
0.0030120385
0.0029722668
0.0029321701
0.0028920842
0.0028520632
0.002811963
0.0027717132
0.0027312542
0.0026908017
0.0026506114
0.0026106924
0.0025709237
0.0025312692
0.0024918749
0.0024527323
0.0024137011
0.00237468
0.0023357868
0.0022970785
0.0022583549
0.0022195455
0.0021807814
0.0021420562
0.0021031427
0.002064086
0.0020250105
0.0019857086
0.0019461541
0.0019064448
0.0018664595
0.0018261193
0.0017855298
0.0017446183
0.0017032721
0.0016615419
0.0016194614
0.0015769226
0.0015337773
0.0014900778
0.0014457562
0.0014007699
0.0013552152
0.001309049
0.0012622855
0.0012148834
0.0011668031
0.0011180418
0.0010685528
0.00101834
0.00096738078
0.00091566549
0.00086317499
0.00080989162
0.00075579747
0.00070084249
0.00064503769
0.000588237
0.00053085249
0.00047202937
0.00041562926
0.00035411584
0.00031795845
0.00024273815
0.00043187758
-0.0003364085
0.0054582725
0.0055015771
0.0055332224
0.0055548891
0.0055670511
0.0055688267
0.0055583737
0.0055341674
0.0054951861
0.0054405196
0.0053696795
0.0052830093
0.0051816687
0.0050674887
0.0049428188
0.0048102826
0.0046726103
0.0045323787
0.0043919469
0.0042536383
0.0041192232
0.0039899977
0.003867199
0.0037522323
0.0036463444
0.0035503078
0.0034645106
0.003389014
0.0033234248
0.003266772
0.0032173836
0.0031732735
0.0031325147
0.0030932281
0.0030540528
0.0030144768
0.0029744754
0.0029342161
0.0028939831
0.0028538281
0.0028136195
0.002773287
0.0027327804
0.0026922892
0.0026520485
0.0026120739
0.0025722572
0.0025325631
0.0024931205
0.0024539245
0.0024148455
0.0023757875
0.0023368528
0.0022980943
0.0022593292
0.0022204864
0.0021816829
0.0021429141
0.0021039676
0.0020648784
0.002025766
0.0019864406
0.0019468607
0.0019071128
0.0018671011
0.0018267541
0.0017861378
0.001745167
0.0017037692
0.0016620284
0.0016198531
0.0015771828
0.0015340717
0.0014905191
0.0014464132
0.0014016838
0.0013563303
0.0013102522
0.0012634979
0.0012160798
0.0011679895
0.0011192293
0.0010697465
0.0010195403
0.00096858483
0.00091686931
0.00086437405
0.00081108165
0.0007569745
0.00070200306
0.00064617858
0.00058935647
0.00053194687
0.00047310224
0.00041666369
0.00035513586
0.00031889553
0.0002435303
0.00043159391
-0.00033309211
0.0054183803
0.0054591647
0.0054898851
0.0055111507
0.0055228035
0.0055241437
0.0055137147
0.0054901065
0.0054523139
0.0053995252
0.0053313042
0.0052479306
0.0051504347
0.0050404774
0.0049202141
0.0047920883
0.0046586655
0.0045224172
0.0043856321
0.0042505283
0.0041188825
0.0039920428
0.0038712643
0.0037579059
0.0036531818
0.00355788
0.0034724093
0.0033968492
0.0033308424
0.0032734839
0.0032232284
0.0031782095
0.0031365902
0.0030965957
0.0030569092
0.0030169818
0.0029767414
0.0029363117
0.0028959277
0.0028556367
0.0028153178
0.0027749011
0.0027343439
0.0026938119
0.0026535202
0.0026134898
0.0025736245
0.0025338897
0.0024943985
0.0024551489
0.0024160215
0.0023769256
0.0023379488
0.0022991402
0.0022603333
0.0022214563
0.0021826126
0.0021437991
0.0021048192
0.0020656982
0.0020265463
0.0019871884
0.001947578
0.0019077975
0.0018677612
0.0018273939
0.0017867453
0.0017457471
0.0017043399
0.0016625742
0.0016203499
0.0015776429
0.0015345132
0.0014908612
0.001446671
0.0014019782
0.0013567532
0.001310881
0.0012643451
0.0012170801
0.0011690494
0.0011202931
0.0010708021
0.001020595
0.00096964531
0.00091793758
0.00086544848
0.0008121586
0.00075804931
0.00070307113
0.00064723546
0.00059039948
0.00053297135
0.00047411216
0.00041763989
0.00035610689
0.00031978291
0.00024426571
0.00043100509
-0.00032925459
0.0053789068
0.0054171879
0.0054467288
0.0054673737
0.0054784752
0.0054794116
0.0054690185
0.0054460083
0.0054094012
0.0053584609
0.0052927979
0.00521264
0.0051188979
0.0050130749
0.0048971446
0.0047733768
0.0046441785
0.00451191
0.0043787843
0.0042469249
0.0041180996
0.0039936955
0.0038749812
0.0037632769
0.0036597653
0.0035652458
0.0034801471
0.0034045687
0.0033381896
0.0032801711
0.0032290869
0.0031831889
0.0031407311
0.0031000374
0.0030598371
0.0030195514
0.0029790637
0.0029384558
0.0028979171
0.0028574878
0.002817057
0.0027765545
0.0027359437
0.0026953689
0.0026550257
0.0026149394
0.0025750246
0.002535248
0.002495708
0.0024564046
0.0024172284
0.0023780933
0.0023390741
0.0023002153
0.0022613658
0.0022224536
0.0021835692
0.002144711
0.0021056974
0.0020665439
0.0020273516
0.0019879599
0.0019483196
0.0019085058
0.0018684389
0.0018280434
0.0017873648
0.0017463434
0.0017049179
0.0016631239
0.0016208766
0.0015781579
0.0015350029
0.0014913117
0.0014470987
0.0014023612
0.0013570375
0.0013111318
0.0012646405
0.0012175037
0.0011696713
0.0011210958
0.0010717075
0.0010215321
0.00097058276
0.00091887351
0.00086638827
0.0008131053
0.00075900222
0.00070402714
0.00064819
0.00059134921
0.00053391061
0.00047504513
0.00041854495
0.00035701712
0.00032060942
0.00024493255
0.00043007278
-0.00032483132
0.0053397786
0.0053755957
0.0054037735
0.0054236177
0.0054341182
0.00543467
0.0054243211
0.0054019042
0.0053664728
0.0053173485
0.0052541818
0.0051771572
0.0050870768
0.0049852973
0.0048736227
0.0047541557
0.0046291504
0.0045008527
0.0043713949
0.0042428134
0.0041168554
0.0039949342
0.0038783279
0.003768323
0.0036660728
0.0035723838
0.0034877045
0.0034121548
0.0033454509
0.0032868199
0.0032349482
0.0031882032
0.0031449307
0.0031035484
0.0030628335
0.0030221835
0.0029814408
0.0029406474
0.0028999503
0.0028593808
0.0028188361
0.0027782464
0.0027375793
0.0026969597
0.0026565644
0.002616422
0.0025764571
0.0025366376
0.0024970484
0.0024576912
0.0024184657
0.0023792904
0.0023402281
0.002301319
0.0022624261
0.0022234777
0.0021845523
0.0021456492
0.0021066009
0.0020674142
0.002028181
0.0019887554
0.0019490851
0.001909237
0.0018691381
0.0018287144
0.0017880059
0.0017469569
0.0017055056
0.0016636839
0.0016214163
0.0015786798
0.0015355007
0.0014917914
0.0014475616
0.0014027994
0.0013574457
0.001311516
0.0012649561
0.0012177496
0.0011699075
0.0011213924
0.0010721557
0.0010221568
0.00097133755
0.00091968739
0.00086721482
0.00081393112
0.00075982939
0.00070485885
0.0006490263
0.00059218916
0.00053474901
0.00047588682
0.00041936577
0.00035785448
0.00032136363
0.00024551764
0.00042873276
-0.00031975199
0.0053009355
0.0053343445
0.0053610324
0.0053799332
0.0053897818
0.0053899576
0.0053796579
0.0053578256
0.0053235541
0.0052762106
0.0052154772
0.0051415026
0.0050549907
0.0049571618
0.0048496617
0.0047344335
0.0046135838
0.0044892421
0.0043634561
0.0042381801
0.0041151315
0.003995738
0.0038812824
0.0037730219
0.0036720816
0.0035792727
0.0034950614
0.0034195893
0.0033526103
0.0032934162
0.0032408004
0.0031932429
0.0031491814
0.0031071234
0.0030658947
0.0030248759
0.0029838712
0.0029428855
0.0029020265
0.0028613149
0.0028206548
0.0027799763
0.0027392502
0.0026985838
0.0026581358
0.0026179371
0.0025779216
0.0025380582
0.0024984196
0.0024590084
0.0024197331
0.0023805166
0.0023414106
0.0023024512
0.0022635141
0.0022245285
0.0021855617
0.0021466133
0.0021075293
0.0020683086
0.0020290345
0.0019895742
0.001949873
0.0019099902
0.001869859
0.0018294069
0.001788668
0.0017475901
0.0017061126
0.0016642634
0.0016219717
0.0015792115
0.0015360076
0.0014922796
0.0014480311
0.0014032495
0.0013578796
0.0013119287
0.0012653457
0.0012181213
0.0011702302
0.0011216387
0.0010723649
0.0010223819
0.00097166025
0.00092016348
0.00086783012
0.00081462487
0.00076054789
0.00070557896
0.00064974545
0.00059291158
0.00053547431
0.0004766237
0.00042008923
0.00035860667
0.00032203409
0.00024600669
0.00042692529
-0.00031394089
0.0052623289
0.0052933976
0.0053185137
0.0053363628
0.0053455117
0.0053453123
0.0053350631
0.0053138038
0.0052806713
0.0052350698
0.0051767059
0.0051056973
0.0050226591
0.0049286862
0.0048252761
0.00471422
0.0045974826
0.0044770763
0.0043549611
0.0042330124
0.0041129103
0.0039960862
0.0038838229
0.0037773509
0.0036777692
0.0035858903
0.0035021972
0.0034268535
0.003359651
0.0032999453
0.003246631
0.003198298
0.0031534752
0.0031107565
0.0030690168
0.0030276258
0.0029863531
0.0029451691
0.0029041448
0.0028632894
0.0028225122
0.0027817436
0.0027409559
0.0027002408
0.0026597396
0.0026194845
0.0025794178
0.0025395096
0.0024998213
0.0024603561
0.0024210305
0.0023817719
0.0023426218
0.0023036118
0.0022646298
0.0022256061
0.0021865973
0.0021476033
0.0021084825
0.0020692272
0.0020299118
0.0019904159
0.0019506831
0.0019107652
0.0018706011
0.00183012
0.00178935
0.0017482429
0.0017067391
0.001664862
0.001622545
0.0015797608
0.0015365317
0.0014927816
0.0014485104
0.0014037069
0.0013583185
0.0013123486
0.0012657503
0.0012185075
0.0011705945
0.0011219853
0.0010726776
0.0010226318
0.00097185563
0.00092034301
0.00086806319
0.00081497958
0.00076103546
0.00070615561
0.00065035743
0.00059353042
0.00053609159
0.00047725209
0.00042070654
0.00035926271
0.0003226096
0.00024638478
0.00042459285
-0.00030731944
0.0052239195
0.0052527244
0.0052762226
0.0052929418
0.0053013497
0.0053007709
0.0052905702
0.0052698694
0.0052378508
0.0051939496
0.00513789
0.0050697625
0.0049901026
0.0048998888
0.004800481
0.0046935262
0.0045808519
0.0044643547
0.0043459043
0.0042272985
0.0041101751
0.0039959588
0.0038859277
0.0037812877
0.0036831128
0.0035922144
0.0035090909
0.0034339281
0.0033665555
0.0033063915
0.0032524269
0.0032033575
0.0031578033
0.0031144408
0.0030721951
0.0030304299
0.0029888845
0.0029474966
0.002906304
0.0028653032
0.0028244077
0.0027835476
0.002742696
0.0027019303
0.0026613754
0.0026210638
0.0025809454
0.0025409915
0.0025012534
0.0024617342
0.0024223581
0.0023830563
0.0023438615
0.0023048009
0.0022657734
0.0022267106
0.0021876593
0.0021486193
0.0021094608
0.0020701701
0.002030813
0.0019912808
0.0019515155
0.001911562
0.0018713643
0.0018308535
0.001790052
0.001748915
0.0017073844
0.0016654788
0.0016231361
0.0015803277
0.0015370731
0.0014933001
0.0014490057
0.0014041793
0.0013587695
0.0013127775
0.0012661595
0.0012188973
0.0011709682
0.0011223442
0.001073015
0.0010229518
0.00097214927
0.00092058293
0.00086824257
0.00081512394
0.00076119991
0.00070640969
0.00065073074
0.00059399821
0.00053660364
0.00047778611
0.00042122607
0.00035982225
0.00032308402
0.00024663804
0.00042168008
-0.00029981194
0.0051856766
0.0052123001
0.0052341624
0.0052496997
0.0052573337
0.0052563681
0.0052462111
0.0052260524
0.0051951192
0.0051528734
0.0050990519
0.00503372
0.0049573418
0.004870789
0.0047752928
0.0046723639
0.0045636984
0.0044510781
0.004336281
0.0042210281
0.0041069101
0.0039953364
0.0038875757
0.0037848099
0.0036880894
0.0035982224
0.003515721
0.0034407931
0.0033733058
0.0033127386
0.0032581738
0.0032084096
0.0031621558
0.0031181691
0.0030754242
0.0030332845
0.0029914625
0.0029498663
0.0029085027
0.0028673553
0.0028263402
0.0027853875
0.0027444699
0.0027036518
0.0026630427
0.0026226746
0.0025825043
0.0025425039
0.0025027158
0.0024631427
0.0024237156
0.0023843699
0.0023451299
0.0023060186
0.0022669449
0.0022278421
0.002188748
0.0021496616
0.0021104645
0.0020711375
0.0020317384
0.0019921689
0.0019523705
0.0019123808
0.0018721489
0.0018316076
0.0017907739
0.0017496065
0.0017080483
0.0016661137
0.0016237447
0.0015809117
0.0015376309
0.0014938346
0.001449517
0.0014046671
0.0013592353
0.0013132209
0.0012665814
0.0012192979
0.0011713485
0.001122705
0.0010733572
0.0010232796
0.00097245777
0.00092087046
0.00086850618
0.0008153418
0.00076135654
0.00070652005
0.00065083846
0.00059417064
0.00053688065
0.00047816835
0.00042164473
0.0003602988
0.0003234697
0.00024676008
0.00041814896
-0.00029135981
0.0051475763
0.005172105
0.0051923353
0.005206661
0.0052134973
0.005212137
0.0052020165
0.0051823818
0.0051525025
0.005111865
0.005060214
0.0049975918
0.004924398
0.0048414063
0.0047497284
0.0046507463
0.0045460301
0.0044372487
0.0043260878
0.004214192
0.0041031006
0.0039942006
0.003888746
0.0037878955
0.0036926762
0.0036038917
0.0035220656
0.003447428
0.003379883
0.0033189695
0.0032638568
0.0032134418
0.0031665223
0.0031219328
0.0030786981
0.0030361852
0.0029940843
0.002952276
0.002910739
0.0028694441
0.0028283085
0.0027872622
0.0027462768
0.0027054047
0.002664741
0.0026243166
0.0025840939
0.0025440465
0.0025042082
0.0024645814
0.0024251032
0.0023857127
0.0023464271
0.002307265
0.0022681445
0.0022290009
0.0021898634
0.0021507304
0.0021114937
0.0020721297
0.0020326882
0.0019930808
0.0019532483
0.0019132219
0.001872955
0.0018323824
0.0017915161
0.0017503175
0.001708731
0.0016667669
0.001624371
0.0015815127
0.0015382052
0.0014943851
0.0014500436
0.0014051699
0.0013597158
0.0013136784
0.0012670171
0.001219712
0.0011717412
0.0011230767
0.0010737081
0.0010236101
0.00097276781
0.00092116246
0.00086877971
0.00081559307
0.00076158135
0.0007067035
0.00065096476
0.0005942487
0.0005369438
0.00047828826
0.00042184084
0.00036062819
0.00032376951
0.00024674497
0.00041401452
-0.00028193573
0.0051096007
0.0051321236
0.0051507432
0.0051638463
0.0051698706
0.0051681082
0.0051580159
0.0051388855
0.0051100267
0.0050709479
0.0050213989
0.0049614
0.0048912927
0.004811761
0.0047238056
0.0046286875
0.0045278559
0.0044228701
0.0043153228
0.0042067821
0.0040987333
0.0039925338
0.0038894187
0.0037905226
0.0036968506
0.0036091993
0.0035281027
0.003453812
0.0033862677
0.0033250664
0.0032694602
0.0032184404
0.0031708915
0.0031257231
0.0030820099
0.003039127
0.002996746
0.0029547229
0.002913011
0.0028715679
0.0028303113
0.0027891706
0.0027481157
0.0027071882
0.0026664697
0.002625989
0.0025857138