/*--------------------------------*- C++ -*----------------------------------*\
  =========                 |
  \\      /  F ield         | OpenFOAM: The Open Source CFD Toolbox
   \\    /   O peration     | Website:  https://openfoam.org
    \\  /    A nd           | Version:  12
     \\/     M anipulation  |
\*---------------------------------------------------------------------------*/
FoamFile
{
    format      ascii;
    class       volVectorField;
    location    "200";
    object      U;
}
// * * * * * * * * * * * * * * * * * * * * * * * * * * * * * * * * * * * * * //

dimensions      [0 1 -1 0 0 0 0];

internalField   nonuniform List<vector> 
7480
(
(0.99633258 0.00029637406 0)
(0.9939879 0.00032269966 -2.3450962e-20)
(0.99100813 0.00048894275 0)
(0.98735266 0.0006606948 0)
(0.98293756 0.00084187492 0)
(0.97769241 0.00097143069 -1.5930696e-17)
(0.97151544 0.0010510311 -2.9626344e-19)
(0.96437882 0.0012805279 0)
(0.95622491 0.0015242004 0)
(0.94703105 0.0017603434 0)
(0.93682831 0.0019821194 0)
(0.92568755 0.002180484 0)
(0.91371301 0.0023458096 0)
(0.90103707 0.0024687394 0)
(0.88781161 0.0025469897 0)
(0.87419191 0.0025686377 0)
(0.86035005 0.0025458207 0)
(0.84639961 0.0024761656 0)
(0.83252816 0.0023612735 0)
(0.81885068 0.0022139423 0)
(0.8054911 0.0020360837 0)
(0.79258451 0.0018311901 0)
(0.78028897 0.001610222 0)
(0.76873459 0.001384741 0)
(0.75802452 0.0011604187 0)
(0.74824026 0.00094348053 0)
(0.73943347 0.00073842777 0)
(0.73162664 0.00055198693 0)
(0.72480776 0.00039160861 0)
(0.71891022 0.00026361888 0)
(0.7138147 0.00017368945 0)
(0.70936833 0.00012161916 0)
(0.70540235 0.0001012762 0)
(0.70175775 0.00010296931 0)
(0.6983133 0.00011550884 0)
(0.69499427 0.00012937432 0)
(0.69176402 0.00013871633 0)
(0.68860907 0.00014146797 0)
(0.68552246 0.00013925938 0)
(0.68249256 0.00013517151 0)
(0.67950292 0.00013163088 0)
(0.67653822 0.00012950033 0)
(0.67359138 0.00012823356 0)
(0.67066588 0.00012690611 0)
(0.66777048 0.00012495366 0)
(0.66491257 0.00012226 0)
(0.66209508 0.000119029 0)
(0.65931792 0.00011551708 0)
(0.6565807 0.00011190198 0)
(0.65388372 0.00010823346 0)
(0.65122748 0.00010452273 0)
(0.64861232 0.00010078708 0)
(0.64603837 9.708e-05 0)
(0.64350508 9.3466769e-05 0)
(0.64101148 8.9958221e-05 0)
(0.63855696 8.6542135e-05 0)
(0.63614122 8.3226772e-05 0)
(0.63376337 8.0037784e-05 0)
(0.63142227 7.6959712e-05 0)
(0.62911742 7.3981626e-05 0)
(0.62684799 7.1129434e-05 0)
(0.6246127 6.839911e-05 0)
(0.62241054 6.5778343e-05 0)
(0.62024068 6.3267821e-05 0)
(0.61810209 6.086287e-05 0)
(0.61599384 5.8553566e-05 0)
(0.61391506 5.6341061e-05 0)
(0.61186473 5.4222531e-05 0)
(0.60984196 5.218816e-05 0)
(0.60784598 5.0237039e-05 0)
(0.60587602 4.8362074e-05 0)
(0.60393152 4.6556905e-05 0)
(0.60201189 4.4824832e-05 0)
(0.60011639 4.3162464e-05 0)
(0.59824428 4.1570508e-05 0)
(0.59639462 4.0051258e-05 0)
(0.59456632 3.8601874e-05 0)
(0.59275824 3.7221561e-05 0)
(0.59096926 3.5905288e-05 0)
(0.58919832 3.4648349e-05 0)
(0.58744449 3.3446302e-05 0)
(0.58570693 3.2294574e-05 0)
(0.58398487 3.1191042e-05 0)
(0.58227752 3.0133413e-05 0)
(0.5805841 2.9121086e-05 0)
(0.57890373 2.8153773e-05 0)
(0.57723541 2.7231968e-05 0)
(0.575578 2.6356087e-05 0)
(0.57393019 2.5526274e-05 0)
(0.57229052 2.4741867e-05 0)
(0.57065756 2.4000814e-05 0)
(0.56902947 2.329976e-05 0)
(0.56740579 2.2633933e-05 0)
(0.5657827 2.1997966e-05 0)
(0.56416707 2.1380944e-05 0)
(0.56253758 2.0856146e-05 0)
(0.56094686 1.9688324e-05 0)
(0.55925489 3.3367241e-05 4.3783976e-20)
(0.55782454 2.0840202e-05 -2.1102737e-19)
(0.55535671 3.2040062e-05 -4.3549075e-18)
(0.99780024 0.00048721709 0)
(0.99769522 0.00072191617 0)
(0.99759745 0.0009198729 0)
(0.99744694 0.0010811538 -5.2105132e-19)
(0.9972432 0.0012309231 0)
(0.99699346 0.0013833285 0)
(0.99668282 0.0015647889 0)
(0.99627269 0.0017576512 0)
(0.9957138 0.0019115616 0)
(0.99495184 0.0020371758 0)
(0.99392198 0.002139337 0)
(0.99255059 0.0022157856 0)
(0.99076188 0.002265723 0)
(0.98848282 0.0022909331 0)
(0.98564876 0.0022936528 0)
(0.98220348 0.0022792393 0)
(0.9781106 0.0022518667 0)
(0.97332931 0.0022143417 0)
(0.9678594 0.0021692874 0)
(0.96168702 0.0021202536 0)
(0.95481355 0.0020701528 0)
(0.94723541 0.0020124912 0)
(0.93898553 0.001934355 0)
(0.93016685 0.0018364086 0)
(0.92087706 0.0017269191 0)
(0.91123038 0.0016065875 0)
(0.9013683 0.0014774406 0)
(0.89144529 0.0013402588 0)
(0.88162712 0.0011959606 0)
(0.87208896 0.0010458784 0)
(0.86303079 0.00089845122 0)
(0.85461207 0.00076450556 0)
(0.84690631 0.00064931104 0)
(0.83989879 0.00055760763 0)
(0.83351567 0.00049105841 0)
(0.82764604 0.00044792824 0)
(0.82217089 0.00042343299 0)
(0.8169941 0.0004103731 0)
(0.81205237 0.00040134023 0)
(0.80731006 0.00039144625 0)
(0.80274923 0.00037882382 0)
(0.79835761 0.00036363701 0)
(0.79412179 0.00034671417 0)
(0.79002558 0.00032928462 0)
(0.78605099 0.00031259347 0)
(0.78218093 0.00029728147 0)
(0.77840248 0.00028330285 0)
(0.77470876 0.00027027925 0)
(0.77109699 0.00025797114 0)
(0.76756481 0.00024625611 0)
(0.76410839 0.00023509277 0)
(0.76072328 0.00022443665 0)
(0.75740609 0.00021427173 0)
(0.75415441 0.00020460651 0)
(0.750966 0.00019538887 0)
(0.74783878 0.00018657553 0)
(0.74477082 0.00017817014 0)
(0.74176002 0.00017019172 0)
(0.73880424 0.00016259029 0)
(0.73590174 0.00015533413 0)
(0.7330509 0.00014844563 0)
(0.73024991 0.00014189332 0)
(0.72749721 0.0001356489 0)
(0.7247914 0.00012971232 0)
(0.72213084 0.0001240685 0)
(0.71951399 0.00011869321 0)
(0.71693941 0.00011358313 0)
(0.71440558 0.00010872533 0)
(0.71191106 0.00010409646 0)
(0.70945459 9.9690783e-05 0)
(0.70703491 9.5489362e-05 0)
(0.70465097 9.1475938e-05 0)
(0.7023018 8.7650964e-05 0)
(0.69998633 8.4002552e-05 0)
(0.69770349 8.0528622e-05 0)
(0.69545207 7.7229331e-05 0)
(0.69323067 7.4096479e-05 0)
(0.69103786 7.112672e-05 0)
(0.68887214 6.8309003e-05 0)
(0.68673207 6.5633377e-05 0)
(0.68461633 6.3089876e-05 0)
(0.68252368 6.0668237e-05 0)
(0.68045297 5.8362304e-05 0)
(0.67840308 5.6165488e-05 0)
(0.6763729 5.4074434e-05 0)
(0.67436126 5.2086374e-05 0)
(0.67236687 5.0200204e-05 0)
(0.67038828 4.8414921e-05 0)
(0.66842389 4.6729194e-05 0)
(0.66647189 4.5140907e-05 0)
(0.66453045 4.3646929e-05 0)
(0.66259723 4.22399e-05 0)
(0.66067127 4.0915716e-05 0)
(0.65874795 3.9653083e-05 0)
(0.65683405 3.8465488e-05 0)
(0.65490649 3.7333328e-05 0)
(0.65302106 3.637626e-05 0)
(0.6510296 3.6917276e-05 0)
(0.64932814 3.4157798e-05 0)
(0.64643767 3.635105e-05 0)
(0.9978725 0.00048973756 0)
(0.99782706 0.00068364184 0)
(0.99781469 0.00083164372 0)
(0.99778909 0.00096682029 0)
(0.99775478 0.0011169291 0)
(0.99772898 0.001288689 0)
(0.99771813 0.0014736054 0)
(0.99772154 0.0016595619 0)
(0.99774237 0.0018501104 0)
(0.99778336 0.0020506442 0)
(0.99784203 0.0022556762 0)
(0.99791311 0.0024561819 0)
(0.99798868 0.0026449314 0)
(0.99805829 0.002816122 0)
(0.9981096 0.0029657723 0)
(0.99812745 0.0030904012 0)
(0.99809496 0.0031901022 0)
(0.99799408 0.0032626312 0)
(0.99780112 0.0033050041 0)
(0.99748807 0.0033212522 0)
(0.99702158 0.003308925 0)
(0.99636304 0.0032703185 0)
(0.9954195 0.0032059211 0)
(0.99405593 0.003117875 0)
(0.99215999 0.0030070158 0)
(0.98961632 0.0028760855 0)
(0.98630185 0.0027285824 0)
(0.98209668 0.0025693279 0)
(0.9768924 0.0024049121 0)
(0.97061169 0.0022438462 0)
(0.96320734 0.0020772662 0)
(0.95482862 0.0019029733 0)
(0.94570046 0.0017340197 0)
(0.93614719 0.0015720527 0)
(0.92652286 0.0014164711 0)
(0.91715786 0.0012654076 0)
(0.90831992 0.0011218149 0)
(0.90017747 0.00099465094 0)
(0.89275049 0.00089007498 0)
(0.88595626 0.00080956743 0)
(0.87967003 0.00075133594 0)
(0.87376709 0.00071065118 0)
(0.86815586 0.0006803657 0)
(0.86278309 0.0006536644 0)
(0.85762199 0.00062641386 0)
(0.85265729 0.00059775227 0)
(0.84787503 0.00056837819 0)
(0.84325967 0.00053928335 0)
(0.83879455 0.00051147933 0)
(0.83446346 0.00048550679 0)
(0.83025273 0.00046136568 0)
(0.82615261 0.00043873133 0)
(0.82215683 0.00041737262 0)
(0.81826013 0.00039722416 0)
(0.81445676 0.00037817578 0)
(0.81074112 0.00036012498 0)
(0.80710866 0.00034302712 0)
(0.80355546 0.00032686256 0)
(0.80007794 0.00031152475 0)
(0.79667291 0.00029695294 0)
(0.79333739 0.00028316566 0)
(0.79006839 0.00027009316 0)
(0.78686339 0.00025767508 0)
(0.78372007 0.0002458987 0)
(0.780636 0.0002347312 0)
(0.77760891 0.0002241256 0)
(0.7746367 0.00021406609 0)
(0.77171725 0.00020452379 0)
(0.76884859 0.00019545501 0)
(0.76602886 0.00018684234 0)
(0.76325629 0.00017864933 0)
(0.76052935 0.00017084412 0)
(0.75784659 0.00016342019 0)
(0.75520659 0.00015635413 0)
(0.75260796 0.00014963794 0)
(0.75004921 0.00014326766 0)
(0.74752869 0.0001372276 0)
(0.74504472 0.00013150893 0)
(0.7425955 0.00012609141 0)
(0.74017928 0.00012095607 0)
(0.73779437 0.00011608373 0)
(0.73543918 0.00011145491 0)
(0.73311221 0.00010705637 0)
(0.730812 0.00010287484 0)
(0.72853714 9.8902248e-05 0)
(0.72628615 9.5132007e-05 0)
(0.72405748 9.1560522e-05 0)
(0.72184941 8.8184702e-05 0)
(0.71966005 8.5001473e-05 0)
(0.71748725 8.200605e-05 0)
(0.71532883 7.919357e-05 0)
(0.71318198 7.6548146e-05 0)
(0.7110452 7.4069946e-05 0)
(0.7089133 7.1697238e-05 0)
(0.70679257 6.9510136e-05 0)
(0.70465959 6.7305407e-05 0)
(0.70257092 6.5577779e-05 0)
(0.70037757 6.3220856e-05 0)
(0.69849365 6.4588478e-05 0)
(0.69532636 5.8765615e-05 -2.1781119e-20)
(0.99791939 0.00050500249 0)
(0.99787071 0.00068903526 0)
(0.99785948 0.0008466546 0)
(0.99784565 0.0009976462 0)
(0.99782824 0.0011580784 0)
(0.99782051 0.0013289417 0)
(0.99782916 0.001504987 0)
(0.99785598 0.0016861256 0)
(0.99790433 0.0018730552 0)
(0.99797643 0.0020579576 0)
(0.99807172 0.0022329161 0)
(0.9981885 0.0023914513 0)
(0.99832349 0.0025292335 0)
(0.99847207 0.0026435131 0)
(0.99862922 0.0027331631 0)
(0.99878954 0.0027973483 0)
(0.99894853 0.0028388469 0)
(0.99910318 0.0028589615 0)
(0.99924893 0.0028594928 0)
(0.99938071 0.00284567 0)
(0.99949604 0.0028223818 0)
(0.99959247 0.0027905974 0)
(0.99966526 0.0027515839 0)
(0.9997067 0.0027073231 0)
(0.99970739 0.0026603895 0)
(0.99965572 0.0026127701 0)
(0.99953495 0.0025663633 0)
(0.99932237 0.0025226869 0)
(0.99898621 0.0024821756 0)
(0.99847729 0.0024434117 0)
(0.99771884 0.0024054434 0)
(0.9965052 0.0023654303 0)
(0.99464427 0.0023173071 0)
(0.99193211 0.0022566995 0)
(0.98818349 0.0021817587 0)
(0.98326773 0.002096582 0)
(0.97712282 0.0019980168 0)
(0.9698757 0.0018796605 0)
(0.96182298 0.0017486396 0)
(0.95333561 0.0016130105 0)
(0.94479383 0.0014764481 0)
(0.93652138 0.0013425592 0)
(0.92874517 0.0012200109 0)
(0.92153692 0.0011153955 0)
(0.91485205 0.0010298457 0)
(0.90859097 0.00096215437 0)
(0.90265282 0.00090849513 0)
(0.89696885 0.00086313221 0)
(0.89150321 0.0008212954 0)
(0.88623916 0.00078066805 0)
(0.88116455 0.00074094328 0)
(0.87626571 0.00070250233 0)
(0.87152736 0.00066595281 0)
(0.8669343 0.00063173092 0)
(0.86247341 0.00059976451 0)
(0.85813484 0.0005697533 0)
(0.85391136 0.00054150534 0)
(0.84979639 0.00051493441 0)
(0.84578339 0.00048986502 0)
(0.84186662 0.00046617446 0)
(0.83804108 0.00044383508 0)
(0.83430216 0.00042271655 0)
(0.83064584 0.00040271675 0)
(0.82706841 0.00038379928 0)
(0.82356627 0.00036590112 0)
(0.82013617 0.00034894172 0)
(0.81677515 0.00033288439 0)
(0.81348028 0.00031767844 0)
(0.81024887 0.00030325499 0)
(0.8070784 0.00028957958 0)
(0.80396644 0.00027659407 0)
(0.80091085 0.00026424626 0)
(0.79790964 0.00025251716 0)
(0.7949609 0.00024136789 0)
(0.79206285 0.00023078057 0)
(0.78921365 0.00022074427 0)
(0.7864114 0.00021123441 0)
(0.78365411 0.00020223543 0)
(0.78093971 0.00019371744 0)
(0.77826613 0.00018565152 0)
(0.77563135 0.0001780081 0)
(0.77303339 0.00017075705 0)
(0.77047038 0.00016387615 0)
(0.76794053 0.00015734371 0)
(0.76544205 0.00015114516 0)
(0.76297315 0.00014526868 0)
(0.76053198 0.00013970706 0)
(0.75811651 0.00013445445 0)
(0.75572454 0.00012950578 0)
(0.75335359 0.00012485375 0)
(0.75100106 0.00012049269 0)
(0.74866372 0.00011639732 0)
(0.74633954 0.00011257492 0)
(0.74402293 0.00010891208 0)
(0.74171971 0.00010557502 0)
(0.73940694 0.00010209918 0)
(0.73714135 9.9539381e-05 0)
(0.73477572 9.535672e-05 0)
(0.73273832 0.00010056297 0)
(0.72934196 8.4839216e-05 1.7725227e-20)
(0.99796879 0.00052579225 0)
(0.99791534 0.00069908076 0)
(0.99789713 0.00085437215 0)
(0.99788159 0.0010017872 0)
(0.99786581 0.0011555901 0)
(0.99786059 0.0013190291 0)
(0.99787221 0.0014899244 0)
(0.99790238 0.0016673355 0)
(0.99795359 0.0018486307 0)
(0.99802798 0.0020274751 0)
(0.99812565 0.0021995667 0)
(0.99824532 0.0023605102 0)
(0.99838405 0.0025062045 0)
(0.99853772 0.0026334572 0)
(0.998702 0.0027404681 0)
(0.99887194 0.0028260705 0)
(0.99904319 0.002891614 0)
(0.99921286 0.002937328 0)
(0.99937719 0.0029631367 0)
(0.99953319 0.0029734129 0)
(0.99967969 0.0029674469 0)
(0.99981619 0.0029480614 0)
(0.9999411 0.0029146769 0)
(1.0000519 0.002868963 0)
(1.000147 0.0028133982 0)
(1.000225 0.0027506715 0)
(1.0002837 0.0026831862 0)
(1.0003214 0.0026135715 0)
(1.0003363 0.0025449292 0)
(1.0003271 0.002480926 0)
(1.0002926 0.0024244685 0)
(1.0002268 0.0023773499 0)
(1.0001192 0.0023407214 0)
(0.9999515 0.0023140477 0)
(0.99969545 0.0022952865 0)
(0.99930181 0.0022795573 0)
(0.99869928 0.0022611905 0)
(0.99770055 0.0022356885 0)
(0.99606871 0.0021983222 0)
(0.99357794 0.002146015 0)
(0.99003803 0.002079756 0)
(0.98533372 0.0020010218 0)
(0.97948713 0.0019032721 0)
(0.97274723 0.0017889159 0)
(0.96544933 0.0016678561 0)
(0.95795656 0.0015440027 0)
(0.9505886 0.0014232702 0)
(0.94355418 0.0013135829 0)
(0.93691732 0.0012183589 0)
(0.93064714 0.0011380666 0)
(0.92467391 0.0010710505 0)
(0.91893803 0.001013401 0)
(0.91340542 0.0009611334 0)
(0.90806066 0.00091182466 0)
(0.90289409 0.00086468044 0)
(0.89789502 0.00081968001 0)
(0.89305096 0.00077716016 0)
(0.88834915 0.00073733901 0)
(0.88377864 0.00070000546 0)
(0.87933121 0.00066489687 0)
(0.87500007 0.00063191323 0)
(0.87077861 0.00060085302 0)
(0.8666607 0.00057155417 0)
(0.86264088 0.00054393136 0)
(0.8587142 0.00051786729 0)
(0.85487624 0.00049323277 0)
(0.85112295 0.0004699591 0)
(0.84745043 0.00044796307 0)
(0.84385513 0.00042714139 0)
(0.84033375 0.00040743522 0)
(0.83688311 0.00038875874 0)
(0.83350039 0.00037103335 0)
(0.83018294 0.00035422128 0)
(0.8269283 0.00033826233 0)
(0.8237342 0.00032312326 0)
(0.82059842 0.00030878169 0)
(0.81751871 0.00029520105 0)
(0.8144928 0.00028235685 0)
(0.81151831 0.00027020819 0)
(0.80859288 0.00025871509 0)
(0.80571412 0.00024783632 0)
(0.8028797 0.00023752959 0)
(0.80008739 0.00022776186 0)
(0.797335 0.00021850109 0)
(0.79462039 0.00020972427 0)
(0.79194142 0.00020141253 0)
(0.7892959 0.00019355353 0)
(0.78668148 0.00018613751 0)
(0.78409564 0.00017915686 0)
(0.78153552 0.00017260141 0)
(0.77899816 0.00016646459 0)
(0.7764799 0.00016071112 0)
(0.77397826 0.00015535522 0)
(0.77148736 0.00015022523 0)
(0.76901271 0.00014557618 0)
(0.76653214 0.00014064369 0)
(0.76410263 0.00013714593 0)
(0.76157888 0.00013072662 2.1029363e-20)
(0.75940311 0.00014045434 0)
(0.75579924 0.00011270725 0)
(0.99801713 0.00054646901 0)
(0.99796165 0.00070942105 0)
(0.99793786 0.00086095629 0)
(0.99791994 0.0010060813 0)
(0.99790418 0.0011574165 0)
(0.99789916 0.0013182053 0)
(0.99791054 0.0014862042 0)
(0.99794007 0.001659557 0)
(0.99798997 0.0018358902 0)
(0.99806237 0.0020105031 0)
(0.99815756 0.0021791562 0)
(0.99827429 0.0023370101 0)
(0.99840985 0.0024795623 0)
(0.99856042 0.0026034638 0)
(0.99872184 0.0027068075 0)
(0.9988897 0.0027884357 0)
(0.99905997 0.0028492925 0)
(0.99922975 0.0028897934 0)
(0.99939551 0.0029104299 0)
(0.99955442 0.0029144749 0)
(0.99970538 0.0029042946 0)
(0.99984771 0.0028808371 0)
(0.99998012 0.0028452267 0)
(1.0001007 0.0027995327 0)
(1.0002077 0.0027461851 0)
(1.0003004 0.0026874137 0)
(1.0003786 0.002625765 0)
(1.0004422 0.0025638697 0)
(1.0004915 0.0025045805 0)
(1.0005276 0.0024510828 0)
(1.0005527 0.0024047915 0)
(1.0005683 0.002366052 0)
(1.0005761 0.0023348093 0)
(1.0005765 0.0023093454 0)
(1.000568 0.0022869956 0)
(1.0005468 0.002265919 0)
(1.0005074 0.0022457433 0)
(1.0004395 0.0022267208 0)
(1.0003238 0.0022095451 0)
(1.000133 0.0021946281 0)
(0.99982602 0.0021811166 0)
(0.99933782 0.0021655369 0)
(0.9985325 0.0021445999 0)
(0.99717583 0.0021142286 0)
(0.99504332 0.0020703306 0)
(0.99194402 0.0020137846 0)
(0.98775234 0.0019413903 0)
(0.9825353 0.0018496973 0)
(0.97652743 0.001745793 0)
(0.97004053 0.0016360504 0)
(0.96339923 0.0015253303 0)
(0.95686318 0.0014207667 0)
(0.9505621 0.001326522 0)
(0.94452151 0.0012438267 0)
(0.938711 0.0011721152 0)
(0.93309388 0.0011087658 0)
(0.92764831 0.0010508792 0)
(0.92236517 0.00099662071 0)
(0.91723893 0.00094515734 0)
(0.91226249 0.00089635633 0)
(0.90742661 0.00085045201 0)
(0.90272177 0.00080735843 0)
(0.8981402 0.00076684063 0)
(0.89367557 0.00072873658 0)
(0.889322 0.0006928695 0)
(0.88507388 0.00065905748 0)
(0.88092606 0.00062718677 0)
(0.87687378 0.00059712663 0)
(0.8729127 0.00056872862 0)
(0.86903876 0.00054190194 0)
(0.86524807 0.00051652526 0)
(0.86153709 0.00049248598 0)
(0.85790258 0.00046972062 0)
(0.85434146 0.00044814105 0)
(0.85085098 0.00042769232 0)
(0.84742848 0.00040833513 0)
(0.84407139 0.00039001675 0)
(0.84077713 0.0003727007 0)
(0.83754303 0.00035633305 0)
(0.83436645 0.00034086124 0)
(0.83124468 0.00032623101 0)
(0.82817506 0.00031238641 0)
(0.82515498 0.00029928184 0)
(0.82218189 0.00028687301 0)
(0.81925329 0.00027512643 0)
(0.81636669 0.00026401428 0)
(0.81351954 0.00025351741 0)
(0.81070917 0.00024362073 0)
(0.80793272 0.0002343131 0)
(0.805187 0.00022558076 0)
(0.80246865 0.00021741566 0)
(0.79977367 0.00020977129 0)
(0.79709917 0.00020266709 0)
(0.79443909 0.0001958672 0)
(0.79179875 0.00018971306 0)
(0.78915683 0.00018311397 0)
(0.78657063 0.00017850557 0)
(0.78389599 0.000169265 0)
(0.78158995 0.00018431532 4.6915317e-20)
(0.77778662 0.00014258139 0)
(0.99806382 0.00056775796 0)
(0.99800784 0.00072110672 0)
(0.99798017 0.00086854441 0)
(0.99796063 0.0010115355 0)
(0.99794519 0.0011602423 0)
(0.99794042 0.0013175026 0)
(0.99795134 0.0014813028 0)
(0.9979798 0.0016498576 0)
(0.99802784 0.0018211683 0)
(0.99809744 0.0019910964 0)
(0.998189 0.0021553016 0)
(0.99830146 0.0023092124 0)
(0.9984324 0.0024486932 0)
(0.99857836 0.0025706246 0)
(0.99873542 0.0026731346 0)
(0.99889941 0.0027550966 0)
(0.99906649 0.0028171207 0)
(0.99923371 0.002859708 0)
(0.99939773 0.0028833288 0)
(0.99955578 0.0028908938 0)
(0.99970661 0.0028842356 0)
(0.9998494 0.0028647458 0)
(0.99998285 0.0028332384 0)
(1.0001052 0.0027914252 0)
(1.0002151 0.0027415756 0)
(1.0003119 0.0026859599 0)
(1.0003953 0.0026270014 0)
(1.0004654 0.0025672617 0)
(1.0005225 0.0025094053 0)
(1.0005683 0.0024561696 0)
(1.0006052 0.0024091268 0)
(1.0006356 0.002369007 0)
(1.0006619 0.0023361031 0)
(1.0006862 0.0023091977 0)
(1.0007094 0.002286377 0)
(1.0007308 0.0022663206 0)
(1.0007494 0.0022479888 0)
(1.0007635 0.0022304752 0)
(1.0007705 0.0022136025 0)
(1.0007672 0.0021972142 0)
(1.0007495 0.0021807957 0)
(1.0007113 0.0021644021 0)
(1.0006431 0.0021481298 0)
(1.0005238 0.0021319696 0)
(1.0003226 0.0021161491 0)
(0.99999148 0.0020997759 0)
(0.99945944 0.0020811007 0)
(0.99855376 0.0020575228 0)
(0.99705822 0.002024718 0)
(0.99476719 0.0019804818 0)
(0.99151625 0.0019224739 0)
(0.98727265 0.0018464541 0)
(0.98219248 0.0017563305 0)
(0.97652771 0.0016587797 0)
(0.97057455 0.0015589128 0)
(0.96458639 0.001462973 0)
(0.95870931 0.0013743113 0)
(0.95299304 0.0012944867 0)
(0.94743437 0.0012232538 0)
(0.94201878 0.0011587392 0)
(0.93673888 0.0010990185 0)
(0.93159334 0.001042844 0)
(0.92658092 0.00098966308 0)
(0.92169749 0.00093946364 0)
(0.91693696 0.00089221365 0)
(0.91229358 0.00084773082 0)
(0.90776249 0.00080585166 0)
(0.90333908 0.00076640079 0)
(0.89901879 0.00072919008 0)
(0.89479719 0.00069409369 0)
(0.89067006 0.00066094789 0)
(0.88663349 0.00062960037 0)
(0.88268382 0.00059995662 0)
(0.87881755 0.0005718941 0)
(0.87503153 0.00054532959 0)
(0.87132281 0.00052020109 0)
(0.8676885 0.00049643493 0)
(0.86412581 0.00047397911 0)
(0.86063188 0.00045276424 0)
(0.85720381 0.00043272346 0)
(0.85383868 0.00041378819 0)
(0.85053354 0.00039588746 0)
(0.84728548 0.00037896159 0)
(0.84409162 0.00036295229 0)
(0.84094912 0.00034781374 0)
(0.83785516 0.00033350727 0)
(0.83480686 0.0003200051 0)
(0.83180123 0.00030728531 0)
(0.82883509 0.00029533196 0)
(0.82590494 0.00028412672 0)
(0.82300709 0.00027365903 0)
(0.8201372 0.00026386963 0)
(0.8172921 0.00025478075 0)
(0.81446559 0.00024608666 0)
(0.81166284 0.00023821178 0)
(0.80886328 0.00022971656 0)
(0.80612454 0.00022379745 0)
(0.80330257 0.00021129441 0)
(0.80087009 0.00023232405 4.4052316e-20)
(0.79686768 0.00017482516 0)
(0.998109 0.00058923811 0)
(0.99805347 0.0007337916 0)
(0.99802307 0.00087678853 0)
(0.99800237 0.0010172475 0)
(0.99798744 0.0011629518 0)
(0.99798318 0.001316468 0)
(0.99799398 0.0014761306 0)
(0.99802171 0.0016402052 0)
(0.99806817 0.0018067502 0)
(0.99813517 0.0019720038 0)
(0.99822317 0.0021318232 0)
(0.99833127 0.0022820038 0)
(0.99845734 0.0024186774 0)
(0.99859825 0.002538805 0)
(0.99875035 0.0026404592 0)
(0.99890975 0.0027224814 0)
(0.99907277 0.0027851826 0)
(0.99923647 0.0028290169 0)
(0.99939768 0.0028544579 0)
(0.99955367 0.0028639817 0)
(0.99970305 0.0028592882 0)
(0.99984488 0.0028417867 0)
(0.99997783 0.002812346 0)
(1.0001002 0.0027726462 0)
(1.0002108 0.0027249216 0)
(1.0003089 0.0026714182 0)
(1.0003942 0.0026144839 0)
(1.0004667 0.0025565997 0)
(1.0005271 0.0025003684 0)
(1.0005768 0.002448473 0)
(1.0006183 0.0024025614 0)
(1.0006539 0.0023634239 0)
(1.0006861 0.0023312844 0)
(1.0007173 0.0023050204 0)
(1.0007486 0.0022828637 0)
(1.0007801 0.0022633364 0)
(1.0008114 0.0022452348 0)
(1.0008416 0.002227747 0)
(1.0008698 0.0022108566 0)
(1.0008954 0.0021945818 0)
(1.0009177 0.0021788297 0)
(1.0009355 0.0021636248 0)
(1.0009476 0.0021484833 0)
(1.0009509 0.0021331332 0)
(1.0009415 0.0021176505 0)
(1.0009132 0.0021020745 0)
(1.0008591 0.0020864832 0)
(1.0007634 0.0020706787 0)
(1.0005984 0.0020545569 0)
(1.0003226 0.002037788 0)
(0.99987367 0.0020193088 0)
(0.99912035 0.0019974539 0)
(0.99786292 0.0019687297 0)
(0.99590459 0.0019304057 0)
(0.99307328 0.0018785621 0)
(0.98932796 0.0018098708 0)
(0.98478519 0.001728686 0)
(0.97966408 0.0016400947 0)
(0.97423176 0.001549735 0)
(0.96870834 0.0014625456 0)
(0.96322406 0.0013807538 0)
(0.95782932 0.0013058248 0)
(0.95253431 0.0012374169 0)
(0.94734067 0.0011742522 0)
(0.94225259 0.0011150553 0)
(0.93727463 0.0010590826 0)
(0.93240814 0.0010061545 0)
(0.92765123 0.00095620637 0)
(0.92300105 0.00090908574 0)
(0.91845479 0.00086464864 0)
(0.9140094 0.0008227015 0)
(0.90966163 0.0007830649 0)
(0.90540812 0.00074561715 0)
(0.9012456 0.00071019928 0)
(0.897171 0.00067669726 0)
(0.89318139 0.00064502301 0)
(0.8892739 0.00061507797 0)
(0.88544573 0.00058679151 0)
(0.88169402 0.00056007649 0)
(0.87801584 0.00053485042 0)
(0.87440819 0.0005110294 0)
(0.87086798 0.00048852659 0)
(0.86739212 0.00046726722 0)
(0.86397751 0.00044717773 0)
(0.86062105 0.00042819842 0)
(0.85731964 0.00041027809 0)
(0.85407014 0.00039337863 0)
(0.85086928 0.00037746975 0)
(0.84771361 0.00036252929 0)
(0.84459937 0.00034853313 0)
(0.8415226 0.00033546704 0)
(0.83847872 0.00032325727 0)
(0.83546428 0.00031192632 0)
(0.83247301 0.00030109363 0)
(0.82950993 0.00029126359 0)
(0.82655502 0.00028062805 0)
(0.8236661 0.00027319026 0)
(0.82069814 0.00025701197 -8.605732e-21)
(0.81814039 0.0002846605 0)
(0.81393482 0.00020966992 -6.5491408e-21)
(0.99815285 0.00061069079 0)
(0.99809846 0.00074724614 0)
(0.99806624 0.00088553694 0)
(0.99804468 0.0010230904 0)
(0.99803025 0.001165611 0)
(0.99802657 0.0013153582 0)
(0.99803742 0.0014709286 0)
(0.99806461 0.0016305864 0)
(0.99810977 0.0017924156 0)
(0.99817449 0.0019530336 0)
(0.99825927 0.0021085584 0)
(0.99836332 0.0022550584 0)
(0.99848473 0.0023888684 0)
(0.99862065 0.0025070366 0)
(0.99876772 0.0026076213 0)
(0.99892231 0.0026894516 0)
(0.99908093 0.0027526091 0)
(0.99924066 0.0027974857 0)
(0.99939851 0.002824558 0)
(0.99955183 0.0028359174 0)
(0.99969911 0.0028332284 0)
(0.99983929 0.0028178459 0)
(0.99997106 0.002790715 0)
(1.0000928 0.0027534521 0)
(1.0002032 0.0027081951 0)
(1.0003017 0.0026571236 0)
(1.0003878 0.0026025164 0)
(1.0004616 0.0025467935 0)
(1.0005238 0.0024924795 0)
(1.0005757 0.0024421359 0)
(1.0006196 0.0023973978 0)
(1.0006579 0.0023590424 0)
(1.0006931 0.0023272962 0)
(1.0007272 0.0023011859 0)
(1.0007618 0.0022790586 0)
(1.000797 0.0022594951 0)
(1.0008326 0.0022414025 0)
(1.000868 0.0022240751 0)
(1.0009027 0.0022074764 0)
(1.0009365 0.002191612 0)
(1.0009692 0.002176348 0)
(1.0010005 0.0021615364 0)
(1.0010301 0.0021467006 0)
(1.001057 0.0021316599 0)
(1.0010802 0.002116531 0)
(1.0010985 0.0021014507 0)
(1.0011105 0.0020864298 0)
(1.001114 0.0020712878 0)
(1.0011049 0.0020561279 0)
(1.0010772 0.002041069 0)
(1.0010231 0.002026134 0)
(1.0009284 0.0020110035 0)
(1.0007651 0.0019952234 0)
(1.0004913 0.0019783522 0)
(1.0000447 0.0019597981 0)
(0.99929137 0.0019381354 0)
(0.99804795 0.0019100653 0)
(0.99612919 0.0018730738 0)
(0.99337841 0.0018216501 0)
(0.98979512 0.0017550099 0)
(0.9854937 0.0016787123 0)
(0.98068704 0.0015970014 0)
(0.97560972 0.0015147273 0)
(0.97043917 0.0014349455 0)
(0.96527377 0.0013598598 0)
(0.96015432 0.0012902237 0)
(0.95509735 0.00122557 0)
(0.95011481 0.0011649036 0)
(0.94521722 0.0011075039 0)
(0.94041101 0.0010531357 0)
(0.93569843 0.0010016765 0)
(0.93107972 0.00095299201 0)
(0.92655434 0.0009069635 0)
(0.92212107 0.00086341495 0)
(0.91777827 0.00082221717 0)
(0.91352401 0.00078326325 0)
(0.90935622 0.00074643214 0)
(0.90527275 0.00071163619 0)
(0.9012712 0.00067877134 0)
(0.89734905 0.00064773984 0)
(0.89350356 0.00061844294 0)
(0.8897318 0.00059077837 0)
(0.88603076 0.00056465641 0)
(0.88239731 0.00053998792 0)
(0.87882829 0.00051669861 0)
(0.87532045 0.00049472369 0)
(0.8718705 0.00047401345 0)
(0.86847501 0.00045452784 0)
(0.86513034 0.00043623722 0)
(0.86183255 0.00041911046 0)
(0.8585775 0.00040312839 0)
(0.85536045 0.00038820123 0)
(0.85217777 0.00037434958 0)
(0.84902313 0.00036111418 0)
(0.84590133 0.00034907755 0)
(0.84279266 0.00033604604 0)
(0.83975492 0.00032687924 0)
(0.83664108 0.00030660948 0)
(0.83395764 0.00034156098 4.1848778e-20)
(0.82954244 0.00024733841 0)
(0.99819557 0.0006319632 0)
(0.9981428 0.00076126538 0)
(0.99810954 0.0008947148 0)
(0.99808738 0.0010290641 0)
(0.99807342 0.001168258 0)
(0.99807029 0.001314176 0)
(0.99808119 0.0014656165 0)
(0.99810789 0.0016208658 0)
(0.99815185 0.0017780468 0)
(0.99821448 0.0019341026 0)
(0.99829628 0.0020853999 0)
(0.99839655 0.00222824 0)
(0.99851358 0.0023591585 0)
(0.99864475 0.0024753107 0)
(0.99878695 0.0025747568 0)
(0.99893679 0.0026563087 0)
(0.99909097 0.0027198582 0)
(0.99924661 0.0027657186 0)
(0.99940088 0.002794352 0)
(0.99955121 0.0028075321 0)
(0.99969603 0.0028068499 0)
(0.99983418 0.0027936021 0)
(0.99996435 0.0027687884 0)
(1.000085 0.0027339556 0)
(1.0001948 0.0026911463 0)
(1.0002931 0.002642481 0)
(1.0003796 0.002590177 0)
(1.0004542 0.0025365886 0)
(1.0005176 0.0024841538 0)
(1.000571 0.0024353117 0)
(1.0006166 0.0023916844 0)
(1.0006567 0.0023540674 0)
(1.0006936 0.0023227046 0)
(1.0007295 0.0022967493 0)
(1.0007658 0.0022746838 0)
(1.0008027 0.0022551725 0)
(1.0008402 0.0022371882 0)
(1.0008778 0.0022200408 0)
(1.0009152 0.002203634 0)
(1.0009522 0.0021879498 0)
(1.0009887 0.00217284 0)
(1.0010249 0.0021581553 0)
(1.0010604 0.0021435035 0)
(1.0010948 0.0021287283 0)
(1.0011277 0.0021139537 0)
(1.0011587 0.0020993023 0)
(1.0011873 0.002084732 0)
(1.001213 0.0020700902 0)
(1.0012347 0.0020554669 0)
(1.0012512 0.0020409472 0)
(1.0012607 0.0020264989 0)
(1.001261 0.002011927 0)
(1.0012476 0.0019972563 0)
(1.0012136 0.0019827339 0)
(1.0011503 0.0019683341 0)
(1.0010403 0.0019536083 0)
(1.0008526 0.0019380071 0)
(1.0005397 0.001920891 0)
(1.000027 0.0019019797 0)
(0.99915938 0.0018793969 0)
(0.99776579 0.0018500857 0)
(0.99566962 0.0018095234 0)
(0.99278371 0.0017548042 0)
(0.9891436 0.0016887948 0)
(0.98489768 0.0016155183 0)
(0.98025851 0.0015392749 0)
(0.97541821 0.001463308 0)
(0.97050451 0.0013901645 0)
(0.96558304 0.0013212351 0)
(0.96068544 0.0012566633 0)
(0.95583224 0.0011957835 0)
(0.95103962 0.0011380159 0)
(0.94631834 0.0010831559 0)
(0.9416743 0.0010310787 0)
(0.9371108 0.00098169899 0)
(0.93262971 0.00093492466 0)
(0.92823189 0.00089063642 0)
(0.92391731 0.00084874791 0)
(0.91968527 0.00080914985 0)
(0.91553457 0.00077173741 0)
(0.91146348 0.00073640297 0)
(0.90746989 0.00070303313 0)
(0.90355134 0.00067152626 0)
(0.8997051 0.00064177955 0)
(0.89592826 0.00061370523 0)
(0.89221774 0.00058722518 0)
(0.88857031 0.00056227788 0)
(0.88498255 0.00053881291 0)
(0.88145082 0.00051679233 0)
(0.87797116 0.00049617719 0)
(0.87453938 0.0004769424 0)
(0.87115068 0.00045898114 0)
(0.86780134 0.00044231066 0)
(0.86448499 0.00042639067 0)
(0.86120618 0.00041188168 0)
(0.85794523 0.00039619053 0)
(0.85475968 0.00038508586 0)
(0.85149956 0.00036030866 0)
(0.84868928 0.00040332709 0)
(0.84405713 0.00028807626 0)
(0.99823733 0.00065293489 0)
(0.99818654 0.00077566386 0)
(0.99815286 0.00090424443 0)
(0.99813038 0.001035144 0)
(0.99811687 0.0011708765 0)
(0.99811423 0.0013129033 0)
(0.99812515 0.0014601817 0)
(0.99815133 0.0016110433 0)
(0.99819411 0.001763647 0)
(0.99825473 0.0019152021 0)
(0.99833367 0.0020623196 0)
(0.99843034 0.002201523 0)
(0.99854317 0.0023295433 0)
(0.99866979 0.0024436455 0)
(0.99880729 0.0025418976 0)
(0.99895251 0.0026230909 0)
(0.9991023 0.0026869612 0)
(0.99925389 0.0027337325 0)
(0.99940453 0.0027638386 0)
(0.99955178 0.0027787846 0)
(0.99969397 0.0027800639 0)
(0.9998299 0.0027689225 0)
(0.99995825 0.0027463938 0)
(1.0000775 0.0027139639 0)
(1.0001865 0.0026735861 0)
(1.0002844 0.0026273205 0)
(1.0003709 0.0025773209 0)
(1.000446 0.0025258707 0)
(1.0005102 0.0024753224 0)
(1.0005647 0.0024280029 0)
(1.0006117 0.002385518 0)
(1.0006531 0.0023486819 0)
(1.0006914 0.0023177522 0)
(1.0007285 0.0022919951 0)
(1.0007658 0.0022700263 0)
(1.0008038 0.0022505868 0)