/*--------------------------------*- C++ -*----------------------------------*\
  =========                 |
  \\      /  F ield         | OpenFOAM: The Open Source CFD Toolbox
   \\    /   O peration     | Website:  https://openfoam.org
    \\  /    A nd           | Version:  12
     \\/     M anipulation  |
\*---------------------------------------------------------------------------*/
FoamFile
{
    format      ascii;
    class       volVectorField;
    location    "200";
    object      wallShearStress;
}
// * * * * * * * * * * * * * * * * * * * * * * * * * * * * * * * * * * * * * //

dimensions      [0 2 -2 0 0 0 0];

internalField   uniform (0 0 0);

boundaryField
{
    inlet
    {
        type            calculated;
        value           uniform (0 0 0);
    }
    top
    {
        type            calculated;
        value           uniform (0 0 0);
    }
    outlet
    {
        type            calculated;
        value           uniform (0 0 0);
    }
    slipsurface
    {
        type            calculated;
        value           uniform (0 0 0);
    }
    bottom
    {
        type            calculated;
        value           nonuniform List<vector> 
100
(
(-0.00060951462 -3.3673387e-07 3.6201949e-22)
(-0.00070741569 -4.6266887e-07 1.6689721e-23)
(-0.00082573516 -7.6470754e-07 0)
(-0.00095927511 -1.1606981e-06 3.5743046e-21)
(-0.0011062777 -1.6734752e-06 3.977902e-20)
(-0.0012644965 -2.2158854e-06 -4.2148363e-20)
(-0.0014303388 -2.7593271e-06 4.361742e-22)
(-0.0015988904 -3.7042432e-06 1.28844e-19)
(-0.00176409 -4.8192108e-06 0)
(-0.0019193374 -6.0321485e-06 3.7704597e-19)
(-0.0020581113 -7.2819623e-06 0)
(-0.0021751711 -8.4905601e-06 -6.0786845e-19)
(-0.0022670855 -9.5731497e-06 0)
(-0.0023325002 -1.0449232e-05 1.1968928e-18)
(-0.0023719765 -1.1074413e-05 -3.675417e-23)
(-0.0023879445 -1.138635e-05 1.377386e-18)
(-0.0023824291 -1.1421438e-05 -1.1808494e-24)
(-0.0023660795 -1.1211912e-05 0)
(-0.0023269718 -1.0704348e-05 3.9443261e-19)
(-0.002283737 -1.0042328e-05 3.6191109e-19)
(-0.0022347198 -9.2285535e-06 6.5235121e-19)
(-0.002182439 -8.2909549e-06 0)
(-0.002129229 -7.2852668e-06 -4.2395485e-19)
(-0.0020769987 -6.2680008e-06 0)
(-0.0020272853 -5.2691711e-06 1.1339233e-19)
(-0.001981328 -4.3169306e-06 0)
(-0.001940087 -3.4302479e-06 -0)
(-0.0019042483 -2.6332816e-06 0)
(-0.0018742041 -1.9516554e-06 -1.4198216e-21)
(-0.0018499368 -1.4065082e-06 -4.3170382e-20)
(-0.0018309218 -1.0153901e-06 0)
(-0.0018161424 -7.7485492e-07 6.9008005e-20)
(-0.001804223 -6.6071148e-07 -5.9619141e-20)
(-0.001793726 -6.3564464e-07 0)
(-0.0017835107 -6.5664901e-07 0)
(-0.0017729325 -6.8709489e-07 9.6442182e-21)
(-0.0017618216 -7.0434803e-07 0)
(-0.0017503136 -7.0025465e-07 0)
(-0.0017386305 -6.80389e-07 0)
(-0.0017269211 -6.5556427e-07 -0)
(-0.0017152202 -6.340388e-07 -0)
(-0.0017034967 -6.1830024e-07 -0)
(-0.0016917291 -6.0584081e-07 -0)
(-0.0016799496 -5.9307676e-07 0)
(-0.00166823 -5.780608e-07 -0)
(-0.0016566413 -5.6063367e-07 -0)
(-0.0016452245 -5.4171554e-07 0)
(-0.0016339909 -5.2225201e-07 0)
(-0.0016229391 -5.0281278e-07 0)
(-0.0016120681 -4.8352955e-07 -0)
(-0.0016013797 -4.6442938e-07 0)
(-0.0015908743 -4.4556831e-07 0)
(-0.0015805515 -4.2712996e-07 0)
(-0.0015704079 -4.0933676e-07 -0)
(-0.0015604384 -3.9220881e-07 0)
(-0.0015506395 -3.7567724e-07 0)
(-0.0015410084 -3.5975991e-07 0)
(-0.0015315405 -3.4454086e-07 0)
(-0.0015222303 -3.2994801e-07 0)
(-0.0015130755 -3.15927e-07 -0)
(-0.001504072 -3.0256108e-07 0)
(-0.0014952137 -2.898264e-07 0)
(-0.0014864955 -2.7766308e-07 0)
(-0.0014779134 -2.6606154e-07 0)
(-0.0014694629 -2.5499699e-07 0)
(-0.0014611401 -2.4442468e-07 0)
(-0.0014529411 -2.3433926e-07 0)
(-0.0014448619 -2.2472229e-07 0)
(-0.0014368988 -2.155303e-07 -0)
(-0.0014290492 -2.0675044e-07 -0)
(-0.0014213101 -1.9835009e-07 -0)
(-0.0014136794 -1.9029998e-07 0)
(-0.0014061547 -1.8260572e-07 0)
(-0.0013987325 -1.7525168e-07 0)
(-0.001391409 -1.682355e-07 0)
(-0.0013841799 -1.6156127e-07 0)
(-0.0013770404 -1.5521552e-07 0)
(-0.0013699859 -1.4918955e-07 0)
(-0.0013630119 -1.4346093e-07 0)
(-0.0013561147 -1.3800773e-07 0)
(-0.0013492909 -1.3280917e-07 0)
(-0.0013425375 -1.2784514e-07 0)
(-0.0013358515 -1.2310437e-07 0)
(-0.0013292299 -1.1857585e-07 0)
(-0.0013226695 -1.1425448e-07 -0)
(-0.0013161666 -1.1013714e-07 0)
(-0.0013097171 -1.0622334e-07 -0)
(-0.0013033161 -1.0251254e-07 -0)
(-0.0012969584 -9.9003373e-08 0)
(-0.0012906383 -9.569062e-08 0)
(-0.0012843505 -9.2566608e-08 0)
(-0.0012780892 -8.9611664e-08 0)
(-0.0012718539 -8.6819852e-08 0)
(-0.0012656349 -8.413055e-08 0)
(-0.0012594583 -8.16059e-08 0)
(-0.0012532637 -7.9217217e-08 0)
(-0.0012472277 -7.5396862e-08 0)
(-0.0012409026 -1.1442526e-07 -9.7150062e-23)
(-0.0012355552 -8.0441318e-08 4.6741573e-22)
(-0.0012264017 -1.0613216e-07 2.1337362e-20)
)
;
    }
    frontandback
    {
        type            empty;
    }
}


// ************************************************************************* //
