/*--------------------------------*- C++ -*----------------------------------*\
  =========                 |
  \\      /  F ield         | OpenFOAM: The Open Source CFD Toolbox
   \\    /   O peration     | Website:  https://openfoam.org
    \\  /    A nd           | Version:  12
     \\/     M anipulation  |
\*---------------------------------------------------------------------------*/
FoamFile
{
    format      ascii;
    class       volScalarField;
    location    "200";
    object      yPlus;
}
// * * * * * * * * * * * * * * * * * * * * * * * * * * * * * * * * * * * * * //

dimensions      [];

internalField   uniform 0;

boundaryField
{
    inlet
    {
        type            calculated;
        value           uniform 0;
    }
    top
    {
        type            calculated;
        value           uniform 0;
    }
    outlet
    {
        type            calculated;
        value           uniform 0;
    }
    slipsurface
    {
        type            calculated;
        value           uniform 0;
    }
    bottom
    {
        type            calculated;
        value           nonuniform List<scalar> 
100
(
14.896198
17.984854
21.848047
26.367967
31.528252
37.291937
43.570171
50.214205
57.020663
63.745002
70.122002
75.913669
80.935249
85.07307
88.286083
90.612709
92.074863
93.102092
93.08696
92.848703
92.279606
91.469849
90.504525
89.457797
88.393896
87.368691
86.430504
85.61897
84.963603
84.479353
84.160178
83.97655
83.879895
83.815257
83.73736
83.620893
83.461099
83.266933
83.051457
82.824509
82.59034
82.349326
82.101206
81.847259
81.59031
81.333384
81.078486
80.826351
80.57703
80.330504
80.086877
79.846211
79.608531
79.37379
79.141912
78.912838
78.68652
78.462878
78.241815
78.023327
77.807346
77.593749
77.38243
77.173318
76.966348
76.761454
76.558577
76.35766
76.158661
75.961559
75.766336
75.572978
75.381453
75.191697
75.003616
74.817105
74.632056
74.448371
74.265966
74.08478
73.904759
73.725856
73.548021
73.371195
73.195304
73.020261
72.845955
72.672261
72.499041
72.326144
72.153451
71.980853
71.808383
71.635983
71.464366
71.292679
71.124907
70.9519
70.804845
70.554354
)
;
    }
    frontandback
    {
        type            empty;
    }
}


// ************************************************************************* //
