/*--------------------------------*- C++ -*----------------------------------*\
  =========                 |
  \\      /  F ield         | OpenFOAM: The Open Source CFD Toolbox
   \\    /   O peration     | Website:  https://openfoam.org
    \\  /    A nd           | Version:  12
     \\/     M anipulation  |
\*---------------------------------------------------------------------------*/
FoamFile
{
    format      ascii;
    class       volScalarField;
    location    "500";
    object      nut;
}
// * * * * * * * * * * * * * * * * * * * * * * * * * * * * * * * * * * * * * //

dimensions      [0 2 -1 0 0 0 0];

internalField   nonuniform List<scalar> 
13056
(
1.4728028e-06
1.4728834e-06
1.4731083e-06
1.4734385e-06
1.4738454e-06
1.4743166e-06
1.4748449e-06
1.4754243e-06
1.4760505e-06
1.4767209e-06
1.4774345e-06
1.4781919e-06
1.4789953e-06
1.4798488e-06
1.4807598e-06
1.4817377e-06
1.4828019e-06
1.4839661e-06
1.4852986e-06
1.4867712e-06
1.4887208e-06
1.4907221e-06
1.4948753e-06
1.5011909e-06
2.8289078e-13
8.1663008e-14
6.5975407e-14
6.0985873e-14
5.7915323e-14
5.5419889e-14
5.326996e-14
5.1389186e-14
4.9726272e-14
4.8238447e-14
4.6893422e-14
4.5667815e-14
4.4544065e-14
4.3508296e-14
4.2549187e-14
4.1657405e-14
4.0825118e-14
4.0045695e-14
3.9313414e-14
3.8623367e-14
3.7971331e-14
3.7353595e-14
3.6767011e-14
3.6208767e-14
3.5676328e-14
3.5167558e-14
3.4680509e-14
3.4213383e-14
3.3764632e-14
3.3332893e-14
3.2916862e-14
3.2515356e-14
3.2127385e-14
3.1752023e-14
3.1388357e-14
3.1035583e-14
3.0693021e-14
3.0360028e-14
3.0035945e-14
2.9720184e-14
2.9412268e-14
2.9111733e-14
2.8818098e-14
2.8530923e-14
2.8249832e-14
2.797449e-14
2.7704556e-14
2.7439682e-14
2.7179553e-14
2.6923923e-14
2.6672541e-14
2.6425139e-14
2.6181458e-14
2.5941277e-14
2.5704409e-14
2.5470658e-14
2.5239809e-14
2.5011656e-14
2.4786039e-14
2.4562807e-14
2.4341792e-14
2.4122814e-14
2.3905701e-14
2.3690331e-14
2.3476572e-14
2.3264266e-14
2.3053256e-14
2.28434e-14
2.2634583e-14
2.2426683e-14
2.2219542e-14
2.2013005e-14
2.1806959e-14
2.1601287e-14
2.1395838e-14
2.1190449e-14
2.0984982e-14
2.0779313e-14
2.0573295e-14
2.0366752e-14
2.0159521e-14
1.9951468e-14
1.9742418e-14
1.9532166e-14
1.9320531e-14
1.9107338e-14
1.8892365e-14
1.8675351e-14
1.8456141e-14
1.8239234e-14
1.8031414e-14
1.7834507e-14
1.7647613e-14
1.7469888e-14
1.7300574e-14
1.7139024e-14
1.6984657e-14
1.6836917e-14
1.6695302e-14
1.6559391e-14
1.6428799e-14
1.6303157e-14
1.6182115e-14
1.6065334e-14
1.5952547e-14
1.584337e-14
1.5737725e-14
1.5634378e-14
1.5534996e-14
1.543204e-14
1.5342921e-14
1.5194924e-14
1.4728028e-06
1.4728834e-06
1.4731083e-06
1.4734386e-06
1.4738457e-06
1.4743171e-06
1.4748456e-06
1.4754252e-06
1.4760516e-06
1.4767222e-06
1.4774361e-06
1.4781937e-06
1.4789974e-06
1.4798512e-06
1.4807625e-06
1.4817407e-06
1.4828051e-06
1.4839695e-06
1.4853023e-06
1.4867751e-06
1.4887249e-06
1.4907265e-06
1.4948786e-06
1.5012071e-06
2.0827339e-11
6.7337509e-12
5.4472472e-12
5.0356624e-12
4.7823051e-12
4.5765065e-12
4.399197e-12
4.2440535e-12
4.1068495e-12
3.9840725e-12
3.8730672e-12
3.7719087e-12
3.6791502e-12
3.5936481e-12
3.5144699e-12
3.4408463e-12
3.3721315e-12
3.3077789e-12
3.2473166e-12
3.1903396e-12
3.1364999e-12
3.0854912e-12
3.0370538e-12
2.9909556e-12
2.9469875e-12
2.9049733e-12
2.8647523e-12
2.8261759e-12
2.7891166e-12
2.7534617e-12
2.7191036e-12
2.6859448e-12
2.6539034e-12
2.6229031e-12
2.5928685e-12
2.5637332e-12
2.5354411e-12
2.507939e-12
2.4811727e-12
2.4550936e-12
2.4296622e-12
2.4048402e-12
2.380588e-12
2.3568692e-12
2.3336529e-12
2.3109112e-12
2.288616e-12
2.2667388e-12
2.2452533e-12
2.2241393e-12
2.2033762e-12
2.1829416e-12
2.1628144e-12
2.1429761e-12
2.1234114e-12
2.1041041e-12
2.0850364e-12
2.0661914e-12
2.0475558e-12
2.0291171e-12
2.0108614e-12
1.992774e-12
1.9748406e-12
1.957051e-12
1.9393945e-12
1.921858e-12
1.9044284e-12
1.8870941e-12
1.8698457e-12
1.8526728e-12
1.8355627e-12
1.8185023e-12
1.8014825e-12
1.7844936e-12
1.7675229e-12
1.7505573e-12
1.7335851e-12
1.7165962e-12
1.6995784e-12
1.6825171e-12
1.6653991e-12
1.648213e-12
1.6309445e-12
1.6135767e-12
1.5960946e-12
1.5784837e-12
1.5607257e-12
1.5427991e-12
1.524691e-12
1.506773e-12
1.4896057e-12
1.4733398e-12
1.4579009e-12
1.4432194e-12
1.4292327e-12
1.4158874e-12
1.4031352e-12
1.3909306e-12
1.379232e-12
1.3680045e-12
1.3572163e-12
1.346837e-12
1.3368377e-12
1.3271904e-12
1.3178731e-12
1.3088539e-12
1.3001266e-12
1.2915892e-12
1.2833792e-12
1.2748749e-12
1.2675127e-12
1.2552862e-12
1.4728027e-06
1.4728833e-06
1.4731084e-06
1.473439e-06
1.4738465e-06
1.4743185e-06
1.4748475e-06
1.4754278e-06
1.4760549e-06
1.4767263e-06
1.4774409e-06
1.4781993e-06
1.4790038e-06
1.4798584e-06
1.4807704e-06
1.4817493e-06
1.4828146e-06
1.4839797e-06
1.4853132e-06
1.4867866e-06
1.4887368e-06
1.4907391e-06
1.4948868e-06
1.5012312e-06
1.5078979e-10
5.3839567e-11
4.3661248e-11
4.0367652e-11
3.8340579e-11
3.6694992e-11
3.5276976e-11
3.4035704e-11
3.2937483e-11
3.1954436e-11
3.1065447e-11
3.0255174e-11
2.951207e-11
2.8827009e-11
2.8192546e-11
2.7602537e-11
2.7051821e-11
2.6536028e-11
2.6051384e-11
2.5594651e-11
2.5163044e-11
2.4754113e-11
2.4365779e-11
2.3996184e-11
2.3643656e-11
2.3306782e-11
2.2984276e-11
2.2674949e-11
2.2377779e-11
2.2091863e-11
2.181634e-11
2.155043e-11
2.1293474e-11
2.1044862e-11
2.0803992e-11
2.057033e-11
2.0343427e-11
2.0122855e-11
1.9908182e-11
1.9699018e-11
1.9495046e-11
1.9295958e-11
1.9101439e-11
1.8911197e-11
1.8724982e-11
1.8542571e-11
1.8363741e-11
1.8188262e-11
1.8015923e-11
1.7846563e-11
1.7680014e-11
1.75161e-11
1.7354651e-11
1.7195518e-11
1.7038578e-11
1.6883701e-11
1.6730746e-11
1.6579576e-11
1.6430085e-11
1.6282171e-11
1.6135725e-11
1.5990628e-11
1.5846766e-11
1.5704057e-11
1.5562413e-11
1.5421732e-11
1.5281908e-11
1.5142847e-11
1.5004474e-11
1.4866707e-11
1.4729442e-11
1.4592576e-11
1.4456034e-11
1.4319738e-11
1.4183589e-11
1.4047479e-11
1.3911316e-11
1.3775018e-11
1.3638487e-11
1.3501607e-11
1.336427e-11
1.3226386e-11
1.3087841e-11
1.2948498e-11
1.2808237e-11
1.2666941e-11
1.2524465e-11
1.2380635e-11
1.2235347e-11
1.2091583e-11
1.1953842e-11
1.1823332e-11
1.1699457e-11
1.1581658e-11
1.1469434e-11
1.1362354e-11
1.1260034e-11
1.1162107e-11
1.1068238e-11
1.097815e-11
1.0891586e-11
1.0808303e-11
1.0728069e-11
1.0650659e-11
1.0575896e-11
1.0503525e-11
1.0433497e-11
1.0364994e-11
1.0299116e-11
1.0230891e-11
1.0171816e-11
1.0073703e-11
1.4728025e-06
1.4728831e-06
1.4731085e-06
1.4734397e-06
1.4738479e-06
1.4743208e-06
1.4748509e-06
1.4754323e-06
1.4760605e-06
1.4767331e-06
1.477449e-06
1.4782087e-06
1.4790145e-06
1.4798704e-06
1.4807838e-06
1.481764e-06
1.4828305e-06
1.4839969e-06
1.4853314e-06
1.486806e-06
1.4887566e-06
1.4907602e-06
1.4949001e-06
1.5012635e-06
5.5272632e-10
2.1800394e-10
1.7747343e-10
1.6412397e-10
1.5591184e-10
1.4924888e-10
1.4350507e-10
1.3847372e-10
1.3401926e-10
1.3003004e-10
1.2642125e-10
1.2313108e-10
1.2011293e-10
1.1732995e-10
1.1475208e-10
1.1235447e-10
1.1011624e-10
1.0801971e-10
1.0604959e-10
1.0419276e-10
1.0243793e-10
1.0077517e-10
9.9196059e-11
9.7693055e-11
9.6259379e-11
9.4889287e-11
9.3577567e-11
9.23194e-11
9.1110628e-11
8.9947582e-11
8.8826779e-11
8.7745042e-11
8.6699697e-11
8.5688264e-11
8.4708302e-11
8.3757641e-11
8.283445e-11
8.1936997e-11
8.1063529e-11
8.0212458e-11
7.938249e-11
7.8572381e-11
7.7780848e-11
7.7006703e-11
7.6248933e-11
7.5506632e-11
7.4778887e-11
7.4064767e-11
7.336342e-11
7.2674179e-11
7.1996373e-11
7.132928e-11
7.0672208e-11
7.0024556e-11
6.9385818e-11
6.8755469e-11
6.8132935e-11
6.7517659e-11
6.6909207e-11
6.6307171e-11
6.5711101e-11
6.5120515e-11
6.4534948e-11
6.3954067e-11
6.3377518e-11
6.280488e-11
6.2235727e-11
6.1669674e-11
6.1106413e-11
6.0545612e-11
5.9986851e-11
5.9429708e-11
5.8873878e-11
5.8319047e-11
5.7764804e-11
5.7210718e-11
5.6656407e-11
5.6101543e-11
5.5545725e-11
5.4988478e-11
5.4429368e-11
5.3868025e-11
5.3303983e-11
5.2736685e-11
5.2165644e-11
5.1590386e-11
5.1010314e-11
5.0424723e-11
4.983319e-11
4.9247856e-11
4.8687036e-11
4.8155651e-11
4.7651276e-11
4.7171638e-11
4.6714691e-11
4.6278688e-11
4.586206e-11
4.5463315e-11
4.5081095e-11
4.4714263e-11
4.4361781e-11
4.4022654e-11
4.3695942e-11
4.3380726e-11
4.3076288e-11
4.2781593e-11
4.2496432e-11
4.2217496e-11
4.1949235e-11
4.1671482e-11
4.1430922e-11
4.1031367e-11
1.4728022e-06
1.4728829e-06
1.4731086e-06
1.4734406e-06
1.4738499e-06
1.4743241e-06
1.4748556e-06
1.4754386e-06
1.4760686e-06
1.4767429e-06
1.4774606e-06
1.4782222e-06
1.4790298e-06
1.4798877e-06
1.4808029e-06
1.481785e-06
1.4828533e-06
1.4840214e-06
1.4853575e-06
1.4868336e-06
1.4887848e-06
1.4907901e-06
1.4949186e-06
1.5013044e-06
1.4601213e-09
6.3793667e-10
5.2225206e-10
4.8317632e-10
4.5914533e-10
4.3965385e-10
4.2283812e-10
4.0809275e-10
3.9502547e-10
3.8331467e-10
3.7271509e-10
3.6304727e-10
3.5417562e-10
3.4599277e-10
3.3841103e-10
3.313579e-10
3.2477238e-10
3.186027e-10
3.1280415e-10
3.073383e-10
3.0217206e-10
2.9727638e-10
2.9262647e-10
2.8820027e-10
2.8397789e-10
2.7994245e-10
2.7607865e-10
2.7237237e-10
2.6881136e-10
2.6538486e-10
2.6208263e-10
2.5889535e-10
2.5581513e-10
2.528347e-10
2.4994689e-10
2.4714531e-10
2.4442457e-10
2.4177958e-10
2.392052e-10
2.3669675e-10
2.3425041e-10
2.3186252e-10
2.2952933e-10
2.2724733e-10
2.2501353e-10
2.2282527e-10
2.2067986e-10
2.1857458e-10
2.165069e-10
2.1447486e-10
2.1247648e-10
2.1050965e-10
2.0857233e-10
2.0666273e-10
2.0477938e-10
2.0292073e-10
2.0108509e-10
1.9927082e-10
1.9747663e-10
1.9570132e-10
1.9394358e-10
1.9220198e-10
1.9047515e-10
1.8876211e-10
1.8706181e-10
1.8537303e-10
1.8369449e-10
1.8202506e-10
1.8036385e-10
1.7870985e-10
1.7706186e-10
1.7541861e-10
1.737792e-10
1.7214271e-10
1.7050793e-10
1.6887359e-10
1.6723856e-10
1.6560187e-10
1.6396234e-10
1.6231857e-10
1.6066928e-10
1.5901337e-10
1.5734947e-10
1.5567594e-10
1.5399134e-10
1.5229427e-10
1.5058297e-10
1.4885535e-10
1.4711017e-10
1.4538325e-10
1.4372862e-10
1.4216082e-10
1.4067267e-10
1.392575e-10
1.3790925e-10
1.3662277e-10
1.3539345e-10
1.3421688e-10
1.3308905e-10
1.3200662e-10
1.3096652e-10
1.2996581e-10
1.2900173e-10
1.2807156e-10
1.2717319e-10
1.2630357e-10
1.2546208e-10
1.2463898e-10
1.2384735e-10
1.2302794e-10
1.2231805e-10
1.2113885e-10
1.4728018e-06
1.4728825e-06
1.4731088e-06
1.4734418e-06
1.4738526e-06
1.4743284e-06
1.4748619e-06
1.475447e-06
1.4760792e-06
1.4767559e-06
1.477476e-06
1.47824e-06
1.4790502e-06
1.4799105e-06
1.4808282e-06
1.4818127e-06
1.4828834e-06
1.4840538e-06
1.485392e-06
1.48687e-06
1.4888219e-06
1.4908296e-06
1.4949425e-06
1.5013544e-06
3.1821166e-09
1.5460207e-09
1.2757777e-09
1.1812737e-09
1.1230956e-09
1.0758969e-09
1.0351211e-09
9.9930885e-10
9.6752794e-10
9.3901656e-10
9.1319049e-10
8.8961999e-10
8.6797931e-10
8.4800997e-10
8.2950062e-10
8.1227621e-10
7.9618924e-10
7.811143e-10
7.6694304e-10
7.5358223e-10
7.4095155e-10
7.2898041e-10
7.1760854e-10
7.0678233e-10
6.9645342e-10
6.8658063e-10
6.7712677e-10
6.6805745e-10
6.5934281e-10
6.5095658e-10
6.4287389e-10
6.3507197e-10
6.2753157e-10
6.2023492e-10
6.1316461e-10
6.0630503e-10
5.9964296e-10
5.9316601e-10
5.8686164e-10
5.8071844e-10
5.7472703e-10
5.688785e-10
5.6316368e-10
5.5757404e-10
5.5210223e-10
5.4674173e-10
5.4148601e-10
5.363284e-10
5.3126275e-10
5.2628421e-10
5.2138797e-10
5.1656887e-10
5.1182193e-10
5.0714279e-10
5.0252779e-10
4.9797317e-10
4.9347482e-10
4.8902871e-10
4.8463169e-10
4.8028082e-10
4.7597287e-10
4.7170438e-10
4.67472e-10
4.6327328e-10
4.5910568e-10
4.5496619e-10
4.5085172e-10
4.467595e-10
4.4268729e-10
4.3863268e-10
4.3459267e-10
4.3056422e-10
4.2654508e-10
4.2253298e-10
4.18525e-10
4.1451799e-10
4.1050919e-10
4.0649622e-10
4.0247619e-10
3.9844568e-10
3.9440152e-10
3.9034103e-10
3.8626085e-10
3.8215696e-10
3.7802581e-10
3.7386397e-10
3.6966712e-10
3.6543016e-10
3.6115001e-10
3.5691451e-10
3.5285621e-10
3.4901077e-10
3.4536062e-10
3.4188937e-10
3.3858221e-10
3.3542652e-10
3.3241095e-10
3.2952472e-10
3.2675803e-10
3.2410263e-10
3.2155103e-10
3.1909604e-10
3.1673086e-10
3.1444886e-10
3.1224484e-10
3.1011133e-10
3.0804681e-10
3.0602752e-10
3.0408528e-10
3.0207552e-10
3.0033385e-10
2.9744033e-10
1.4728013e-06
1.4728821e-06
1.473109e-06
1.4734434e-06
1.4738559e-06
1.4743339e-06
1.4748698e-06
1.4754575e-06
1.4760926e-06
1.4767723e-06
1.4774955e-06
1.4782626e-06
1.4790759e-06
1.4799393e-06
1.4808602e-06
1.4818478e-06
1.4829214e-06
1.4840947e-06
1.4854355e-06
1.4869159e-06
1.4888686e-06
1.4908791e-06
1.4949719e-06
1.501414e-06
6.1076177e-09
3.3131584e-09
2.7649045e-09
2.5638564e-09
2.4395545e-09
2.3385792e-09
2.2511388e-09
2.174157e-09
2.1057023e-09
2.0441964e-09
1.988419e-09
1.9374661e-09
1.8906492e-09
1.84742e-09
1.8073293e-09
1.7700043e-09
1.7351297e-09
1.7024373e-09
1.6716947e-09
1.6427019e-09
1.6152864e-09
1.5892964e-09
1.5646021e-09
1.5410881e-09
1.5186503e-09
1.4971997e-09
1.4766561e-09
1.4569454e-09
1.4380031e-09
1.4197722e-09
1.4021991e-09
1.3852347e-09
1.3688372e-09
1.3529681e-09
1.33759e-09
1.3226688e-09
1.3081761e-09
1.2940848e-09
1.2803681e-09
1.267001e-09
1.2539633e-09
1.2412356e-09
1.2287981e-09
1.2166323e-09
1.2047222e-09
1.1930537e-09
1.1816126e-09
1.1703845e-09
1.1593561e-09
1.1485167e-09
1.1378559e-09
1.1273626e-09
1.1170259e-09
1.1068364e-09
1.0967861e-09
1.0868669e-09
1.0770697e-09
1.067386e-09
1.0578088e-09
1.0483317e-09
1.0389477e-09
1.0296493e-09
1.0204292e-09
1.0112821e-09
1.0022024e-09
9.9318357e-10
9.84219e-10
9.7530256e-10
9.6642936e-10
9.5759421e-10
9.4879057e-10
9.400118e-10
9.31253e-10
9.2250923e-10
9.1377412e-10
9.0504084e-10
8.9630334e-10
8.8755642e-10
8.7879381e-10
8.7000804e-10
8.6119222e-10
8.5234046e-10
8.4344546e-10
8.3449846e-10
8.2549168e-10
8.1641763e-10
8.0726694e-10
7.9802844e-10
7.8869538e-10
7.794593e-10
7.7060932e-10
7.6222321e-10
7.5426272e-10
7.4669212e-10
7.3947917e-10
7.3259633e-10
7.2601894e-10
7.1972347e-10
7.1368858e-10
7.0789629e-10
7.0233028e-10
6.9697489e-10
6.9181531e-10
6.8683708e-10
6.8202887e-10
6.7737443e-10
6.7287041e-10
6.6846525e-10
6.6422787e-10
6.5984469e-10
6.5604492e-10
6.4973103e-10
1.4728007e-06
1.4728816e-06
1.4731092e-06
1.4734452e-06
1.4738599e-06
1.4743406e-06
1.4748795e-06
1.4754705e-06
1.4761091e-06
1.4767924e-06
1.4775194e-06
1.4782903e-06
1.4791075e-06
1.4799748e-06
1.4808995e-06
1.4818908e-06
1.4829681e-06
1.4841449e-06
1.4854888e-06
1.4869721e-06
1.4889258e-06
1.4909397e-06
1.4950071e-06
1.5014839e-06
1.0701855e-08
6.5028974e-09
5.5133456e-09
5.1255266e-09
4.883199e-09
4.6856871e-09
4.5139694e-09
4.3622333e-09
4.2268993e-09
4.1050274e-09
3.9943158e-09
3.8930417e-09
3.7998827e-09
3.7137809e-09
3.6338659e-09
3.5594123e-09
3.4898051e-09
3.4245185e-09
3.363097e-09
3.3051471e-09
3.2503291e-09
3.1983439e-09
3.1489348e-09
3.101874e-09
3.0569556e-09
3.014003e-09
2.9728574e-09
2.933372e-09
2.8954184e-09
2.8588835e-09
2.8236612e-09
2.7896535e-09
2.7567771e-09
2.7249556e-09
2.6941146e-09
2.6641864e-09
2.6351136e-09
2.606843e-09
2.5793208e-09
2.5524975e-09
2.5263323e-09
2.5007866e-09
2.4758212e-09
2.451399e-09
2.4274881e-09
2.40406e-09
2.3810867e-09
2.3585394e-09
2.3363913e-09
2.3146212e-09
2.2932082e-09
2.2721302e-09
2.2513654e-09
2.230895e-09
2.2107027e-09
2.1907725e-09
2.1710864e-09
2.1516271e-09
2.1323806e-09
2.113334e-09
2.0944736e-09
2.0757841e-09
2.0572511e-09
2.0388635e-09
2.0206105e-09
2.002479e-09
1.9844556e-09
1.966528e-09
1.9486863e-09
1.9309202e-09
1.9132166e-09
1.8955621e-09
1.8779468e-09
1.8603608e-09
1.8427914e-09
1.8252247e-09
1.8076487e-09
1.7900528e-09
1.7724244e-09
1.7547486e-09
1.7370114e-09
1.7192009e-09
1.7013025e-09
1.6832986e-09
1.6651733e-09
1.6469118e-09
1.628495e-09
1.6099004e-09
1.5911145e-09
1.5725228e-09
1.5547072e-09
1.5378246e-09
1.5217981e-09
1.5065557e-09
1.4920329e-09
1.478174e-09
1.4649296e-09
1.4522524e-09
1.4400995e-09
1.4284347e-09
1.4172251e-09
1.4064394e-09
1.3960478e-09
1.3860211e-09
1.3763365e-09
1.3669615e-09
1.3578892e-09
1.3490164e-09
1.3404809e-09
1.3316549e-09
1.3240009e-09
1.3112796e-09
1.4727999e-06
1.4728809e-06
1.4731095e-06
1.4734474e-06
1.4738648e-06
1.4743486e-06
1.4748912e-06
1.4754862e-06
1.4761289e-06
1.4768167e-06
1.4775481e-06
1.4783237e-06
1.4791455e-06
1.4800175e-06
1.4809467e-06
1.4819426e-06
1.4830243e-06
1.4842051e-06
1.4855529e-06
1.4870396e-06
1.4889941e-06
1.4910122e-06
1.4950482e-06
1.5015646e-06
1.7489776e-08
1.1918899e-08
1.0330758e-08
9.6449997e-09
9.2070801e-09
8.8475959e-09
8.5329734e-09
8.2533697e-09
8.0028606e-09
7.7764999e-09
7.570332e-09
7.381349e-09
7.2072146e-09
7.0460432e-09
6.8962738e-09
6.7565969e-09
6.6258959e-09
6.5032122e-09
6.387712e-09
6.278673e-09
6.17547e-09
6.0775515e-09
5.9844432e-09
5.8957235e-09
5.8110109e-09
5.7299771e-09
5.6523274e-09
5.5777888e-09
5.5061218e-09
5.4371156e-09
5.3705725e-09
5.3063096e-09
5.2441706e-09
5.1840133e-09
5.1256983e-09
5.0690991e-09
5.0141079e-09
4.9606249e-09
4.9085497e-09
4.8577895e-09
4.8082669e-09
4.7599103e-09
4.7126458e-09
4.6664039e-09
4.6211242e-09
4.5767535e-09
4.533239e-09
4.4905266e-09
4.4485661e-09
4.407317e-09
4.3667403e-09
4.3267945e-09
4.2874387e-09
4.2486368e-09
4.2103586e-09
4.1725736e-09
4.1352483e-09
4.0983498e-09
4.0618515e-09
4.0257293e-09
3.989957e-09
3.9545064e-09
3.9193496e-09
3.8844659e-09
3.8498348e-09
3.8154315e-09
3.7812308e-09
3.7472093e-09
3.7133482e-09
3.679628e-09
3.6460241e-09
3.6125109e-09
3.5790697e-09
3.5456816e-09
3.5123225e-09
3.4789664e-09
3.4455901e-09
3.4121735e-09
3.3786928e-09
3.3451197e-09
3.3114275e-09
3.2775936e-09
3.2435902e-09
3.2093838e-09
3.1749444e-09
3.1402433e-09
3.1052446e-09
3.0699055e-09
3.0341999e-09
2.9988604e-09
2.9649938e-09
2.9328984e-09
2.9024284e-09
2.8734474e-09
2.8458325e-09
2.8194787e-09
2.7942919e-09
2.7701824e-09
2.7470687e-09
2.7248822e-09
2.7035606e-09
2.6830442e-09
2.6632764e-09
2.6442022e-09
2.6257781e-09
2.6079424e-09
2.5906819e-09
2.5738017e-09
2.5575613e-09
2.540775e-09
2.5262125e-09
2.5020009e-09
1.472799e-06
1.4728801e-06
1.4731097e-06
1.4734499e-06
1.4738704e-06
1.4743581e-06
1.4749049e-06
1.4755046e-06
1.4761524e-06
1.4768454e-06
1.4775822e-06
1.4783633e-06
1.4791906e-06
1.480068e-06
1.4810027e-06
1.4820039e-06
1.4830907e-06
1.4842764e-06
1.4856284e-06
1.4871191e-06
1.4890745e-06
1.4910975e-06
1.4950954e-06
1.5016564e-06
2.7023964e-08
2.0611996e-08
1.8410151e-08
1.7305101e-08
1.6569484e-08
1.5957066e-08
1.541504e-08
1.492898e-08
1.4490462e-08
1.4092138e-08
1.3727895e-08
1.3392958e-08
1.3083543e-08
1.2796548e-08
1.2529376e-08
1.2279825e-08
1.2046001e-08
1.1826265e-08
1.1619184e-08
1.1423508e-08
1.1238155e-08
1.1062164e-08
1.0894707e-08
1.0735046e-08
1.0582513e-08
1.0436529e-08
1.0296576e-08
1.0162173e-08
1.0032895e-08
9.9083692e-09
9.7882463e-09
9.6722018e-09
9.5599571e-09
9.4512596e-09
9.3458624e-09
9.2435397e-09
9.1440984e-09
9.0473612e-09
8.9531496e-09
8.8612971e-09
8.7716653e-09
8.6841257e-09
8.5985474e-09
8.5148054e-09
8.4327912e-09
8.3524093e-09
8.2735654e-09
8.196163e-09
8.1201113e-09
8.0453373e-09
7.9717715e-09
7.8993391e-09
7.827967e-09
7.7575899e-09
7.6881532e-09
7.6196022e-09
7.551877e-09
7.484918e-09
7.4186771e-09
7.3531107e-09
7.288172e-09
7.2238099e-09
7.1599742e-09
7.0966272e-09
7.0337316e-09
6.9712433e-09
6.9091163e-09
6.8473083e-09
6.7857852e-09
6.7245115e-09
6.6634429e-09
6.6025331e-09
6.5417477e-09
6.4810526e-09
6.4204042e-09
6.3597553e-09
6.2990633e-09
6.2382918e-09
6.1773978e-09
6.1163295e-09
6.0550385e-09
5.9934833e-09
5.9316135e-09
5.869368e-09
5.806692e-09
5.7435331e-09
5.6798259e-09
5.6154925e-09
5.5504845e-09
5.4861362e-09
5.4244635e-09
5.3660104e-09
5.310512e-09
5.2577211e-09
5.2074144e-09
5.1594008e-09
5.1135096e-09
5.0695782e-09
5.0274582e-09
4.9870249e-09
4.9481652e-09
4.9107706e-09
4.8747384e-09
4.8399684e-09
4.8063816e-09
4.7738661e-09
4.7423976e-09
4.7116233e-09
4.682012e-09
4.6514181e-09
4.6248671e-09
4.5807047e-09
1.472798e-06
1.4728791e-06
1.47311e-06
1.4734528e-06
1.473877e-06
1.4743691e-06
1.474921e-06
1.4755262e-06
1.4761799e-06
1.4768789e-06
1.4776221e-06
1.4784096e-06
1.4792433e-06
1.4801271e-06
1.4810681e-06
1.4820755e-06
1.4831682e-06
1.4843595e-06
1.4857165e-06
1.4872117e-06
1.4891679e-06
1.4911964e-06
1.4951484e-06
1.5017597e-06
3.9831446e-08
3.381552e-08
3.1393538e-08
2.9814791e-08
2.8678545e-08
2.7706771e-08
2.6830123e-08
2.6032497e-08
2.5304989e-08
2.4638736e-08
2.4025676e-08
2.3459172e-08
2.293375e-08
2.2444797e-08
2.198836e-08
2.1561029e-08
2.1159823e-08
2.0782127e-08
2.0425631e-08
2.0088311e-08
1.9768394e-08
1.9464304e-08
1.9174673e-08
1.8898278e-08
1.8634008e-08
1.8380894e-08
1.8138067e-08
1.7904722e-08
1.7680142e-08
1.7463698e-08
1.72548e-08
1.7052898e-08
1.6857518e-08
1.666823e-08
1.6484618e-08
1.6306294e-08
1.6132928e-08
1.5964218e-08
1.579986e-08
1.5639569e-08
1.5483105e-08
1.533025e-08
1.5180778e-08
1.5034477e-08
1.4891157e-08
1.4750655e-08
1.4612809e-08
1.4477453e-08
1.434443e-08
1.4213613e-08
1.4084883e-08
1.3958111e-08
1.3833171e-08
1.370995e-08
1.3588351e-08
1.3468282e-08
1.3349639e-08
1.3232318e-08
1.3116235e-08
1.3001315e-08
1.2887476e-08
1.277463e-08
1.266269e-08
1.2551589e-08
1.2441262e-08
1.2331634e-08
1.2222624e-08
1.2114157e-08
1.2006174e-08
1.1898613e-08
1.1791397e-08
1.1684445e-08
1.1577696e-08
1.147109e-08
1.1364552e-08
1.1257998e-08
1.1151353e-08
1.1044554e-08
1.0937524e-08
1.0830174e-08
1.0722416e-08
1.061418e-08
1.0505374e-08
1.0395893e-08
1.0285639e-08
1.017452e-08
1.006242e-08
9.9492018e-09
9.8347795e-09
9.7215014e-09
9.6129181e-09
9.5099894e-09
9.4122508e-09
9.3192688e-09
9.230652e-09
9.146065e-09
9.0652082e-09
8.9877964e-09
8.9135693e-09
8.8423078e-09
8.7738133e-09
8.7078955e-09
8.6443742e-09
8.5830732e-09
8.5238537e-09
8.4665194e-09
8.4110277e-09
8.356761e-09
8.3045379e-09
8.2506056e-09
8.2037822e-09
8.1258576e-09
1.4727967e-06
1.472878e-06
1.4731102e-06
1.473456e-06
1.4738845e-06
1.4743817e-06
1.4749395e-06
1.4755511e-06
1.4762116e-06
1.4769177e-06
1.4776682e-06
1.4784631e-06
1.4793042e-06
1.4801955e-06
1.4811437e-06
1.4821581e-06
1.4832577e-06
1.4844554e-06
1.4858179e-06
1.4873181e-06
1.4892748e-06
1.4913097e-06
1.495207e-06
1.5018742e-06
5.63362e-08
5.2799347e-08
5.1332245e-08
4.9470025e-08
4.7904767e-08
4.6494888e-08
4.5180089e-08
4.3954874e-08
4.2817624e-08
4.1762479e-08
4.0781923e-08
3.9868789e-08
3.9016578e-08
3.8219435e-08
3.7472108e-08
3.6769896e-08
3.6108559e-08
3.5484289e-08
3.4893664e-08
3.4333637e-08
3.3801513e-08
3.3294876e-08
3.28116e-08
3.2349786e-08
3.1907688e-08
3.1483772e-08
3.1076664e-08
3.0685082e-08
3.0307875e-08
2.9944034e-08
2.959261e-08
2.9252715e-08
2.8923577e-08
2.8604504e-08
2.8294814e-08
2.7993879e-08
2.7701154e-08
2.7416147e-08
2.7138363e-08
2.6867329e-08
2.6602651e-08
2.634397e-08
2.6090917e-08
2.5843138e-08
2.560032e-08
2.5362191e-08
2.5128485e-08
2.4898927e-08
2.4673255e-08
2.4451258e-08
2.4232737e-08
2.401748e-08
2.3805274e-08
2.359593e-08
2.338929e-08
2.3185195e-08
2.2983474e-08
2.2783953e-08
2.2586491e-08
2.2390959e-08
2.2197223e-08
2.2005135e-08
2.1814546e-08
2.1625345e-08
2.1437421e-08
2.1250648e-08
2.106489e-08
2.0880019e-08
2.0695936e-08
2.0512535e-08
2.0329686e-08
2.0147252e-08
1.9965127e-08
1.9783212e-08
1.9601377e-08
1.941948e-08
1.9237394e-08
1.9055008e-08
1.8872195e-08
1.8688799e-08
1.8504673e-08
1.8319691e-08
1.8133703e-08
1.7946524e-08
1.7757987e-08
1.7567933e-08
1.7376164e-08
1.7182445e-08
1.6986627e-08
1.6792727e-08
1.6606828e-08
1.6430577e-08
1.6263184e-08
1.6103911e-08
1.5952091e-08
1.5807153e-08
1.5668586e-08
1.5535905e-08
1.5408665e-08
1.5286493e-08
1.5169051e-08
1.5056013e-08
1.4947073e-08
1.484193e-08
1.4740346e-08
1.4641988e-08
1.4546781e-08
1.4453677e-08
1.4364064e-08
1.427156e-08
1.4191219e-08
1.4057417e-08
1.4727952e-06
1.4728765e-06
1.4731102e-06
1.4734595e-06
1.4738929e-06
1.474396e-06
1.4749605e-06
1.4755795e-06
1.4762478e-06
1.4769621e-06
1.477721e-06
1.4785243e-06
1.479374e-06
1.4802737e-06
1.4812302e-06
1.4822527e-06
1.4833599e-06
1.4845648e-06
1.4859335e-06
1.4874392e-06
1.4893961e-06
1.4914382e-06
1.4952705e-06
1.5019995e-06
7.6772417e-08
7.8647159e-08
8.0468796e-08
7.9046488e-08
7.7256613e-08
7.5461324e-08
7.3682473e-08
7.1956119e-08
7.0306999e-08
6.8744394e-08
6.7269024e-08
6.587805e-08
6.4566995e-08
6.3330693e-08
6.2163821e-08
6.1061146e-08
6.0017599e-08
5.9028386e-08
5.8089034e-08
5.7195451e-08
5.6343944e-08
5.5531137e-08
5.4754018e-08
5.400986e-08
5.3296127e-08
5.2610565e-08
5.1951144e-08
5.1315951e-08
5.0703256e-08
5.0111533e-08
4.9539347e-08
4.898534e-08
4.8448325e-08
4.7927237e-08
4.7421031e-08
4.6928724e-08
4.644947e-08
4.5982502e-08
4.5527048e-08
4.5082367e-08
4.4647834e-08
4.4222885e-08
4.3806941e-08
4.339944e-08
4.2999885e-08
4.2607843e-08
4.2222892e-08
4.1844596e-08
4.1472535e-08
4.1106368e-08
4.0745779e-08
4.039043e-08
4.0039979e-08
3.969412e-08
3.9352596e-08
3.9015154e-08
3.8681519e-08
3.8351408e-08
3.8024589e-08
3.7700857e-08
3.7379993e-08
3.7061757e-08
3.6745907e-08
3.6432257e-08
3.6120631e-08
3.581082e-08
3.5502602e-08
3.519577e-08
3.4890154e-08
3.4585586e-08
3.428185e-08
3.3978721e-08
3.3676022e-08
3.3373587e-08
3.3071205e-08
3.276864e-08
3.2465679e-08
3.2162138e-08
3.1857805e-08
3.1552422e-08
3.1245743e-08
3.0937557e-08
3.0627612e-08
3.0315601e-08
3.0001243e-08
2.968427e-08
2.9364352e-08
2.9041094e-08
2.8714243e-08
2.8390506e-08
2.8080045e-08
2.7785624e-08
2.7505932e-08
2.7239748e-08
2.6985965e-08
2.6743635e-08
2.6511912e-08
2.628999e-08
2.6077132e-08
2.5872715e-08
2.5676179e-08
2.5486984e-08
2.530462e-08
2.5128587e-08
2.495849e-08
2.4793773e-08
2.4634315e-08
2.4478374e-08
2.432825e-08
2.4173358e-08
2.4038778e-08
2.3814445e-08
1.4727934e-06
1.4728748e-06
1.4731102e-06
1.4734634e-06
1.4739023e-06
1.4744121e-06
1.4749843e-06
1.4756116e-06
1.4762888e-06
1.4770125e-06
1.4777808e-06
1.4785938e-06
1.4794531e-06
1.4803623e-06
1.4813283e-06
1.4823598e-06
1.4834756e-06
1.4846884e-06
1.4860638e-06
1.4875756e-06
1.489532e-06
1.4915822e-06
1.4953379e-06
1.5021343e-06
1.0110275e-07
1.1199503e-07
1.2084549e-07
1.2143753e-07
1.200928e-07
1.1826911e-07
1.162157e-07
1.1406837e-07
1.1191349e-07
1.0979933e-07
1.077512e-07
1.0578179e-07
1.038963e-07
1.0209557e-07
1.0037797e-07
9.8740435e-08
9.7178955e-08
9.5689074e-08
9.4266201e-08
9.2905847e-08
9.1603772e-08
9.0355944e-08
8.915865e-08
8.8008459e-08
8.6902089e-08
8.5836564e-08
8.4809182e-08
8.3817349e-08
8.2858682e-08
8.1931066e-08
8.10325e-08
8.016106e-08
7.931505e-08
7.8492951e-08
7.7693262e-08
7.691455e-08
7.6155576e-08
7.5415223e-08
7.4692358e-08
7.3985879e-08
7.3294854e-08
7.2618447e-08
7.1955798e-08
7.130606e-08
7.066848e-08
7.0042404e-08
6.94272e-08
6.8822206e-08
6.822678e-08
6.7640397e-08
6.7062576e-08
6.6492804e-08
6.5930556e-08
6.5375353e-08
6.4826799e-08
6.4284507e-08
6.374805e-08
6.321699e-08
6.2690958e-08
6.2169637e-08
6.1652689e-08
6.1139735e-08
6.0630394e-08
6.0124371e-08
5.962139e-08
5.9121123e-08
5.8623217e-08
5.8127341e-08
5.7633225e-08
5.71406e-08
5.6649126e-08
5.6158439e-08
5.5668254e-08
5.5178304e-08
5.468825e-08
5.4197715e-08
5.3706348e-08
5.3213854e-08
5.2719888e-08
5.2224033e-08
5.1725888e-08
5.1225106e-08
5.0721278e-08
5.0213903e-08
4.970252e-08
4.9186688e-08
4.8665871e-08
4.8139416e-08
4.7606905e-08
4.7079266e-08
4.6573079e-08
4.6092876e-08
4.5636545e-08
4.5202117e-08
4.4787804e-08
4.4392075e-08
4.4013564e-08
4.3650968e-08
4.3303095e-08
4.2968939e-08
4.264759e-08
4.2338178e-08
4.2039875e-08
4.1751871e-08
4.1473525e-08
4.1203938e-08
4.094291e-08
4.0687627e-08
4.0441804e-08
4.0188299e-08
3.9967947e-08
3.9600225e-08
1.4727914e-06
1.4728728e-06
1.4731099e-06
1.4734675e-06
1.4739126e-06
1.47443e-06
1.4750108e-06
1.4756476e-06
1.4763349e-06
1.477069e-06
1.4778481e-06
1.4786719e-06
1.479542e-06
1.480462e-06
1.4814383e-06
1.4824799e-06
1.4836052e-06
1.4848267e-06
1.4862094e-06
1.4877275e-06
1.4896827e-06
1.4917417e-06
1.4954078e-06
1.5022768e-06
1.2895686e-07
1.5279905e-07
1.7383495e-07
1.7908669e-07
1.795504e-07
1.7855314e-07
1.7680309e-07
1.746243e-07
1.7221631e-07
1.6970246e-07
1.6715915e-07
1.6463387e-07
1.6215542e-07
1.5974089e-07
1.5740005e-07
1.5513783e-07
1.529557e-07
1.5085289e-07
1.4882725e-07
1.4687589e-07
1.4499557e-07
1.4318281e-07
1.4143413e-07
1.3974614e-07
1.3811536e-07
1.3653852e-07
1.350126e-07
1.3353455e-07
1.3210153e-07
1.3071097e-07
1.293604e-07
1.280474e-07
1.2676977e-07
1.2552559e-07
1.2431289e-07
1.2312977e-07
1.2197457e-07
1.2084582e-07
1.1974197e-07
1.1866152e-07
1.1760317e-07
1.1656579e-07
1.1554818e-07
1.1454916e-07
1.1356766e-07
1.1260276e-07
1.1165358e-07
1.1071917e-07
1.097986e-07
1.0889112e-07
1.0799604e-07
1.0711263e-07
1.0624012e-07
1.053778e-07
1.0452509e-07
1.0368144e-07
1.0284621e-07
1.0201875e-07
1.0119852e-07
1.0038504e-07
9.9577813e-08
9.877627e-08
9.7979835e-08
9.7188056e-08
9.6400521e-08
9.5616737e-08
9.4836165e-08
9.4058294e-08
9.3282708e-08
9.2508997e-08
9.1736641e-08
9.0965072e-08
9.0193843e-08
8.9422541e-08
8.8650643e-08
8.7877553e-08
8.7102722e-08
8.632568e-08
8.5545889e-08
8.476269e-08
8.3975444e-08
8.31836e-08
8.2386508e-08
8.1583372e-08
8.077345e-08
7.995604e-08
7.913028e-08
7.8295128e-08
7.7449904e-08
7.6611952e-08
7.5807642e-08
7.5044238e-08
7.431844e-08
7.3627166e-08
7.2967619e-08
7.2337398e-08
7.1734362e-08
7.1156469e-08
7.0601846e-08
7.0068909e-08
6.9556231e-08
6.9062444e-08
6.8586245e-08
6.8126358e-08
6.768177e-08
6.7251066e-08
6.6833933e-08
6.6425932e-08
6.6032919e-08
6.5627828e-08
6.5275551e-08
6.4686862e-08
1.472789e-06
1.4728704e-06
1.4731094e-06
1.4734717e-06
1.4739237e-06
1.4744496e-06
1.4750401e-06
1.4756875e-06
1.476386e-06
1.4771319e-06
1.4779229e-06
1.4787589e-06
1.479641e-06
1.4805728e-06
1.4815607e-06
1.4826133e-06
1.483749e-06
1.48498e-06
1.4863703e-06
1.4878949e-06
1.4898478e-06
1.4919166e-06
1.4954782e-06
1.5024243e-06
1.5960101e-07
2.0021085e-07
2.3971528e-07
2.5340237e-07
2.5785893e-07
2.5916764e-07
2.5881863e-07
2.5744292e-07
2.5541668e-07
2.5298278e-07
2.5030283e-07
2.4748524e-07
2.4460216e-07
2.4170202e-07
2.3881789e-07
2.3597208e-07
2.3317896e-07
2.3044733e-07
2.2778223e-07
2.2518618e-07
2.2266009e-07
2.2020358e-07
2.1781551e-07
2.1549423e-07
2.1323752e-07
2.1104294e-07
2.0890811e-07
2.0683037e-07
2.0480703e-07
2.0283562e-07
2.0091368e-07
1.9903862e-07
1.9720811e-07
1.9542002e-07
1.9367218e-07
1.9196236e-07
1.9028863e-07
1.8864925e-07
1.8704241e-07
1.8546623e-07
1.839191e-07
1.8239965e-07
1.8090638e-07
1.7943778e-07
1.7799247e-07
1.7656927e-07
1.7516704e-07