/*--------------------------------*- C++ -*----------------------------------*\
  =========                 |
  \\      /  F ield         | OpenFOAM: The Open Source CFD Toolbox
   \\    /   O peration     | Website:  https://openfoam.org
    \\  /    A nd           | Version:  12
     \\/     M anipulation  |
\*---------------------------------------------------------------------------*/
FoamFile
{
    format      ascii;
    class       volScalarField;
    location    "500";
    object      nut;
}
// * * * * * * * * * * * * * * * * * * * * * * * * * * * * * * * * * * * * * //

dimensions      [0 2 -1 0 0 0 0];

internalField   nonuniform List<scalar> 
7480
(
1.0968766e-06
7.3299362e-07
5.7397966e-07
5.3826437e-07
5.6406437e-07
6.3878421e-07
7.7074677e-07
9.7634945e-07
1.2776417e-06
1.6982405e-06
2.257687e-06
2.9719259e-06
3.8462462e-06
4.8400034e-06
5.8329499e-06
6.6687e-06
7.2483751e-06
7.5686057e-06
7.705872e-06
7.6737668e-06
7.5828041e-06
7.4553402e-06
7.3080307e-06
7.165545e-06
7.0576275e-06
6.9895902e-06
6.9532455e-06
6.9376682e-06
6.9351488e-06
6.941394e-06
6.9526139e-06
6.9652085e-06
6.9772657e-06
6.955633e-06
6.9189206e-06
6.8825053e-06
6.8508272e-06
6.8247156e-06
6.803107e-06
6.7841777e-06
6.7663648e-06
6.7488582e-06
6.7314607e-06
6.7146365e-06
6.7011655e-06
6.6985051e-06
6.7348992e-06
6.8772616e-06
7.2286593e-06
7.8072905e-06
8.3399253e-06
8.6828455e-06
8.9493784e-06
9.1465444e-06
9.2774453e-06
9.3600533e-06
9.4139862e-06
9.4530465e-06
9.4835021e-06
9.5089748e-06
9.5310218e-06
9.5504054e-06
9.5677553e-06
9.5836943e-06
9.5985976e-06
9.6127975e-06
9.6266856e-06
9.6404834e-06
9.6542822e-06
9.6681748e-06
9.6822853e-06
9.6967485e-06
9.7116926e-06
9.7272367e-06
9.7434953e-06
9.7605795e-06
9.7785966e-06
9.797651e-06
9.8178398e-06
9.8392493e-06
9.8619531e-06
9.8859962e-06
9.9113001e-06
9.936891e-06
9.9510713e-06
9.7039917e-06
4.2981387e-06
4.004111e-06
4.0299401e-06
4.0472795e-06
4.0577567e-06
4.0657757e-06
4.0712364e-06
4.0746637e-06
4.0765904e-06
4.077413e-06
4.0773644e-06
4.0766814e-06
4.0754224e-06
4.0712816e-06
1.4075601e-06
1.3402079e-06
1.2664996e-06
1.1931624e-06
1.1224778e-06
1.0562633e-06
9.9398371e-07
9.4537849e-07
8.9792763e-07
9.1312273e-07
9.6190387e-07
1.0541719e-06
1.2046475e-06
1.4351426e-06
1.765687e-06
2.2015141e-06
2.7523124e-06
3.386612e-06
4.0875854e-06
4.8536946e-06
5.680239e-06
6.4693939e-06
7.1943742e-06
7.8598175e-06
8.4633292e-06
9.0053671e-06
9.4899401e-06
9.923732e-06
1.0318632e-05
1.0686599e-05
1.1030921e-05
1.1351558e-05
1.164487e-05
1.1905155e-05
1.2135456e-05
1.2345067e-05
1.2543912e-05
1.2746192e-05
1.2956949e-05
1.3175064e-05
1.3397391e-05
1.3621407e-05
1.3845089e-05
1.4066074e-05
1.4285442e-05
1.4486277e-05
1.467895e-05
1.4892173e-05
1.5171087e-05
1.5543321e-05
1.5950094e-05
1.6319785e-05
1.6638164e-05
1.6904444e-05
1.7128456e-05
1.732097e-05
1.7490927e-05
1.7646264e-05
1.7792695e-05
1.7934218e-05
1.8071089e-05
1.8202952e-05
1.833006e-05
1.8453243e-05
1.8572729e-05
1.8689075e-05
1.8803296e-05
1.8915817e-05
1.9026664e-05
1.9135923e-05
1.9243808e-05
1.9350583e-05
1.9456511e-05
1.9561834e-05
1.9666784e-05
1.9771583e-05
1.9876444e-05
1.9981569e-05
2.0087147e-05
2.0193343e-05
2.0300299e-05
2.0408103e-05
2.0516592e-05
2.0623888e-05
2.070792e-05
2.0527913e-05
1.7373066e-05
1.5971929e-05
1.4918072e-05
1.4262036e-05
1.3827327e-05
1.3533079e-05
1.3325685e-05
1.3175659e-05
1.3064622e-05
1.2980823e-05
1.2916204e-05
1.2865661e-05
1.2825094e-05
1.2791661e-05
1.4402177e-06
1.4166808e-06
1.3905326e-06
1.3630878e-06
1.3347228e-06
1.3048895e-06
1.2733293e-06
1.2399798e-06
1.2048056e-06
1.170192e-06
1.1373232e-06
1.1075851e-06
1.0828074e-06
1.0648197e-06
1.0478879e-06
1.0500507e-06
1.0664523e-06
1.1255033e-06
1.2383559e-06
1.4176784e-06
1.680188e-06
2.0420549e-06
2.506051e-06
3.0919444e-06
3.7689883e-06
4.5305545e-06
5.3900711e-06
6.2974842e-06
7.214972e-06
8.1146108e-06
8.9734543e-06
9.7728132e-06
1.0487482e-05
1.1133319e-05
1.1740081e-05
1.2326667e-05
1.2895783e-05
1.344649e-05
1.3973694e-05
1.4480652e-05
1.4971342e-05
1.5449502e-05
1.5915712e-05
1.6368322e-05
1.6807766e-05
1.723131e-05
1.7637473e-05
1.8029626e-05
1.842702e-05
1.8841148e-05
1.926582e-05
1.968899e-05
2.009378e-05
2.0476274e-05
2.0838858e-05
2.1182659e-05
2.150832e-05
2.1820388e-05
2.2124475e-05
2.2424036e-05
2.2716054e-05
2.2999385e-05
2.3274257e-05
2.35417e-05
2.3801251e-05
2.4053941e-05
2.4301355e-05
2.4543661e-05
2.4780608e-05
2.5012204e-05
2.523866e-05
2.5460241e-05
2.5677205e-05
2.5889786e-05
2.609821e-05
2.6302695e-05
2.650345e-05
2.6700685e-05
2.6894603e-05
2.7085391e-05
2.7273236e-05
2.7458285e-05
2.7640509e-05
2.7818799e-05
2.7979469e-05
2.7998854e-05
2.6868331e-05
2.6273721e-05
2.5821148e-05
2.5545198e-05
2.5377951e-05
2.5283226e-05
2.5232133e-05
2.5207472e-05
2.5198578e-05
2.5199436e-05
2.5204343e-05
2.5215358e-05
2.5215626e-05
2.5249675e-05
1.449862e-06
1.4380485e-06
1.4251505e-06
1.4116465e-06
1.3976428e-06
1.3831419e-06
1.3681432e-06
1.3525037e-06
1.3361812e-06
1.3189722e-06
1.3007933e-06
1.2815487e-06
1.2612337e-06
1.2401615e-06
1.2191525e-06
1.1986867e-06
1.1789984e-06
1.1609243e-06
1.1462963e-06
1.1359321e-06
1.1302723e-06
1.1347545e-06
1.1508663e-06
1.1927666e-06
1.2832312e-06
1.4363282e-06
1.6723528e-06
2.0114417e-06
2.4681009e-06
3.0686995e-06
3.8078182e-06
4.6648061e-06
5.63907e-06
6.6769033e-06
7.7313732e-06
8.7685862e-06
9.7664455e-06
1.0714308e-05
1.1612381e-05
1.2467061e-05
1.328713e-05
1.4081608e-05
1.4846247e-05
1.5580906e-05
1.6302628e-05
1.7013404e-05
1.7701852e-05
1.8365569e-05
1.9010473e-05
1.9641325e-05
2.0260248e-05
2.0866515e-05
2.1459255e-05
2.2036676e-05
2.259656e-05
2.3137418e-05
2.3658835e-05
2.4170187e-05
2.467552e-05
2.5175714e-05
2.566108e-05
2.6133192e-05
2.6593169e-05
2.704232e-05
2.7478663e-05
2.7905252e-05
2.8323816e-05
2.873353e-05
2.9134002e-05
2.9525364e-05
2.9907876e-05
3.0281789e-05
3.0647326e-05
3.1004684e-05
3.1354043e-05
3.1695569e-05
3.2029415e-05
3.2355728e-05
3.2674648e-05
3.2986305e-05
3.3290829e-05
3.3588338e-05
3.3878847e-05
3.4162057e-05
3.4432457e-05
3.4648988e-05
3.4505292e-05
3.4473222e-05
3.4462258e-05
3.4502695e-05
3.4583003e-05
3.4693788e-05
3.4823097e-05
3.4962044e-05
3.5104398e-05
3.524732e-05
3.5385273e-05
3.5527996e-05
3.5634044e-05
3.5847052e-05
1.4545989e-06
1.4475758e-06
1.4399919e-06
1.4320717e-06
1.423861e-06
1.4153628e-06
1.4065719e-06
1.397478e-06
1.3880712e-06
1.3783286e-06
1.3682198e-06
1.357706e-06
1.3467442e-06
1.3352825e-06
1.3233381e-06
1.3108783e-06
1.297921e-06
1.2843357e-06
1.2700816e-06
1.2554538e-06
1.2409274e-06
1.2267756e-06
1.2132536e-06
1.2010196e-06
1.1920813e-06
1.1837067e-06
1.1848968e-06
1.1921752e-06
1.2145663e-06
1.2578693e-06
1.354284e-06
1.5252827e-06
1.7980915e-06
2.1996806e-06
2.7489667e-06
3.4866098e-06
4.3719204e-06
5.3939743e-06
6.5289973e-06
7.7197154e-06
8.9207677e-06
1.0098628e-05
1.1233943e-05
1.2321162e-05
1.3366365e-05
1.4380951e-05
1.537105e-05
1.6335623e-05
1.7273195e-05
1.8184378e-05
1.9071944e-05
1.9933435e-05
2.0780405e-05
2.1606793e-05
2.2412774e-05
2.3198469e-05
2.3963463e-05
2.4711024e-05
2.5444295e-05
2.6165817e-05
2.6872712e-05
2.756428e-05
2.8240598e-05
2.8902815e-05
2.9545381e-05
3.0178744e-05
3.0801607e-05
3.1410977e-05
3.2007384e-05
3.2591355e-05
3.3163242e-05
3.372332e-05
3.4271828e-05
3.4808979e-05
3.5334963e-05
3.5849953e-05
3.6354103e-05
3.6847558e-05
3.7330449e-05
3.7802897e-05
3.8265022e-05
3.8716937e-05
3.9158689e-05
3.9590352e-05
4.0010092e-05
4.0407681e-05
4.0701361e-05
4.1005408e-05
4.1293511e-05
4.1580923e-05
4.1873085e-05
4.2172282e-05
4.2475749e-05
4.2779636e-05
4.308021e-05
4.3376408e-05
4.3661893e-05
4.3953586e-05
4.4182003e-05
4.4608973e-05
1.4575515e-06
1.452962e-06
1.4480374e-06
1.4429013e-06
1.4375783e-06
1.4320685e-06
1.4263665e-06
1.4204659e-06
1.4143605e-06
1.4080435e-06
1.401509e-06
1.3947505e-06
1.387762e-06
1.3805359e-06
1.3730627e-06
1.3653295e-06
1.3573228e-06
1.3490226e-06
1.3403983e-06
1.3314174e-06
1.3220718e-06
1.312326e-06
1.3022352e-06
1.2914573e-06
1.2802992e-06
1.2689803e-06
1.2578712e-06
1.2471993e-06
1.2371873e-06
1.2293488e-06
1.2210442e-06
1.2212771e-06
1.2260606e-06
1.2424653e-06
1.2792797e-06
1.354384e-06
1.5050123e-06
1.7621679e-06
2.1621631e-06
2.7312532e-06
3.5273334e-06
4.5050295e-06
5.6500873e-06
6.9285538e-06
8.2743077e-06
9.6334777e-06
1.0968714e-05
1.2262858e-05
1.3515077e-05
1.4731897e-05
1.5919437e-05
1.7078914e-05
1.8210718e-05
1.9316251e-05
2.0396833e-05
2.1453755e-05
2.2486992e-05
2.3497077e-05
2.4486043e-05
2.5456654e-05
2.640936e-05
2.7343901e-05
2.8260122e-05
2.9158849e-05
3.0037556e-05
3.090017e-05
3.1747776e-05
3.2579684e-05
3.3395804e-05
3.4196435e-05
3.4981926e-05
3.5752591e-05
3.6508713e-05
3.7250547e-05
3.7978324e-05
3.8692251e-05
3.9392517e-05
4.0079293e-05
4.0752735e-05
4.1412986e-05
4.2060184e-05
4.2694458e-05
4.3315888e-05
4.3924678e-05
4.4520397e-05
4.5102075e-05
4.5653584e-05
4.6195792e-05
4.6715102e-05
4.721558e-05
4.7704295e-05
4.8187113e-05
4.866568e-05
4.9139147e-05
4.9605308e-05
5.0064227e-05
5.0508359e-05
5.0961643e-05
5.132426e-05
5.1990304e-05
1.4596599e-06
1.4564591e-06
1.4530435e-06
1.4494864e-06
1.4458019e-06
1.4419897e-06
1.4380456e-06
1.4339651e-06
1.4297434e-06
1.4253754e-06
1.4208563e-06
1.4161819e-06
1.4113483e-06
1.4063523e-06
1.401191e-06
1.3958609e-06
1.3903574e-06
1.384675e-06
1.3788067e-06
1.3727425e-06
1.3664715e-06
1.3599789e-06
1.3532534e-06
1.3462702e-06
1.3390001e-06
1.3314375e-06
1.3235559e-06
1.3153552e-06
1.3068032e-06
1.2978966e-06
1.2886165e-06
1.2794545e-06
1.2706302e-06
1.2623166e-06
1.2558907e-06
1.2493765e-06
1.2500034e-06
1.2554165e-06
1.2731175e-06
1.3134738e-06
1.3943777e-06
1.5638749e-06
1.8629537e-06
2.3356469e-06
3.0273542e-06
3.9779551e-06
5.1417527e-06
6.4990131e-06
7.9750219e-06
9.4985326e-06
1.1013911e-05
1.2491325e-05
1.3925845e-05
1.5325063e-05
1.6696068e-05
1.8040756e-05
1.9358105e-05
2.0647884e-05
2.1911712e-05
2.3151872e-05
2.4369589e-05
2.5565393e-05
2.6739649e-05
2.7893113e-05
2.9024996e-05
3.0136212e-05
3.1228147e-05
3.2301298e-05
3.3355785e-05
3.4391845e-05
3.5409812e-05
3.6410022e-05
3.7392802e-05
3.8358455e-05
3.9307259e-05
4.0239468e-05
4.1155315e-05
4.2055009e-05
4.2938745e-05
4.3806699e-05
4.4659039e-05
4.549592e-05
4.6317453e-05
4.7123872e-05
4.7915238e-05
4.8692515e-05
4.9456448e-05
5.0208065e-05
5.0937732e-05
5.1643511e-05
5.2329788e-05
5.3002368e-05
5.3664708e-05
5.431781e-05
5.4960577e-05
5.5593998e-05
5.6209228e-05
5.6837327e-05
5.7346237e-05
5.8274604e-05
1.4612935e-06
1.4589555e-06
1.4564719e-06
1.4538886e-06
1.4512144e-06
1.4484486e-06
1.4455884e-06
1.4426305e-06
1.4395715e-06
1.4364078e-06
1.4331359e-06
1.4297525e-06
1.4262545e-06
1.422639e-06
1.4189034e-06
1.415045e-06
1.4110605e-06
1.4069464e-06
1.402698e-06
1.3983103e-06
1.3937781e-06
1.3890956e-06
1.3842564e-06
1.379255e-06
1.374084e-06
1.3687353e-06
1.3631984e-06
1.3574618e-06
1.3515136e-06
1.3453321e-06
1.3389087e-06
1.3322139e-06
1.3252449e-06
1.3179824e-06
1.3104042e-06
1.3025179e-06
1.294766e-06
1.2873268e-06
1.2806206e-06
1.2756486e-06
1.2719792e-06
1.2741063e-06
1.283331e-06
1.3098609e-06
1.3665702e-06
1.490945e-06
1.7367668e-06
2.1635014e-06
2.8212978e-06
3.7935238e-06
5.0243277e-06
6.4867685e-06
8.1050092e-06
9.789195e-06
1.1470897e-05
1.3116458e-05
1.4722132e-05
1.6295984e-05
1.78434e-05
1.9364721e-05
2.0859428e-05
2.2328593e-05
2.3773584e-05
2.5195094e-05
2.6592826e-05
2.7966988e-05
2.9318497e-05
3.0648055e-05
3.1956054e-05
3.3242845e-05
3.4508769e-05
3.5754157e-05
3.6979355e-05
3.8184697e-05
3.9370492e-05
4.0537029e-05
4.1684577e-05
4.2813383e-05
4.3923676e-05
4.5015668e-05
4.6089556e-05
4.7145518e-05
4.8183701e-05
4.9204325e-05
5.0207616e-05
5.1194422e-05
5.2168459e-05
5.3128904e-05
5.4069116e-05
5.498479e-05
5.5877266e-05
5.6750854e-05
5.7609365e-05
5.8454888e-05
5.9287209e-05
6.0108205e-05
6.0907778e-05
6.1724314e-05
6.2391913e-05
6.3604786e-05
1.4626422e-06
1.4608741e-06
1.4590029e-06
1.4570587e-06
1.4550469e-06
1.4529671e-06
1.450817e-06
1.4485944e-06
1.4462967e-06
1.4439213e-06
1.4414656e-06
1.4389272e-06
1.4363037e-06
1.4335928e-06
1.4307925e-06
1.4279004e-06
1.4249141e-06
1.4218306e-06
1.4186464e-06
1.4153579e-06
1.4119609e-06
1.4084515e-06
1.4048253e-06
1.4010781e-06
1.3972055e-06
1.3932032e-06
1.3890664e-06
1.3847904e-06
1.38037e-06
1.3757992e-06
1.3710722e-06
1.36618e-06
1.361112e-06
1.3558577e-06
1.3503969e-06
1.3447217e-06
1.3388017e-06
1.3326629e-06
1.3261527e-06
1.319409e-06
1.3125809e-06
1.3059734e-06
1.299718e-06
1.2948286e-06
1.2904693e-06
1.2916215e-06
1.2982211e-06
1.3192665e-06
1.3692423e-06
1.4780868e-06
1.715983e-06
2.1538661e-06
2.8562549e-06
3.921886e-06
5.2885614e-06
6.9200468e-06
8.7156937e-06
1.0572034e-05
1.2416848e-05
1.4222961e-05
1.5993669e-05
1.7738261e-05
1.945935e-05
2.1155419e-05
2.282584e-05
2.447128e-05
2.6092244e-05
2.7688923e-05
2.9261717e-05
3.0811081e-05
3.233729e-05
3.3840587e-05
3.532129e-05
3.6779701e-05
3.8216101e-05
3.9630778e-05
4.1024003e-05
4.2396029e-05
4.3747102e-05
4.507745e-05
4.6387285e-05
4.7676798e-05
4.8946155e-05
5.0195555e-05
5.1425266e-05
5.2635646e-05
5.3829955e-05
5.5008658e-05
5.6167817e-05
5.730286e-05
5.8412902e-05
5.9500397e-05
6.0568673e-05
6.1620316e-05
6.2655779e-05
6.36778e-05
6.4675116e-05
6.5693655e-05
6.6532319e-05
6.8050925e-05
1.463815e-06
1.4624412e-06
1.4609919e-06
1.4594873e-06
1.4579311e-06
1.4563227e-06
1.4546605e-06
1.4529428e-06
1.4511676e-06
1.4493329e-06
1.447437e-06
1.4454778e-06
1.4434535e-06
1.4413624e-06
1.4392027e-06
1.4369727e-06
1.4346704e-06
1.4322935e-06
1.4298394e-06
1.4273052e-06
1.424688e-06
1.4219846e-06
1.4191917e-06
1.4163061e-06
1.4133244e-06
1.4102431e-06
1.4070587e-06
1.4037677e-06
1.4003664e-06
1.396851e-06
1.3932175e-06
1.3894617e-06
1.385579e-06
1.3815646e-06
1.3774127e-06
1.3731181e-06
1.3686719e-06
1.364067e-06
1.3592876e-06
1.3543156e-06
1.3491437e-06
1.3437585e-06
1.3381544e-06
1.3322866e-06
1.3262017e-06
1.3202802e-06
1.3146427e-06
1.3101483e-06
1.3062341e-06
1.3073431e-06
1.3139687e-06
1.3355803e-06
1.389166e-06
1.5116882e-06
1.7879931e-06
2.3034147e-06
3.1516032e-06
4.4068444e-06
6.0031122e-06
7.8692507e-06
9.8737324e-06
1.1906517e-05
1.3910279e-05
1.5876767e-05
1.7815999e-05
1.9732863e-05
2.1625711e-05
2.3493319e-05
2.533637e-05
2.7155251e-05
2.8949745e-05
3.071988e-05
3.2465862e-05
3.4187799e-05
3.5885826e-05
3.7560145e-05
3.9210945e-05
4.0838418e-05
4.2442771e-05
4.4024202e-05
4.5582897e-05
4.7119022e-05
4.8632741e-05
5.0124209e-05
5.159368e-05
5.3041062e-05
5.4468668e-05
5.5878069e-05
5.7267449e-05
5.8633004e-05
5.9972619e-05
6.128706e-05
6.2578741e-05
6.3850258e-05
6.5102487e-05
6.6338952e-05
6.7547297e-05
6.8781177e-05
6.9803136e-05
7.1647923e-05
1.4648729e-06
1.4637822e-06
1.4626345e-06
1.4614439e-06
1.4602128e-06
1.4589408e-06
1.4576265e-06
1.4562687e-06
1.4548659e-06
1.4534165e-06
1.4519191e-06
1.4503721e-06
1.4487742e-06
1.4471239e-06
1.4454198e-06
1.4436606e-06
1.4418445e-06
1.4399699e-06
1.4380347e-06
1.4360368e-06
1.4339737e-06
1.4318432e-06
1.4296427e-06
1.4273696e-06
1.4250213e-06
1.4225952e-06
1.4200885e-06
1.4174984e-06
1.414822e-06
1.4120563e-06
1.4091981e-06
1.4062441e-06
1.403191e-06
1.4000351e-06
1.3967727e-06
1.3934002e-06
1.3899137e-06
1.3863091e-06
1.3825822e-06
1.3787279e-06
1.3747401e-06
1.3706103e-06
1.3663304e-06
1.3618836e-06
1.3572596e-06
1.3524402e-06
1.3474254e-06
1.3421582e-06
1.3366882e-06
1.3313709e-06
1.3263657e-06
1.3224059e-06
1.3197083e-06
1.3216324e-06
1.3307639e-06
1.3594758e-06
1.430056e-06
1.604275e-06
1.987415e-06
2.673838e-06
3.829916e-06
5.3940892e-06
7.3124858e-06
9.4480704e-06
1.1657196e-05
1.3851747e-05
1.6009889e-05
1.8140926e-05
2.025138e-05
2.2339532e-05
2.4403517e-05
2.6443555e-05
2.8459605e-05
3.0451158e-05
3.2418052e-05
3.4360262e-05
3.6277708e-05
3.8170395e-05
4.0038385e-05
4.1881747e-05
4.3700552e-05
4.5494875e-05
4.7264816e-05
4.9010456e-05
5.0731966e-05
5.2428881e-05
5.4102773e-05
5.575574e-05
5.7387379e-05
5.8995001e-05
6.0576069e-05
6.2130079e-05
6.3658382e-05
6.516322e-05
6.6645623e-05
6.810977e-05
6.9542242e-05
7.1004555e-05
7.2221881e-05
7.4412713e-05
1.46584e-06
1.4649586e-06
1.4640332e-06
1.4630739e-06
1.4620821e-06
1.4610576e-06
1.4599994e-06
1.4589063e-06
1.4577772e-06
1.4566109e-06
1.4554062e-06
1.4541619e-06
1.452877e-06
1.4515502e-06
1.4501804e-06
1.4487664e-06
1.447307e-06
1.4458007e-06
1.444246e-06
1.442641e-06
1.4409841e-06
1.4392733e-06
1.4375067e-06
1.4356822e-06
1.4337977e-06
1.4318512e-06
1.4298406e-06
1.4277635e-06
1.4256177e-06
1.4234007e-06
1.4211102e-06
1.4187435e-06
1.4162978e-06
1.4137703e-06
1.411158e-06
1.4084581e-06
1.4056674e-06
1.4027827e-06
1.3998011e-06
1.396719e-06
1.3935332e-06
1.3902397e-06
1.3868346e-06
1.3833131e-06
1.3796704e-06
1.3758986e-06
1.3719904e-06
1.3679295e-06
1.3637058e-06
1.3593011e-06
1.3547192e-06
1.3498932e-06
1.3449638e-06
1.340138e-06
1.3360727e-06
1.3318063e-06
1.3320955e-06
1.336352e-06
1.3525261e-06
1.3996638e-06
1.5155301e-06
1.8139867e-06
2.4135133e-06
3.4701498e-06
5.0365197e-06
7.0315267e-06
9.3139239e-06
1.1706064e-05
1.4093056e-05
1.644369e-05
1.8767858e-05
2.1072882e-05
2.335666e-05
2.561717e-05
2.7854362e-05
3.0067732e-05
3.2256551e-05
3.442049e-05
3.655928e-05
3.8672659e-05
4.0760443e-05
4.2822488e-05
4.4858733e-05
4.6869099e-05
4.885359e-05
5.0811368e-05
5.2743535e-05
5.4652329e-05
5.6538091e-05
5.8399177e-05
6.0233164e-05
6.2038745e-05
6.3816269e-05
6.5567386e-05
6.7293023e-05
6.899783e-05
7.0667312e-05
7.2370923e-05
7.3795564e-05
7.6351843e-05
1.4667178e-06
1.4659951e-06
1.4652378e-06
1.4644532e-06
1.4636423e-06
1.4628048e-06
1.4619398e-06
1.4610465e-06
1.460124e-06
1.4591712e-06
1.4581873e-06
1.4571713e-06
1.4561222e-06
1.4550391e-06
1.4539211e-06
1.4527672e-06
1.4515763e-06
1.4503472e-06
1.4490788e-06
1.4477697e-06
1.4464183e-06
1.4450232e-06
1.4435828e-06
1.4420954e-06
1.4405596e-06
1.4389735e-06
1.4373354e-06
1.4356435e-06
1.433896e-06
1.432091e-06
1.4302264e-06
1.4283002e-06
1.4263102e-06
1.4242541e-06
1.4221295e-06
1.4199341e-06
1.4176654e-06
1.4153209e-06
1.4128979e-06
1.4103938e-06
1.4078058e-06
1.4051308e-06
1.4023659e-06
1.3995077e-06
1.396553e-06
1.3934983e-06
1.3903396e-06
1.3870727e-06
1.3836929e-06
1.3801929e-06
1.3765659e-06
1.372796e-06
1.3688737e-06
1.3647853e-06
1.3605084e-06
1.3559487e-06
1.3514935e-06
1.3472866e-06
1.3438648e-06
1.3418601e-06
1.3440427e-06
1.3547415e-06
1.3894998e-06
1.4813959e-06
1.7335168e-06
2.2901667e-06
3.322399e-06
4.9455312e-06
7.0642192e-06
9.5197104e-06
1.2103425e-05
1.468302e-05
1.7226416e-05
1.9745686e-05
2.2247166e-05
2.4727961e-05
2.7186336e-05
2.9621957e-05
3.2033842e-05
3.4421084e-05
3.6783064e-05
3.9119213e-05
4.1429144e-05
4.3712486e-05
4.5968924e-05
4.819716e-05
5.0397999e-05
5.2573622e-05
5.4724566e-05
5.6849937e-05
5.8947667e-05
6.1016054e-05
6.3054627e-05
6.5064333e-05
6.7045774e-05
6.9003866e-05
7.0922974e-05
7.2880516e-05
7.4524262e-05
7.746499e-05
1.4675031e-06
1.4669034e-06
1.466276e-06
1.4656262e-06
1.4649549e-06
1.4642617e-06
1.4635458e-06
1.4628066e-06
1.4620433e-06
1.4612552e-06
1.4604414e-06
1.4596012e-06
1.4587337e-06
1.4578383e-06
1.4569142e-06
1.4559604e-06
1.4549762e-06
1.4539605e-06
1.4529124e-06
1.4518308e-06
1.4507143e-06
1.449562e-06
1.4483724e-06
1.4471442e-06
1.4458761e-06
1.4445668e-06
1.4432148e-06
1.4418187e-06
1.4403769e-06
1.4388879e-06
1.43735e-06
1.4357617e-06
1.434121e-06
1.4324262e-06
1.4306753e-06
1.4288664e-06
1.4269976e-06
1.4250667e-06
1.4230716e-06
1.4210101e-06
1.4188799e-06
1.4166787e-06
1.4144038e-06
1.4120526e-06
1.4096225e-06
1.4071105e-06
1.4045136e-06
1.4018289e-06
1.399053e-06
1.3961829e-06
1.3932149e-06
1.3901453e-06
1.3869693e-06
1.3836811e-06
1.3802687e-06
1.3767216e-06
1.373018e-06
1.3691667e-06
1.3650902e-06
1.3609388e-06
1.3569274e-06
1.3535699e-06
1.3509517e-06
1.352391e-06
1.3607909e-06
1.3900949e-06
1.472819e-06
1.7129669e-06
2.2779614e-06
3.3704479e-06
5.1260635e-06
7.4355971e-06
1.0102223e-05
1.288913e-05
1.5662433e-05
1.8400626e-05
2.111845e-05
2.3819323e-05
2.6499797e-05
2.91585e-05
3.1794452e-05
3.4406324e-05
3.6993225e-05
3.9554278e-05
4.208862e-05
4.4594309e-05
4.7071885e-05
4.9523369e-05
5.1949068e-05
5.4348429e-05
5.671973e-05
5.9061146e-05
6.1371603e-05
6.3651334e-05
6.5900458e-05
6.8123933e-05
7.0304892e-05
7.2528664e-05
7.4403059e-05
7.7747936e-05
1.468198e-06
1.467695e-06
1.4671697e-06
1.4666259e-06
1.4660642e-06
1.4654842e-06
1.4648854e-06
1.4642672e-06
1.4636288e-06
1.4629699e-06
1.4622895e-06
1.4615872e-06
1.4608622e-06
1.4601139e-06
1.4593417e-06
1.4585448e-06
1.4577225e-06
1.456874e-06
1.4559985e-06
1.455095e-06
1.4541626e-06
1.4532003e-06
1.452207e-06
1.4511816e-06
1.4501232e-06
1.4490304e-06
1.4479021e-06
1.4467372e-06
1.4455344e-06
1.4442924e-06
1.4430099e-06
1.4416855e-06
1.4403177e-06
1.4389049e-06
1.4374458e-06
1.4359386e-06
1.4343816e-06
1.4327733e-06
1.4311119e-06
1.4293955e-06
1.4276222e-06
1.4257902e-06
1.4238972e-06
1.4219412e-06
1.4199198e-06
1.4178308e-06
1.4156717e-06
1.4134398e-06
1.4111327e-06
1.4087476e-06
1.4062818e-06
1.4037326e-06
1.4010971e-06
1.3983723e-06
1.3955543e-06
1.3926399e-06
1.3896223e-06
1.3864955e-06
1.3832453e-06
1.3798586e-06
1.3763348e-06
1.3726044e-06
1.3687352e-06
1.3649729e-06
1.3617905e-06
1.3591374e-06
1.3603786e-06
1.3682796e-06
1.3970859e-06
1.4823838e-06
1.7453135e-06
2.3767708e-06
3.6352777e-06
5.6174768e-06
8.1945413e-06
1.1106577e-05
1.4102744e-05
1.707104e-05
2.0008511e-05
2.29289e-05
2.5831697e-05
2.8714225e-05
3.1575513e-05
3.4413884e-05
3.7227606e-05
4.0013869e-05
4.2772839e-05
4.5506273e-05
4.821391e-05
5.0895088e-05
5.354821e-05
5.6171422e-05
5.8763233e-05
6.1323212e-05
6.3850883e-05
6.6351043e-05
6.8805459e-05
7.1307278e-05
7.3423498e-05
7.7191629e-05
1.4688081e-06
1.4683825e-06
1.4679387e-06
1.4674794e-06
1.467005e-06
1.4665153e-06
1.4660097e-06
1.4654878e-06
1.4649491e-06
1.4643929e-06
1.4638189e-06
1.4632263e-06
1.4626147e-06
1.4619835e-06
1.4613321e-06
1.46066e-06
1.4599666e-06
1.4592511e-06
1.4585128e-06
1.4577511e-06
1.456965e-06
1.4561538e-06
1.4553165e-06
1.4544524e-06
1.4535604e-06
1.4526396e-06
1.4516891e-06
1.4507079e-06
1.4496948e-06
1.4486489e-06
1.4475691e-06
1.4464541e-06
1.4453027e-06
1.4441137e-06
1.4428859e-06
1.4416178e-06
1.4403081e-06
1.4389554e-06
1.4375583e-06
1.4361152e-06
1.4346246e-06
1.4330848e-06
1.4314941e-06
1.4298507e-06
1.4281527e-06
1.4263983e-06
1.4245854e-06
1.4227118e-06
1.4207754e-06
1.418774e-06
1.4167052e-06
1.4145668e-06
1.4123564e-06
1.4100714e-06
1.4077091e-06
1.4052666e-06
1.4027409e-06
1.4001288e-06
1.397427e-06
1.3946306e-06
1.3917347e-06
1.3887263e-06
1.3855932e-06
1.3823308e-06
1.3788768e-06
1.3752699e-06
1.3717661e-06
1.3687881e-06
1.3664595e-06
1.3679151e-06
1.3769351e-06
1.4107849e-06
1.5123808e-06
1.8439989e-06
2.616585e-06
4.195505e-06
6.5143197e-06
9.4161791e-06
1.2583783e-05
1.5781692e-05
1.8944338e-05
2.2085525e-05
2.5212291e-05
2.8321045e-05
3.1409478e-05
3.4473989e-05
3.7514148e-05
4.0531375e-05
4.3524541e-05
4.6492405e-05
4.9433132e-05
5.2344749e-05
5.5225435e-05
5.8074148e-05
6.0889747e-05
6.3676676e-05
6.6415182e-05
6.9206083e-05
7.1574755e-05
7.5783373e-05
1.4693438e-06
1.4689809e-06
1.4686028e-06
1.4682117e-06
1.4678079e-06
1.467391e-06
1.4669607e-06
1.4665165e-06
1.4660581e-06
1.4655849e-06
1.4650965e-06
1.4645924e-06
1.4640722e-06
1.4635354e-06
1.4629815e-06
1.46241e-06
1.4618203e-06
1.461212e-06
1.4605843e-06
1.4599367e-06
1.4592685e-06
1.458579e-06
1.4578674e-06
1.4571331e-06
1.4563752e-06
1.4555929e-06
1.4547854e-06
1.4539519e-06
1.4530915e-06
1.4522034e-06
1.4512865e-06
1.4503398e-06
1.4493625e-06
1.4483534e-06
1.4473114e-06
1.4462355e-06
1.4451244e-06
1.443977e-06
1.4427921e-06
1.4415684e-06
1.4403046e-06
1.4389993e-06
1.4376511e-06
1.4362585e-06
1.4348199e-06
1.4333337e-06
1.4317982e-06
1.4302117e-06
1.4285723e-06
1.4268782e-06
1.4251274e-06
1.4233181e-06
1.4214482e-06
1.4195156e-06
1.417518e-06
1.4154528e-06
1.4133177e-06
1.41111e-06
1.4088272e-06
1.4064665e-06
1.4040252e-06
1.4015002e-06
1.3988873e-06
1.396182e-06
1.3933723e-06
1.390446e-06
1.3873983e-06
1.3841669e-06
1.3808002e-06
1.377558e-06
1.3747915e-06
1.3731846e-06
1.3753622e-06
1.3877059e-06
1.4323492e-06
1.5758482e-06
2.0430031e-06
3.1054652e-06
5.0884934e-06
7.856761e-06
1.1126746e-05
1.454799e-05
1.7948433e-05
2.1316822e-05
2.4669466e-05
2.800374e-05
3.1318636e-05
3.4615817e-05
3.7893058e-05
4.114813e-05
4.4378545e-05
4.7581983e-05
5.0756251e-05
5.3899695e-05
5.7010448e-05
6.0092413e-05
6.3124149e-05
6.6213946e-05
6.8844752e-05
7.3510394e-05
1.4698191e-06
1.4695074e-06
1.469183e-06
1.4688476e-06
1.4685013e-06
1.4681439e-06
1.4677749e-06
1.4673942e-06
1.4670012e-06
1.4665956e-06
1.4661771e-06
1.4657451e-06
1.4652994e-06
1.4648395e-06
1.4643649e-06
1.4638753e-06
1.4633702e-06
1.4628492e-06
1.4623116e-06
1.461757e-06
1.4611848e-06
1.4605943e-06
1.4599851e-06
1.4593564e-06
1.4587076e-06
1.4580381e-06
1.457347e-06
1.4566338e-06
1.4558976e-06
1.4551377e-06
1.4543533e-06
1.4535437e-06
1.4527078e-06
1.4518449e-06
1.450954e-06
1.4500342e-06
1.4490845e-06
1.4481039e-06
1.4470913e-06
1.4460458e-06
1.4449661e-06
1.4438512e-06
1.4426998e-06
1.4415106e-06
1.4402824e-06
1.4390138e-06
1.4377033e-06
1.4363494e-06
1.4349508e-06
1.4335057e-06
1.4320126e-06
1.4304698e-06
1.4288757e-06
1.4272284e-06
1.4255261e-06
1.4237665e-06
1.4219477e-06
1.4200675e-06
1.4181236e-06
1.4161138e-06
1.4140357e-06
1.4118868e-06
1.4096647e-06
1.4073666e-06
1.4049898e-06
1.4025304e-06
1.3999842e-06
1.3973395e-06
1.3945835e-06
1.3917143e-06
1.3886642e-06
1.3854914e-06
1.3826937e-06
1.3793927e-06
1.3795756e-06
1.3834561e-06
1.4030936e-06
1.4693551e-06
1.7173874e-06
2.4167794e-06
3.9832775e-06
6.5129114e-06
9.7901333e-06
1.3400391e-05
1.704213e-05
2.0641421e-05
2.4219978e-05
2.7787917e-05
3.1341725e-05
3.4878738e-05
3.8395748e-05
4.1889892e-05
4.5358478e-05
4.8799143e-05
5.2209201e-05
5.5591834e-05
5.8923714e-05
6.2320381e-05
6.5221514e-05
7.0359016e-05
1.470248e-06
1.4699786e-06
1.4696984e-06
1.4694089e-06
1.4691099e-06
1.4688014e-06
1.468483e-06
1.4681545e-06
1.4678154e-06
1.4674655e-06
1.4671044e-06
1.4667318e-06
1.4663473e-06
1.4659507e-06
1.4655414e-06
1.4651192e-06
1.4646837e-06
1.4642344e-06
1.4637709e-06
1.4632928e-06
1.4627995e-06
1.4622906e-06
1.4617655e-06
1.4612237e-06
1.4606646e-06
1.4600876e-06
1.4594922e-06
1.4588778e-06
1.4582437e-06
1.4575892e-06
1.4569137e-06
1.4562165e-06
1.4554968e-06
1.4547539e-06
1.4539871e-06
1.4531954e-06
1.4523781e-06
1.4515343e-06
1.4506632e-06
1.4497638e-06
1.4488352e-06
1.4478763e-06
1.4468863e-06
1.4458639e-06
1.4448081e-06
1.4437177e-06
1.4425915e-06
1.4414283e-06
1.4402267e-06
1.4389855e-06
1.4377033e-06
1.4363786e-06
1.4350101e-06
1.4335962e-06
1.4321353e-06
1.4306257e-06
1.4290655e-06
1.4274529e-06
1.4257861e-06
1.4240632e-06
1.422282e-06
1.4204405e-06
1.4185366e-06
1.4165679e-06
1.4145321e-06
1.412427e-06
1.4102498e-06
1.4079979e-06
1.4056679e-06
1.4032548e-06
1.4007499e-06
1.398127e-06
1.3954324e-06
1.3924513e-06
1.3895185e-06
1.3869272e-06
1.3845872e-06
1.3856334e-06
1.393867e-06
1.4285195e-06
1.5501146e-06
2.0050773e-06
3.147151e-06
5.40393e-06
8.6073462e-06
1.2358454e-05
1.6236801e-05
2.0082829e-05
2.3903049e-05
2.7711563e-05
3.1506134e-05
3.5284168e-05
3.9042591e-05
4.2778234e-05
4.6487529e-05
5.0172761e-05
5.3808514e-05
5.7517338e-05
6.0694772e-05
6.6316351e-05
1.470642e-06
1.4704078e-06
1.4701645e-06
1.4699131e-06
1.4696535e-06
1.4693857e-06
1.4691093e-06
1.468824e-06
1.4685297e-06
1.468226e-06
1.4679127e-06
1.4675894e-06
1.4672558e-06
1.4669116e-06
1.4665566e-06
1.4661904e-06
1.4658126e-06
1.4654229e-06
1.4650209e-06
1.4646062e-06
1.4641784e-06
1.4637371e-06
1.4632818e-06
1.462812e-06
1.4623274e-06
1.4618272e-06
1.4613112e-06
1.4607787e-06
1.4602291e-06
1.459662e-06
1.4590768e-06
1.4584728e-06
1.4578494e-06
1.4572059e-06
1.4565418e-06
1.4558563e-06
1.4551486e-06
1.4544182e-06
1.4536641e-06
1.4528857e-06
1.452082e-06
1.4512524e-06
1.4503958e-06
1.4495114e-06
1.4485982e-06
1.4476552e-06
1.4466814e-06
1.4456757e-06
1.4446371e-06
1.4435643e-06
1.4424563e-06
1.4413118e-06
1.4401296e-06
1.4389083e-06
1.4376467e-06
1.4363433e-06
1.4349964e-06
1.4336047e-06
1.4321664e-06
1.4306799e-06
1.4291435e-06
1.4275555e-06
1.4259139e-06
1.4242169e-06
1.4224623e-06
1.4206482e-06
1.4187723e-06
1.4168325e-06
1.4148265e-06
1.4127518e-06
1.4106062e-06
1.4083851e-06
1.4060848e-06
1.4036953e-06
1.4011928e-06
1.398585e-06
1.3957847e-06
1.393092e-06
1.3907431e-06
1.3899296e-06
1.3930111e-06
1.4112535e-06
1.4792595e-06
1.7583804e-06
2.584504e-06
4.5672834e-06
7.6316176e-06
1.1473319e-05
1.557852e-05
1.9674574e-05
2.3738601e-05
2.7790201e-05
3.1828922e-05
3.5851778e-05
3.9854938e-05
4.3839823e-05
4.7778831e-05
5.1801317e-05
5.5257886e-05
6.1371903e-05
1.4710112e-06
1.4708065e-06
1.4705941e-06
1.4703746e-06
1.470148e-06
1.4699142e-06
1.469673e-06
1.4694241e-06
1.4691673e-06
1.4689023e-06
1.4686289e-06
1.4683468e-06
1.4680558e-06
1.4677556e-06
1.4674459e-06
1.4671265e-06
1.466797e-06
1.4664572e-06
1.4661066e-06
1.465745e-06
1.4653721e-06
1.4649873e-06
1.4645904e-06
1.4641809e-06
1.4637584e-06
1.4633226e-06
1.4628728e-06
1.4624088e-06
1.46193e-06
1.4614359e-06
1.4609261e-06
1.4603999e-06
1.459857e-06
1.4592966e-06
1.4587183e-06
1.4581214e-06
1.4575054e-06
1.4568695e-06
1.4562132e-06
1.4555357e-06
1.4548364e-06
1.4541145e-06
1.4533693e-06
1.4526e-06
1.4518057e-06
1.4509856e-06
1.4501389e-06
1.4492645e-06
1.4483617e-06
1.4474293e-06
1.4464663e-06
1.4454719e-06
1.4444448e-06
1.443384e-06
1.4422883e-06
1.4411565e-06
1.4399872e-06
1.438779e-06
1.4375308e-06
1.4362409e-06
1.4349081e-06
1.4335306e-06
1.432107e-06
1.4306356e-06
1.4291147e-06
1.4275425e-06
1.4259171e-06
1.4242366e-06
1.4224989e-06
1.4207022e-06
1.418844e-06
1.4169226e-06
1.4149349e-06
1.4128797e-06
1.410752e-06
1.4085463e-06
1.4062473e-06
1.4038575e-06
1.4012836e-06
1.3986785e-06
1.3963278e-06
1.3942616e-06
1.3954767e-06
1.4050098e-06
1.4467695e-06
1.6102635e-06
2.2404725e-06
3.8639931e-06
6.7950988e-06
1.0726979e-05
1.5067216e-05
1.9426377e-05
2.3742943e-05
2.8043239e-05
3.2330477e-05
3.6606717e-05
4.0843053e-05
4.5175779e-05
4.8910108e-05
5.5519488e-05
1.4713641e-06
1.4711844e-06
1.470998e-06
1.4708054e-06
1.4706067e-06
1.4704016e-06
1.4701901e-06
1.4699718e-06
1.4697466e-06
1.4695142e-06
1.4692745e-06
1.4690272e-06