/*--------------------------------*- C++ -*----------------------------------*\
  =========                 |
  \\      /  F ield         | OpenFOAM: The Open Source CFD Toolbox
   \\    /   O peration     | Website:  https://openfoam.org
    \\  /    A nd           | Version:  12
     \\/     M anipulation  |
\*---------------------------------------------------------------------------*/
FoamFile
{
    format      ascii;
    class       volScalarField;
    location    "500";
    object      nuTilda;
}
// * * * * * * * * * * * * * * * * * * * * * * * * * * * * * * * * * * * * * //

dimensions      [0 2 -1 0 0 0 0];

internalField   nonuniform List<scalar> 
13056
(
1.9999637e-06
2.0000248e-06
2.0001954e-06
2.000446e-06
2.0007548e-06
2.0011124e-06
2.0015133e-06
2.0019531e-06
2.0024283e-06
2.0029371e-06
2.0034788e-06
2.0040537e-06
2.0046635e-06
2.0053114e-06
2.0060029e-06
2.0067453e-06
2.0075532e-06
2.0084369e-06
2.0094485e-06
2.0105665e-06
2.0120467e-06
2.0135663e-06
2.0167181e-06
2.0215179e-06
2.9999991e-08
2.198985e-08
2.0847861e-08
2.0441999e-08
2.0179689e-08
1.9958714e-08
1.9762267e-08
1.9585477e-08
1.9425076e-08
1.9278116e-08
1.9142306e-08
1.9015986e-08
1.889791e-08
1.8787082e-08
1.8682678e-08
1.8584008e-08
1.8490481e-08
1.8401588e-08
1.8316882e-08
1.8235971e-08
1.8158514e-08
1.8084207e-08
1.8012788e-08
1.7944022e-08
1.787769e-08
1.7813609e-08
1.775161e-08
1.769153e-08
1.7633231e-08
1.757659e-08
1.7521488e-08
1.7467812e-08
1.7415471e-08
1.7364378e-08
1.7314443e-08
1.7265588e-08
1.7217746e-08
1.7170855e-08
1.7124848e-08
1.7079662e-08
1.703525e-08
1.6991566e-08
1.6948557e-08
1.6906174e-08
1.6864379e-08
1.6823135e-08
1.6782405e-08
1.6742147e-08
1.6702327e-08
1.6662915e-08
1.6623884e-08
1.65852e-08
1.6546832e-08
1.6508752e-08
1.6470937e-08
1.6433362e-08
1.6396e-08
1.6358821e-08
1.6321805e-08
1.628493e-08
1.6248173e-08
1.6211507e-08
1.6174906e-08
1.6138351e-08
1.6101823e-08
1.6065296e-08
1.6028742e-08
1.5992139e-08
1.5955466e-08
1.5918701e-08
1.5881815e-08
1.5844779e-08
1.580757e-08
1.5770165e-08
1.5732533e-08
1.569464e-08
1.5656456e-08
1.5617952e-08
1.5579096e-08
1.5539846e-08
1.5500164e-08
1.5460016e-08
1.5419358e-08
1.5378139e-08
1.5336311e-08
1.5293827e-08
1.5250626e-08
1.5206639e-08
1.5161816e-08
1.5117068e-08
1.507382e-08
1.5032496e-08
1.4992955e-08
1.4955062e-08
1.4918692e-08
1.488374e-08
1.485011e-08
1.4817709e-08
1.478645e-08
1.4756262e-08
1.472708e-08
1.469884e-08
1.4671478e-08
1.4644934e-08
1.4619159e-08
1.4594079e-08
1.4569687e-08
1.4545706e-08
1.4522532e-08
1.4498408e-08
1.4477428e-08
1.4442384e-08
1.9999637e-06
2.0000248e-06
2.0001955e-06
2.0004461e-06
2.000755e-06
2.0011128e-06
2.0015138e-06
2.0019537e-06
2.0024292e-06
2.0029382e-06
2.00348e-06
2.0040551e-06
2.0046651e-06
2.0053132e-06
2.006005e-06
2.0067475e-06
2.0075556e-06
2.0084395e-06
2.0094513e-06
2.0105695e-06
2.0120498e-06
2.0135697e-06
2.0167206e-06
2.0215302e-06
8.7881929e-08
6.6266011e-08
6.2844797e-08
6.1622421e-08
6.0832216e-08
6.0166897e-08
5.957544e-08
5.9043073e-08
5.8559962e-08
5.8117275e-08
5.7708138e-08
5.7327562e-08
5.69718e-08
5.663786e-08
5.6323263e-08
5.602593e-08
5.5744085e-08
5.5476199e-08
5.5220923e-08
5.4977078e-08
5.474364e-08
5.4519688e-08
5.430444e-08
5.4097182e-08
5.3897257e-08
5.3704116e-08
5.3517244e-08
5.3336157e-08
5.3160436e-08
5.2989714e-08
5.2823626e-08
5.2661835e-08
5.2504068e-08
5.235006e-08
5.2199544e-08
5.2052279e-08
5.190807e-08
5.1766726e-08
5.1628044e-08
5.1491838e-08
5.1357966e-08
5.1226285e-08
5.1096638e-08
5.0968881e-08
5.0842894e-08
5.0718567e-08
5.0595787e-08
5.0474434e-08
5.0354396e-08
5.0235592e-08
5.0117933e-08
5.0001322e-08
4.9885662e-08
4.977087e-08
4.9656877e-08
4.9543609e-08
4.943098e-08
4.9318903e-08
4.9207316e-08
4.9096156e-08
4.898535e-08
4.8874819e-08
4.8764484e-08
4.8654289e-08
4.8544172e-08
4.8434058e-08
4.8323865e-08
4.8213522e-08
4.8102968e-08
4.7992137e-08
4.7880941e-08
4.7769292e-08
4.7657123e-08
4.7544361e-08
4.7430914e-08
4.7316681e-08
4.720157e-08
4.7085496e-08
4.6968357e-08
4.6850033e-08
4.6730406e-08
4.6609373e-08
4.6486802e-08
4.636254e-08
4.6236443e-08
4.6108365e-08
4.5978127e-08
4.584552e-08
4.5710391e-08
4.5575491e-08
4.5445108e-08
4.5320527e-08
4.5201322e-08
4.5087083e-08
4.4977436e-08
4.4872064e-08
4.4770677e-08
4.4672993e-08
4.4578754e-08
4.4487744e-08
4.4399765e-08
4.4314624e-08
4.4232134e-08
4.4152107e-08
4.4074401e-08
4.3998789e-08
4.392525e-08
4.3852952e-08
4.3783088e-08
4.3710365e-08
4.3647114e-08
4.3541459e-08
1.9999636e-06
2.0000248e-06
2.0001955e-06
2.0004464e-06
2.0007556e-06
2.0011138e-06
2.0015153e-06
2.0019557e-06
2.0024317e-06
2.0029412e-06
2.0034836e-06
2.0040593e-06
2.0046699e-06
2.0053186e-06
2.006011e-06
2.0067541e-06
2.0075627e-06
2.0084473e-06
2.0094596e-06
2.0105782e-06
2.0120587e-06
2.0135793e-06
2.0167268e-06
2.0215485e-06
1.4418564e-07
1.1144059e-07
1.0575101e-07
1.0369704e-07
1.0236963e-07
1.0125276e-07
1.0025982e-07
9.9365773e-08
9.8554139e-08
9.7810226e-08
9.7122567e-08
9.6482822e-08
9.5884716e-08
9.5323241e-08
9.4794239e-08
9.4294231e-08
9.3820239e-08
9.3369697e-08
9.2940339e-08
9.2530193e-08
9.2137533e-08
9.1760818e-08
9.1398731e-08
9.1050076e-08
9.0713749e-08
9.0388824e-08
9.0074441e-08
8.9769783e-08
8.9474149e-08
8.9186918e-08
8.8907479e-08
8.8635269e-08
8.8369822e-08
8.8110699e-08
8.7857446e-08
8.7609662e-08
8.7367017e-08
8.712919e-08
8.6895839e-08
8.6666654e-08
8.6441394e-08
8.6219817e-08
8.6001663e-08
8.5786688e-08
8.5574688e-08
8.5365481e-08
8.5158876e-08
8.4954671e-08
8.4752678e-08
8.4552759e-08
8.4354767e-08
8.4158537e-08
8.3963906e-08
8.3770735e-08
8.3578909e-08
8.3388301e-08
8.3198767e-08
8.3010163e-08
8.2822382e-08
8.2635318e-08
8.244885e-08
8.2262843e-08
8.2077166e-08
8.1891724e-08
8.1706412e-08
8.1521104e-08
8.1335664e-08
8.1149971e-08
8.0963922e-08
8.0777404e-08
8.0590273e-08
8.0402379e-08
8.0213609e-08
8.0023841e-08
7.983292e-08
7.9640675e-08
7.9446951e-08
7.9251606e-08
7.9054469e-08
7.8855335e-08
7.8654011e-08
7.8450316e-08
7.8244035e-08
7.8034906e-08
7.7822687e-08
7.7607134e-08
7.7387945e-08
7.7164768e-08
7.6937346e-08
7.6710307e-08
7.649087e-08
7.6281197e-08
7.6080571e-08
7.5888302e-08
7.5703762e-08
7.5526414e-08
7.5355774e-08
7.5191366e-08
7.5032754e-08
7.4879576e-08
7.4731501e-08
7.4588202e-08
7.4449363e-08
7.4314669e-08
7.4183883e-08
7.405662e-08
7.3932847e-08
7.3811166e-08
7.3693577e-08
7.3571202e-08
7.3464743e-08
7.3286906e-08
1.9999635e-06
2.0000246e-06
2.0001956e-06
2.0004469e-06
2.0007567e-06
2.0011155e-06
2.0015178e-06
2.0019591e-06
2.0024359e-06
2.0029464e-06
2.0034898e-06
2.0040664e-06
2.004678e-06
2.0053278e-06
2.0060211e-06
2.0067652e-06
2.0075748e-06
2.0084603e-06
2.0094734e-06
2.0105929e-06
2.0120737e-06
2.0135952e-06
2.0167369e-06
2.021573e-06
1.9959244e-07
1.5811804e-07
1.5018528e-07
1.4727526e-07
1.4539586e-07
1.4381571e-07
1.4241055e-07
1.4114463e-07
1.3999476e-07
1.3894041e-07
1.3796552e-07
1.3705836e-07
1.3621009e-07
1.3541364e-07
1.3466315e-07
1.3395372e-07
1.3328114e-07
1.3264177e-07
1.3203243e-07
1.3145031e-07
1.3089297e-07
1.3035824e-07
1.2984425e-07
1.2934931e-07
1.2887185e-07
1.2841055e-07
1.2796421e-07
1.2753167e-07
1.2711192e-07
1.267041e-07
1.2630733e-07
1.2592081e-07
1.2554389e-07
1.2517594e-07
1.2481633e-07
1.2446447e-07
1.241199e-07
1.2378217e-07
1.234508e-07
1.2312533e-07
1.2280544e-07
1.2249077e-07
1.2218096e-07
1.2187566e-07
1.2157458e-07
1.2127746e-07
1.2098404e-07
1.2069403e-07
1.2040715e-07
1.2012322e-07
1.1984202e-07
1.1956332e-07
1.1928689e-07
1.1901254e-07
1.1874009e-07
1.1846937e-07
1.1820017e-07
1.1793229e-07
1.1766558e-07
1.1739989e-07
1.1713504e-07
1.1687085e-07
1.1660712e-07
1.1634373e-07
1.1608052e-07
1.1581731e-07
1.1555391e-07
1.1529016e-07
1.1502589e-07
1.1476096e-07
1.1449516e-07
1.1422827e-07
1.1396014e-07
1.1369059e-07
1.1341939e-07
1.1314632e-07
1.1287115e-07
1.1259367e-07
1.1231364e-07
1.1203078e-07
1.117448e-07
1.1145546e-07
1.1116244e-07
1.1086537e-07
1.1056391e-07
1.1025772e-07
1.0994636e-07
1.0962933e-07
1.0930626e-07
1.0898374e-07
1.0867202e-07
1.0837417e-07
1.0808916e-07
1.0781603e-07
1.0755388e-07
1.0730194e-07
1.0705952e-07
1.0682596e-07
1.0660064e-07
1.0638303e-07
1.0617267e-07
1.0596909e-07
1.0577185e-07
1.055805e-07
1.053947e-07
1.052139e-07
1.0503806e-07
1.0486521e-07
1.0469815e-07
1.0452434e-07
1.043731e-07
1.0412044e-07
1.9999632e-06
2.0000244e-06
2.0001957e-06
2.0004476e-06
2.0007582e-06
2.001118e-06
2.0015214e-06
2.0019639e-06
2.002442e-06
2.0029538e-06
2.0034986e-06
2.0040766e-06
2.0046897e-06
2.0053408e-06
2.0060356e-06
2.0067811e-06
2.0075921e-06
2.0084788e-06
2.0094932e-06
2.0106138e-06
2.0120951e-06
2.0136179e-06
2.0167508e-06
2.021604e-06
2.5464614e-07
2.0689273e-07
1.9677695e-07
1.929809e-07
1.9053084e-07
1.8847212e-07
1.8664041e-07
1.849888e-07
1.834874e-07
1.8210993e-07
1.8083574e-07
1.7964969e-07
1.7854032e-07
1.7749849e-07
1.765166e-07
1.7558827e-07
1.7470804e-07
1.7387118e-07
1.7307353e-07
1.7231144e-07
1.7158175e-07
1.7088159e-07
1.7020855e-07
1.695604e-07
1.6893512e-07
1.6833098e-07
1.677464e-07
1.6717986e-07
1.6663007e-07
1.6609587e-07
1.6557613e-07
1.6506981e-07
1.6457605e-07
1.6409403e-07
1.6362291e-07
1.6316194e-07
1.6271052e-07
1.6226804e-07
1.6183388e-07
1.6140746e-07
1.6098833e-07
1.6057604e-07
1.601701e-07
1.5977008e-07
1.5937558e-07
1.5898626e-07
1.5860178e-07
1.5822176e-07
1.5784585e-07
1.5747379e-07
1.5710531e-07
1.5674011e-07
1.5637787e-07
1.5601835e-07
1.5566132e-07
1.5530655e-07
1.5495378e-07
1.5460274e-07
1.5425322e-07
1.5390503e-07
1.5355795e-07
1.5321172e-07
1.528661e-07
1.5252091e-07
1.5217596e-07
1.5183102e-07
1.5148582e-07
1.5114015e-07
1.5079382e-07
1.504466e-07
1.5009825e-07
1.4974847e-07
1.4939705e-07
1.4904377e-07
1.4868834e-07
1.4833044e-07
1.4796979e-07
1.4760611e-07
1.472391e-07
1.4686836e-07
1.4649354e-07
1.461143e-07
1.4573024e-07
1.4534088e-07
1.4494576e-07
1.4454442e-07
1.4413631e-07
1.4372077e-07
1.4329732e-07
1.4287458e-07
1.4246598e-07
1.4207556e-07
1.4170198e-07
1.4134396e-07
1.4100033e-07
1.4067008e-07
1.4035232e-07
1.4004617e-07
1.397508e-07
1.3946555e-07
1.391898e-07
1.3892294e-07
1.3866438e-07
1.3841354e-07
1.3816998e-07
1.3793298e-07
1.3770248e-07
1.3747589e-07
1.3725691e-07
1.3702913e-07
1.3683087e-07
1.3649963e-07
1.999963e-06
2.0000242e-06
2.0001958e-06
2.0004485e-06
2.0007602e-06
2.0011213e-06
2.0015262e-06
2.0019702e-06
2.0024501e-06
2.0029637e-06
2.0035102e-06
2.0040902e-06
2.0047051e-06
2.0053581e-06
2.0060547e-06
2.0068021e-06
2.0076149e-06
2.0085034e-06
2.0095193e-06
2.0106414e-06
2.0121232e-06
2.0136478e-06
2.0167689e-06
2.0216418e-06
3.0975316e-07
2.5832778e-07
2.4616345e-07
2.4145481e-07
2.3841448e-07
2.3586033e-07
2.3358551e-07
2.3153172e-07
2.2966257e-07
2.2794628e-07
2.263577e-07
2.2487829e-07
2.2349401e-07
2.2219356e-07
2.209676e-07
2.1980825e-07
2.1870875e-07
2.1766324e-07
2.1666657e-07
2.1571421e-07
2.1480221e-07
2.1392705e-07
2.130857e-07
2.122754e-07
2.1149363e-07
2.1073824e-07
2.1000726e-07
2.092988e-07
2.0861124e-07
2.0794314e-07
2.0729311e-07
2.0665984e-07
2.0604224e-07
2.054393e-07
2.0484998e-07
2.0427336e-07
2.0370864e-07
2.031551e-07
2.0261196e-07
2.0207848e-07
2.015541e-07
2.0103828e-07
2.005304e-07
2.000299e-07
1.995363e-07
1.9904919e-07
1.9856811e-07
1.9809261e-07
1.9762224e-07
1.9715669e-07
1.966956e-07
1.9623861e-07
1.9578533e-07
1.9533544e-07
1.9488866e-07
1.9444471e-07
1.9400325e-07
1.9356395e-07
1.9312655e-07
1.9269081e-07
1.9225645e-07
1.9182315e-07
1.9139062e-07
1.9095862e-07
1.9052691e-07
1.9009521e-07
1.8966319e-07
1.8923057e-07
1.8879712e-07
1.8836256e-07
1.8792657e-07
1.8748879e-07
1.8704897e-07
1.866068e-07
1.8616195e-07
1.85714e-07
1.8526259e-07
1.848074e-07
1.8434803e-07
1.8388399e-07
1.8341485e-07
1.8294016e-07
1.8245944e-07
1.8197208e-07
1.814775e-07
1.8097514e-07
1.804643e-07
1.7994415e-07
1.794141e-07
1.7888492e-07
1.7837345e-07
1.7788473e-07
1.7741708e-07
1.7696891e-07
1.7653874e-07
1.7612532e-07
1.7572754e-07
1.7534427e-07
1.7497452e-07
1.7461742e-07
1.7427221e-07
1.7393813e-07
1.7361444e-07
1.7330042e-07
1.729955e-07
1.726988e-07
1.7241023e-07
1.7212658e-07
1.7185243e-07
1.7156736e-07
1.7131917e-07
1.7090444e-07
1.9999626e-06
2.0000239e-06
2.000196e-06
2.0004497e-06
2.0007627e-06
2.0011255e-06
2.0015322e-06
2.0019782e-06
2.0024602e-06
2.0029761e-06
2.003525e-06
2.0041073e-06
2.0047246e-06
2.00538e-06
2.006079e-06
2.0068287e-06
2.0076437e-06
2.0085344e-06
2.0095523e-06
2.0106762e-06
2.0121587e-06
2.0136854e-06
2.0167912e-06
2.021687e-06
3.6518657e-07
3.1291892e-07
2.9898158e-07
2.9335416e-07
2.8970872e-07
2.8664429e-07
2.8391006e-07
2.8143667e-07
2.7918188e-07
2.7710895e-07
2.7518855e-07
2.7339887e-07
2.717233e-07
2.7014847e-07
2.6866325e-07
2.6725825e-07
2.6592541e-07
2.6465771e-07
2.6344897e-07
2.6229375e-07
2.6118731e-07
2.601254e-07
2.5910437e-07
2.5812091e-07
2.5717198e-07
2.5625498e-07
2.5536752e-07
2.5450734e-07
2.5367248e-07
2.5286119e-07
2.5207179e-07
2.513027e-07
2.5055261e-07
2.4982028e-07
2.4910446e-07
2.4840403e-07
2.4771804e-07
2.4704559e-07
2.4638575e-07
2.4573764e-07
2.4510056e-07
2.4447385e-07
2.4385678e-07
2.4324866e-07
2.4264891e-07
2.4205701e-07
2.4147245e-07
2.4089465e-07
2.4032307e-07
2.3975733e-07
2.3919701e-07
2.3864165e-07
2.380908e-07
2.3754405e-07
2.3700108e-07
2.3646154e-07
2.3592501e-07
2.3539111e-07
2.3485951e-07
2.3432991e-07
2.3380198e-07
2.3327535e-07
2.3274963e-07
2.3222456e-07
2.3169984e-07
2.3117511e-07
2.3065e-07
2.3012415e-07
2.2959727e-07
2.2906905e-07
2.2853909e-07
2.2800695e-07
2.2747231e-07
2.2693482e-07
2.2639405e-07
2.2584953e-07
2.2530079e-07
2.2474745e-07
2.2418902e-07
2.2362491e-07
2.2305458e-07
2.2247752e-07
2.2189311e-07
2.2130062e-07
2.2069936e-07
2.2008863e-07
2.1946757e-07
2.188352e-07
2.1819078e-07
2.1754741e-07
2.1692557e-07
2.1633137e-07
2.1576279e-07
2.1521789e-07
2.1469487e-07
2.1419221e-07
2.1370855e-07
2.1324255e-07
2.1279296e-07
2.1235876e-07
2.1193901e-07
2.115328e-07
2.1113922e-07
2.1075738e-07
2.1038662e-07
2.1002585e-07
2.0967496e-07
2.0933008e-07
2.0899672e-07
2.0865021e-07
2.0834843e-07
2.0784407e-07
1.9999621e-06
2.0000235e-06
2.0001962e-06
2.0004511e-06
2.0007658e-06
2.0011305e-06
2.0015395e-06
2.0019881e-06
2.0024727e-06
2.0029913e-06
2.0035431e-06
2.0041283e-06
2.0047485e-06
2.0054069e-06
2.0061087e-06
2.0068613e-06
2.0076791e-06
2.0085724e-06
2.0095927e-06
2.0107188e-06
2.0122019e-06
2.0137313e-06
2.0168178e-06
2.0217399e-06
4.2109054e-07
3.7103263e-07
3.5584825e-07
3.4934549e-07
3.4509544e-07
3.415145e-07
3.3830933e-07
3.3540115e-07
3.3274345e-07
3.3029566e-07
3.2802491e-07
3.2590652e-07
3.2392151e-07
3.2205454e-07
3.2029279e-07
3.1862539e-07
3.1704297e-07
3.1553735e-07
3.141013e-07
3.1272847e-07
3.1141329e-07
3.1015078e-07
3.0893664e-07
3.0776698e-07
3.0663821e-07
3.0554726e-07
3.0449133e-07
3.0346775e-07
3.0247419e-07
3.0150859e-07
3.0056896e-07
2.9965344e-07
2.9876045e-07
2.9788855e-07
2.9703626e-07
2.9620223e-07
2.9538535e-07
2.9458456e-07
2.9379875e-07
2.9302687e-07
2.9226809e-07
2.9152162e-07
2.9078661e-07
2.9006224e-07
2.8934782e-07
2.8864273e-07
2.8794634e-07
2.87258e-07
2.8657705e-07
2.8590304e-07
2.8523546e-07
2.8457378e-07
2.8391746e-07
2.8326602e-07
2.8261905e-07
2.8197616e-07
2.8133685e-07
2.8070065e-07
2.8006719e-07
2.794361e-07
2.7880699e-07
2.7817942e-07
2.7755292e-07
2.7692719e-07
2.7630186e-07
2.7567651e-07
2.750507e-07
2.74424e-07
2.7379607e-07
2.7316654e-07
2.725349e-07
2.7190068e-07
2.7126346e-07
2.7062284e-07
2.6997831e-07
2.6932928e-07
2.6867524e-07
2.6801569e-07
2.6735006e-07
2.6667767e-07
2.6599785e-07
2.6530999e-07
2.6461337e-07
2.6390711e-07
2.6319038e-07
2.6246236e-07
2.6172202e-07
2.6096818e-07
2.6019996e-07
2.5943299e-07
2.5869167e-07
2.579833e-07
2.5730546e-07
2.5665583e-07
2.5603229e-07
2.5543302e-07
2.5485639e-07
2.5430081e-07
2.5376479e-07
2.5324711e-07
2.5274666e-07
2.5226233e-07
2.5179307e-07
2.5133781e-07
2.5089575e-07
2.504656e-07
2.5004724e-07
2.4963606e-07
2.4923859e-07
2.4882561e-07
2.4846581e-07
2.4786435e-07
1.9999616e-06
2.000023e-06
2.0001964e-06
2.0004527e-06
2.0007695e-06
2.0011366e-06
2.0015484e-06
2.0019999e-06
2.0024877e-06
2.0030097e-06
2.0035649e-06
2.0041536e-06
2.0047773e-06
2.0054392e-06
2.0061446e-06
2.0069005e-06
2.0077217e-06
2.0086181e-06
2.0096412e-06
2.0107699e-06
2.0122537e-06
2.0137862e-06
2.016849e-06
2.021801e-06
4.7748903e-07
4.3281916e-07
4.1732105e-07
4.1008644e-07
4.0526712e-07
4.0118383e-07
3.9750906e-07
3.9415892e-07
3.9108585e-07
3.8824764e-07
3.8560929e-07
3.8314404e-07
3.8083106e-07
3.7865333e-07
3.7659656e-07
3.7464853e-07
3.7279865e-07
3.7103762e-07
3.693572e-07
3.677501e-07
3.6620996e-07
3.6473104e-07
3.6330837e-07
3.619375e-07
3.6061427e-07
3.5933511e-07
3.5809679e-07
3.5689621e-07
3.5573067e-07
3.5459777e-07
3.534952e-07
3.5242079e-07
3.5137272e-07
3.503493e-07
3.493488e-07
3.4836967e-07
3.4741059e-07
3.4647033e-07
3.4554759e-07
3.4464115e-07
3.4375004e-07
3.4287334e-07
3.4201006e-07
3.4115923e-07
3.4032004e-07
3.3949177e-07
3.386737e-07
3.3786504e-07
3.3706505e-07
3.3627316e-07
3.3548881e-07
3.3471137e-07
3.339402e-07
3.3317473e-07
3.3241451e-07
3.3165905e-07
3.3090778e-07
3.3016016e-07
3.2941572e-07
3.2867406e-07
3.2793471e-07
3.2719715e-07
3.2646085e-07
3.2572541e-07
3.2499044e-07
3.2425544e-07
3.2351989e-07
3.2278327e-07
3.220452e-07
3.2130521e-07
3.2056276e-07
3.1981725e-07
3.190682e-07
3.1831515e-07
3.1755748e-07
3.1679453e-07
3.1602566e-07
3.1525031e-07
3.144678e-07
3.1367733e-07
3.1287811e-07
3.1206944e-07
3.1125045e-07
3.1042011e-07
3.0957746e-07
3.0872151e-07
3.0785107e-07
3.0696474e-07
3.0606149e-07
3.051597e-07
3.0428805e-07
3.0345513e-07
3.0265811e-07
3.0189424e-07
3.0116104e-07
3.0045637e-07
2.9977831e-07
2.9912498e-07
2.9849466e-07
2.9788591e-07
2.972974e-07
2.9672785e-07
2.9617601e-07
2.9564064e-07
2.9512077e-07
2.9461493e-07
2.9412294e-07
2.9363942e-07
2.93172e-07
2.9268654e-07
2.9226346e-07
2.91556e-07
1.9999609e-06
2.0000224e-06
2.0001966e-06
2.0004546e-06
2.0007738e-06
2.0011438e-06
2.0015588e-06
2.0020139e-06
2.0025055e-06
2.0030315e-06
2.0035907e-06
2.0041835e-06
2.0048115e-06
2.0054775e-06
2.006187e-06
2.006947e-06
2.007772e-06
2.0086721e-06
2.0096985e-06
2.0108302e-06
2.0123147e-06
2.0138508e-06
2.0168846e-06
2.0218706e-06
5.3430382e-07
4.9812003e-07
4.8382915e-07
4.7618799e-07
4.7090383e-07
4.6637367e-07
4.6225802e-07
4.5847717e-07
4.5498875e-07
4.5175302e-07
4.4873548e-07
4.4590893e-07
4.4325172e-07
4.4074587e-07
4.3837606e-07
4.3612908e-07
4.3399331e-07
4.319585e-07
4.3001548e-07
4.2815613e-07
4.2637331e-07
4.2466057e-07
4.230123e-07
4.2142345e-07
4.1988932e-07
4.1840585e-07
4.1696935e-07
4.1557631e-07
4.1422363e-07
4.1290856e-07
4.1162847e-07
4.1038088e-07
4.0916367e-07
4.0797491e-07
4.0681264e-07
4.0567506e-07
4.0456063e-07
4.0346796e-07
4.0239554e-07
4.0134199e-07
4.0030617e-07
3.99287e-07
3.9828335e-07
3.9729412e-07
3.9631836e-07
3.9535524e-07
3.9440391e-07
3.9346348e-07
3.9253309e-07
3.9161207e-07
3.9069977e-07
3.8979548e-07
3.8889843e-07
3.88008e-07
3.8712362e-07
3.8624474e-07
3.8537073e-07
3.8450092e-07
3.836348e-07
3.8277187e-07
3.8191161e-07
3.8105341e-07
3.8019665e-07
3.7934087e-07
3.7848562e-07
3.7763031e-07
3.7677433e-07
3.7591711e-07
3.7505816e-07
3.7419697e-07
3.733329e-07
3.7246525e-07
3.7159347e-07
3.7071701e-07
3.6983516e-07
3.6894715e-07
3.6805223e-07
3.6714975e-07
3.6623892e-07
3.6531882e-07
3.6438852e-07
3.6344719e-07
3.6249384e-07
3.6152727e-07
3.6054634e-07
3.5954992e-07
3.5853661e-07
3.575048e-07
3.5645326e-07
3.554034e-07
3.5438862e-07
3.5341892e-07
3.5249098e-07
3.5160164e-07
3.5074799e-07
3.4992754e-07
3.4913807e-07
3.4837739e-07
3.4764349e-07
3.4693468e-07
3.4624945e-07
3.4558628e-07
3.4494373e-07
3.4432034e-07
3.4371502e-07
3.4312601e-07
3.4255314e-07
3.4199018e-07
3.4144591e-07
3.4088091e-07
3.4038833e-07
3.3956437e-07
1.9999601e-06
2.0000216e-06
2.0001967e-06
2.0004568e-06
2.0007787e-06
2.0011521e-06
2.0015709e-06
2.0020302e-06
2.0025263e-06
2.0030569e-06
2.0036209e-06
2.0042186e-06
2.0048514e-06
2.0055223e-06
2.0062366e-06
2.0070012e-06
2.0078307e-06
2.0087351e-06
2.0097652e-06
2.0109004e-06
2.0123854e-06
2.0139258e-06
2.0169247e-06
2.0219488e-06
5.9134862e-07
5.6647083e-07
5.5557294e-07
5.4814562e-07
5.4262596e-07
5.3778089e-07
5.3330545e-07
5.2914213e-07
5.2526484e-07
5.2164365e-07
5.1824932e-07
5.150573e-07
5.1204712e-07
5.0920121e-07
5.0650421e-07
5.0394259e-07
5.0150421e-07
4.991782e-07
4.9695475e-07
4.9482507e-07
4.9278138e-07
4.9081663e-07
4.8892465e-07
4.8709985e-07
4.8533703e-07
4.8363166e-07
4.8197962e-07
4.8037699e-07
4.7882026e-07
4.7730636e-07
4.7583234e-07
4.7439539e-07
4.729931e-07
4.716233e-07
4.7028377e-07
4.6897246e-07
4.6768762e-07
4.6642766e-07
4.651909e-07
4.6397574e-07
4.6278086e-07
4.6160506e-07
4.6044705e-07
4.5930556e-07
4.5817951e-07
4.5706793e-07
4.5596988e-07
4.5488433e-07
4.5381029e-07
4.5274699e-07
4.5169369e-07
4.5064956e-07
4.4961376e-07
4.4858552e-07
4.4756422e-07
4.4654923e-07
4.4553981e-07
4.445352e-07
4.435348e-07
4.4253805e-07
4.4154435e-07
4.4055298e-07
4.3956326e-07
4.3857463e-07
4.3758657e-07
4.3659843e-07
4.3560948e-07
4.3461907e-07
4.3362663e-07
4.3263159e-07
4.3163318e-07
4.3063062e-07
4.2962326e-07
4.2861047e-07
4.2759143e-07
4.2656525e-07
4.2553107e-07
4.2448812e-07
4.2343552e-07
4.2237217e-07
4.2129702e-07
4.202091e-07
4.1910727e-07
4.1799014e-07
4.1685639e-07
4.1570472e-07
4.1453352e-07
4.1334091e-07
4.1212547e-07
4.1091195e-07
4.0973896e-07
4.0861807e-07
4.0754543e-07
4.065174e-07
4.0553061e-07
4.0458219e-07
4.0366956e-07
4.0279021e-07
4.019418e-07
4.011224e-07
4.0033023e-07
3.9956357e-07
3.9882074e-07
3.9810006e-07
3.9740026e-07
3.9671933e-07
3.9605705e-07
3.9540628e-07
3.9477707e-07
3.9412422e-07
3.9355488e-07
3.9260204e-07
1.9999591e-06
2.0000207e-06
2.0001969e-06
2.0004592e-06
2.0007844e-06
2.0011617e-06
2.0015849e-06
2.0020491e-06
2.0025503e-06
2.0030863e-06
2.0036558e-06
2.0042591e-06
2.0048976e-06
2.0055741e-06
2.0062938e-06
2.0070639e-06
2.0078985e-06
2.0088077e-06
2.0098421e-06
2.010981e-06
2.0124665e-06
2.0140117e-06
2.016969e-06
2.0220355e-06
6.4831037e-07
6.3718337e-07
6.3241816e-07
6.2623304e-07
6.2090914e-07
6.1601007e-07
6.1134802e-07
6.0691832e-07
6.0272935e-07
5.9877311e-07
5.9503372e-07
5.914947e-07
5.8814044e-07
5.8495628e-07
5.8192866e-07
5.7904506e-07
5.7629381e-07
5.7366415e-07
5.7114615e-07
5.6873078e-07
5.6640996e-07
5.6417628e-07
5.6202317e-07
5.5994471e-07
5.5793527e-07
5.5598994e-07
5.5410426e-07
5.5227394e-07
5.5049514e-07
5.4876447e-07
5.4707867e-07
5.4543463e-07
5.4382968e-07
5.4226139e-07
5.4072732e-07
5.3922516e-07
5.3775294e-07
5.3630888e-07
5.3489112e-07
5.3349783e-07
5.3212754e-07
5.3077889e-07
5.2945043e-07
5.2814073e-07
5.2684856e-07
5.2557282e-07
5.2431246e-07
5.230663e-07
5.2183322e-07
5.2061235e-07
5.1940283e-07
5.1820375e-07
5.1701412e-07
5.1583309e-07
5.1465995e-07
5.1349395e-07
5.1233429e-07
5.1118008e-07
5.1003064e-07
5.0888533e-07
5.0774345e-07
5.0660421e-07
5.0546679e-07
5.0433059e-07
5.0319499e-07
5.0205923e-07
5.0092252e-07
4.9978409e-07
4.9864328e-07
4.9749943e-07
4.9635169e-07
4.9519913e-07
4.9404103e-07
4.9287664e-07
4.9170505e-07
4.9052521e-07
4.8933615e-07
4.8813698e-07
4.8692667e-07
4.8570399e-07
4.8446771e-07
4.8321673e-07
4.8194972e-07
4.806651e-07
4.7936135e-07
4.7803696e-07
4.7669009e-07
4.7531858e-07
4.7392079e-07
4.7252518e-07
4.7117618e-07
4.6988706e-07
4.6865343e-07
4.6747108e-07
4.6633615e-07
4.6524535e-07
4.6419569e-07
4.631843e-07
4.6220849e-07
4.6126604e-07
4.603549e-07
4.5947309e-07
4.5861869e-07
4.5778977e-07
4.5698486e-07
4.5620166e-07
4.5543991e-07
4.5469147e-07
4.5396778e-07
4.532173e-07
4.5256262e-07
4.514663e-07
1.999958e-06
2.0000196e-06
2.0001969e-06
2.0004619e-06
2.0007908e-06
2.0011725e-06
2.0016009e-06
2.0020706e-06
2.0025778e-06
2.0031199e-06
2.0036958e-06
2.0043055e-06
2.0049504e-06
2.0056333e-06
2.0063594e-06
2.0071355e-06
2.007976e-06
2.0088907e-06
2.0099297e-06
2.0110728e-06
2.0125584e-06
2.0141091e-06
2.0170171e-06
2.0221303e-06
7.04758e-07
7.0940539e-07
7.1385188e-07
7.1038591e-07
7.0596514e-07
7.0146231e-07
6.9692998e-07
6.924612e-07
6.8812502e-07
6.8395309e-07
6.7995532e-07
6.7613196e-07
6.7247823e-07
6.6898673e-07
6.6564886e-07
6.6245546e-07
6.5939713e-07
6.5646457e-07
6.5364877e-07
6.5094128e-07
6.4833436e-07
6.4582076e-07
6.4339393e-07
6.410479e-07
6.3877692e-07
6.3657589e-07
6.3444018e-07
6.3236528e-07
6.3034712e-07
6.2838207e-07
6.2646667e-07
6.2459757e-07
6.2277185e-07
6.209869e-07
6.1924007e-07
6.1752882e-07
6.1585099e-07
6.1420463e-07
6.1258769e-07
6.1099816e-07
6.0943439e-07
6.0789488e-07
6.0637803e-07
6.0488225e-07
6.0340614e-07
6.019485e-07
6.0050814e-07
5.9908375e-07
5.9767408e-07
5.9627812e-07
5.9489494e-07
5.9352349e-07
5.9216269e-07
5.9081155e-07
5.8946926e-07
5.88135e-07
5.8680785e-07
5.8548683e-07
5.8417112e-07
5.8286002e-07
5.8155275e-07
5.802484e-07
5.7894604e-07
5.7764497e-07
5.763445e-07
5.7504379e-07
5.737419e-07
5.7243796e-07
5.7113123e-07
5.6982095e-07
5.6850615e-07
5.6718578e-07
5.6585899e-07
5.6452495e-07
5.631826e-07
5.6183076e-07
5.6046831e-07
5.5909422e-07
5.5770733e-07
5.5630622e-07
5.548895e-07
5.5345589e-07
5.5200387e-07
5.5053164e-07
5.4903745e-07
5.4751957e-07
5.459759e-07
5.4440396e-07
5.4280189e-07
5.4120227e-07
5.3965605e-07
5.3817845e-07
5.3676444e-07
5.354092e-07
5.3410829e-07
5.3285795e-07
5.3165477e-07
5.3049544e-07
5.293769e-07
5.2829657e-07
5.2725214e-07
5.2624133e-07
5.2526193e-07
5.2431175e-07
5.2338909e-07
5.2249132e-07
5.2161815e-07
5.2076032e-07
5.1993081e-07
5.190711e-07
5.1832093e-07
5.1706376e-07
1.9999566e-06
2.0000183e-06
2.0001969e-06
2.0004648e-06
2.0007978e-06
2.0011847e-06
2.0016189e-06
2.0020949e-06
2.0026089e-06
2.003158e-06
2.0037412e-06
2.0043582e-06
2.0050104e-06
2.0057005e-06
2.0064337e-06
2.0072167e-06
2.0080636e-06
2.0089843e-06
2.0100285e-06
2.0111761e-06
2.0126614e-06
2.0142182e-06
2.0170681e-06
2.0222323e-06
7.6015567e-07
7.8215735e-07
7.9905503e-07
8.0015721e-07
7.9764888e-07
7.9421887e-07
7.903168e-07
7.8618949e-07
7.8199803e-07
7.7783575e-07
7.7375466e-07
7.6978358e-07
7.6593724e-07
7.6222187e-07
7.5863866e-07
7.5518557e-07
7.5185833e-07
7.4865132e-07
7.4555825e-07
7.4257268e-07
7.3968831e-07
7.3689899e-07
7.3419894e-07
7.3158275e-07
7.2904507e-07
7.2658102e-07
7.2418612e-07
7.2185597e-07
7.1958645e-07
7.1737395e-07
7.1521495e-07
7.13106e-07
7.1104406e-07
7.0902643e-07
7.0705034e-07
7.051131e-07
7.0321242e-07
7.0134621e-07
6.9951231e-07
6.9770855e-07
6.9593312e-07
6.9418441e-07
6.9246071e-07
6.9076028e-07
6.8908158e-07
6.8742329e-07
6.8578411e-07
6.8416262e-07
6.8255742e-07
6.8096739e-07
6.7939151e-07
6.7782862e-07
6.7627752e-07
6.747371e-07
6.7320645e-07
6.7168467e-07
6.7017073e-07
6.6866353e-07
6.6716216e-07
6.656658e-07
6.6417359e-07
6.6268453e-07
6.6119756e-07
6.5971187e-07
6.5822669e-07
6.5674106e-07
6.5525395e-07
6.5376435e-07
6.5227141e-07
6.5077429e-07
6.4927188e-07
6.4776299e-07
6.4624665e-07
6.447219e-07
6.4318756e-07
6.4164227e-07
6.4008475e-07
6.3851384e-07
6.3692821e-07
6.3532625e-07
6.3370635e-07
6.3206705e-07
6.3040665e-07
6.2872306e-07
6.270143e-07
6.2527838e-07
6.2351291e-07
6.2171506e-07
6.1988267e-07
6.1805305e-07
6.1628446e-07
6.1459433e-07
6.129769e-07
6.1142666e-07
6.0993857e-07
6.0850829e-07
6.0713195e-07
6.0580575e-07
6.045262e-07
6.0329036e-07
6.0209558e-07
6.0093925e-07
5.9981885e-07
5.9873188e-07
5.9767639e-07
5.966494e-07
5.9565054e-07
5.9466937e-07
5.9372049e-07
5.9273774e-07
5.9187999e-07
5.904412e-07
1.9999551e-06
2.0000168e-06
2.0001967e-06
2.0004679e-06
2.0008056e-06
2.0011983e-06
2.0016389e-06
2.0021222e-06
2.0026437e-06
2.0032008e-06
2.0037921e-06
2.0044174e-06
2.0050778e-06
2.005776e-06
2.0065171e-06
2.0073077e-06
2.0081618e-06
2.0090891e-06
2.0101388e-06
2.0112913e-06
2.0127756e-06
2.0143391e-06
2.0171209e-06
2.0223402e-06
8.1387412e-07
8.5435836e-07
8.8701921e-07
8.9480483e-07
8.9548587e-07
8.9402005e-07
8.9143616e-07
8.8819829e-07
8.8459218e-07
8.8079583e-07
8.7692117e-07
8.7303941e-07
8.6919521e-07
8.6541644e-07
8.6172037e-07
8.581171e-07
8.5461143e-07
8.5120464e-07
8.4789571e-07
8.4468228e-07
8.4156128e-07
8.3852907e-07
8.3558184e-07
8.3271572e-07
8.2992659e-07
8.2721047e-07
8.2456365e-07
8.2198229e-07
8.194627e-07
8.1700159e-07
8.1459572e-07
8.1224179e-07
8.0993688e-07
8.0767838e-07
8.0546359e-07
8.032898e-07
8.011547e-07
7.9905621e-07
7.9699213e-07
7.9496021e-07
7.9295857e-07
7.9098555e-07
7.8903938e-07
7.8711821e-07
7.8522041e-07
7.8334458e-07
7.8148935e-07
7.796532e-07
7.7783462e-07
7.7603239e-07
7.7424541e-07
7.7247245e-07
7.707122e-07
7.6896342e-07
7.6722513e-07
7.6549635e-07
7.6377594e-07
7.6206268e-07
7.6035557e-07
7.586537e-07
7.5695613e-07
7.5526173e-07
7.5356933e-07
7.5187801e-07
7.501869e-07
7.4849497e-07
7.4680102e-07
7.4510394e-07
7.4340275e-07
7.4169651e-07
7.3998399e-07
7.3826383e-07
7.3653491e-07
7.3479617e-07
7.3304626e-07
7.3128365e-07
7.2950688e-07
7.2771462e-07
7.2590537e-07
7.240773e-07
7.2222858e-07
7.2035753e-07
7.1846223e-07
7.165403e-07
7.1458946e-07
7.1260746e-07
7.1059158e-07
7.0853858e-07
7.06446e-07
7.0435643e-07
7.0233645e-07
7.0040598e-07
6.9855847e-07
6.9678765e-07
6.9508774e-07
6.9345382e-07
6.9188146e-07
6.9036636e-07
6.8890451e-07
6.8749257e-07
6.8612749e-07
6.8480634e-07
6.8352623e-07
6.8228429e-07
6.8107831e-07
6.7990491e-07
6.7876366e-07
6.7764275e-07
6.7655863e-07
6.7543664e-07
6.7445713e-07
6.7281229e-07
1.9999533e-06
2.000015e-06
2.0001963e-06
2.0004711e-06
2.0008141e-06
2.0012131e-06
2.0016611e-06
2.0021524e-06
2.0026825e-06
2.0032485e-06
2.0038488e-06
2.0044832e-06
2.0051528e-06
2.00586e-06
2.0066098e-06
2.0074088e-06
2.0082708e-06
2.0092053e-06
2.0102607e-06
2.0114182e-06
2.0129007e-06
2.0144716e-06
2.0171741e-06
2.0224517e-06
8.6519717e-07
9.2485807e-07
9.7660518e-07
9.9343779e-07
9.9881417e-07
1.0003838e-06
9.9996569e-07
9.9831457e-07
9.9587419e-07
9.929293e-07
9.8966934e-07
9.8622197e-07
9.8267278e-07
9.7908001e-07
9.7548411e-07
9.71913e-07
9.6838535e-07
9.6491314e-07
9.6150386e-07
9.5816193e-07
9.5488974e-07
9.5168808e-07
9.4855669e-07
9.4549464e-07
9.4250017e-07
9.3957122e-07
9.3670565e-07
9.3390095e-07
9.3115446e-07
9.2846375e-07
9.2582633e-07
9.2323947e-07
9.2070071e-07
9.1820785e-07
9.1575851e-07
9.1335024e-07
9.1098089e-07
9.0864856e-07
9.063512e-07
9.0408662e-07
9.0185298e-07
8.9964869e-07
8.9747202e-07
8.9532112e-07
8.9319432e-07
8.9109021e-07
8.8900741e-07