/*--------------------------------*- C++ -*----------------------------------*\
  =========                 |
  \\      /  F ield         | OpenFOAM: The Open Source CFD Toolbox
   \\    /   O peration     | Website:  https://openfoam.org
    \\  /    A nd           | Version:  12
     \\/     M anipulation  |
\*---------------------------------------------------------------------------*/
FoamFile
{
    format      ascii;
    class       volScalarField;
    location    "500";
    object      p;
}
// * * * * * * * * * * * * * * * * * * * * * * * * * * * * * * * * * * * * * //

dimensions      [0 2 -2 0 0 0 0];

internalField   nonuniform List<scalar> 
7480
(
0.0087171228
0.0081282449
0.0070201025
0.0064119445
0.0061121507
0.0058666548
0.0056061733
0.0053525992
0.005112522
0.0048746665
0.0046319201
0.0043833767
0.0041400129
0.0039215687
0.0037513819
0.0036409691
0.003586055
0.0035504392
0.0035295759
0.0035141983
0.0035023275
0.003493562
0.0034815876
0.0034550133
0.0034161699
0.0033732675
0.0033305087
0.0032902469
0.0032498491
0.0032099833
0.0031715685
0.0031345895
0.0030996178
0.0030646671
0.0030263726
0.0029852614
0.0029430954
0.0029014351
0.0028616276
0.0028235317
0.0027864731
0.0027504465
0.0027155074
0.0026815964
0.0026483119
0.0026150651
0.002581401
0.0025476551
0.0025139235
0.0024788798
0.002441133
0.0024032292
0.0023676112
0.0023346119
0.0023020322
0.0022684718
0.0022331434
0.0021953493
0.0021561747
0.0021169929
0.0020777791
0.0020380729
0.0019979507
0.001957465
0.001916388
0.0018747466
0.001832677
0.0017901018
0.0017469877
0.0017033938
0.0016591977
0.0016143577
0.0015689319
0.0015228006
0.0014759719
0.0014284563
0.0013801154
0.0013309873
0.0012810421
0.0012300992
0.0011783741
0.0011255272
0.0010712349
0.0010158406
0.0009582664
0.00089060699
0.00081686319
0.00076201167
0.00070786938
0.0006501588
0.00059209409
0.00053549536
0.00048021515
0.00042550668
0.00037321102
0.00032031984
0.0002839065
0.0002260048
0.00038489098
-0.0002797489
0.0082807751
0.0076994665
0.0068348663
0.0063081392
0.0060393462
0.0058145014
0.0055723101
0.0053354432
0.0051150271
0.0049027773
0.0046926272
0.0044831246
0.0042824639
0.0041020313
0.0039521264
0.0038383773
0.0037551764
0.003700277
0.0036589828
0.0036254632
0.0035935295
0.0035599528
0.0035206534
0.003475603
0.0034286338
0.0033815813
0.003337555
0.0032968684
0.0032569416
0.0032178207
0.0031799991
0.0031433645
0.0031081169
0.0030724429
0.0030337539
0.0029926895
0.0029508206
0.0029095102
0.0028699124
0.0028317843
0.0027944859
0.0027581085
0.0027227725
0.002688459
0.0026546917
0.0026208816
0.0025866709
0.0025522132
0.0025176222
0.0024817817
0.0024443409
0.0024072408
0.0023724284
0.0023394029
0.0023063031
0.002272212
0.0022365361
0.0021985729
0.0021593053
0.0021200332
0.0020807274
0.0020409331
0.0020007285
0.001960163
0.0019190053
0.0018772828
0.001835131
0.0017924705
0.0017492694
0.0017055886
0.0016613068
0.0016163829
0.0015708754
0.0015246642
0.0014777581
0.0014301672
0.0013817551
0.0013325614
0.0012825546
0.001231553
0.0011797718
0.0011268704
0.0010725232
0.001017065
0.00095924839
0.0008901232
0.00081948437
0.00076662826
0.00071216151
0.0006534775
0.0005947423
0.00053765615
0.00048199042
0.00042698979
0.00037449095
0.00032145062
0.00028492446
0.00022701529
0.00038594731
-0.00027898181
0.0079897408
0.0075790485
0.006901991
0.0063869295
0.0060969045
0.0058590599
0.0056106188
0.005366901
0.0051393099
0.0049197212
0.004701813
0.0044828073
0.0042708121
0.0040766934
0.0039123911
0.0037865146
0.003699834
0.0036497692
0.0036198759
0.0035973815
0.0035746778
0.0035485084
0.0035176916
0.0034842784
0.0034477981
0.0034080868
0.0033670051
0.0033253244
0.0032834542
0.0032417603
0.0032007725
0.0031605316
0.0031216815
0.0030833592
0.0030432993
0.0030016231
0.0029594902
0.0029180826
0.0028784518
0.0028402657
0.0028028333
0.0027662632
0.0027306871
0.0026961072
0.0026619507
0.0026276333
0.0025929241
0.0025580313
0.0025229792
0.0024868247
0.0024494057
0.0024121534
0.0023769657
0.0023434806
0.0023100447
0.0022757723
0.0022400056
0.0022020153
0.0021627265
0.0021234015
0.0020840136
0.0020441199
0.0020038114
0.001963141
0.0019218793
0.0018800591
0.0018378141
0.0017950606
0.001751767
0.0017079957
0.0016636256
0.0016186164
0.0015730264
0.0015267352
0.0014797519
0.0014320866
0.0013836017
0.0013343366
0.0012842604
0.0012331919
0.0011813473
0.0011283849
0.001073981
0.0010184803
0.00096052495
0.00089094383
0.00082372153
0.00077107855
0.00071614413
0.0006569325
0.00059775116
0.00054024306
0.00048419939
0.00042889377
0.00037615717
0.00032291162
0.00028622868
0.00022831746
0.00038716425
-0.00027802128
0.00776405
0.0074468288
0.0068507497
0.0063462676
0.0060458211
0.0058103888
0.0055700405
0.0053330201
0.0051112338
0.0048984203
0.0046884036
0.0044787852
0.0042774363
0.0040944081
0.0039406222
0.0038232976
0.0037423167
0.0036923278
0.0036582305
0.0036282041
0.0035972657
0.0035640555
0.0035282841
0.0034909337
0.0034509985
0.003409276
0.0033667985
0.0033242651
0.0032834225
0.0032440888
0.0032060337
0.0031689307
0.0031320948
0.0030943953
0.0030546353
0.0030128129
0.0029699667
0.0029274434
0.0028866771
0.0028476469
0.0028096782
0.0027727393
0.0027368766
0.0027021217
0.0026678385
0.002633346
0.0025983998
0.0025633234
0.0025279952
0.0024915416
0.0024538385
0.0024162371
0.0023806885
0.0023469172
0.0023133041
0.0022789117
0.002243063
0.0022050557
0.0021657698
0.0021264123
0.0020869571
0.002046983
0.0020065971
0.0019658485
0.0019245063
0.0018826118
0.0018402944
0.0017974644
0.0017540922
0.0017102424
0.0016657939
0.0016207071
0.0015750408
0.001528674
0.0014816165
0.0014338784
0.0013853204
0.0013359821
0.0012858338
0.0012346947
0.0011827823
0.0011297539
0.0010752894
0.0010197352
0.00096176919
0.00089337205
0.00082724496
0.00077408192
0.00071881881
0.00065937276
0.00059994937
0.00054219895
0.00048594429
0.00043045074
0.00037754156
0.00032414521
0.00028734855
0.00022932742
0.00038821075
-0.00027721288
0.0075576574
0.007296265
0.0067813053
0.0063227275
0.006032105
0.0058053531
0.0055737017
0.0053416877
0.0051224856
0.0049121016
0.0047050493
0.0044992957
0.0043017037
0.0041213377
0.003967626
0.0038472114
0.0037603297
0.003702241
0.0036609029
0.0036261366
0.0035931011
0.0035597113
0.003524762
0.0034881694
0.0034491067
0.0034082216
0.0033662693
0.0033241149
0.0032834248
0.0032439998
0.0032057953
0.00316888
0.0031320823
0.0030943462
0.0030554244
0.0030151937
0.0029743656
0.0029338046
0.0028941058
0.0028553541
0.0028173546
0.0027799801
0.0027433674
0.0027078893
0.0026731127
0.0026383086
0.0026031273
0.0025678907
0.0025324225
0.0024958169
0.0024579642
0.0024202248
0.0023844927
0.0023504962
0.0023166743
0.0022821032
0.0022461236
0.0022080679
0.0021687649
0.0021293603
0.0020898366
0.0020497911
0.00200934
0.0019685216
0.0019271071
0.0018851509
0.0018427704
0.0017998693
0.0017564238
0.0017125009
0.0016679784
0.0016228178
0.0015770781
0.0015306377
0.0014835075
0.0014356975
0.0013870678
0.0013376589
0.001287441
0.0012362332
0.0011842546
0.0011311608
0.0010766335
0.0010210164
0.00096305067
0.00089569254
0.00083021837
0.00077689881
0.00072144519
0.00066179658
0.00060213995
0.00054415856
0.00048769951
0.00043201522
0.00037893137
0.00032539328
0.00028848211
0.0002303153
0.00038922962
-0.00027631902
0.0073686882
0.0071507504
0.0067135006
0.0063004069
0.0060145511
0.005787741
0.0055593626
0.0053301417
0.0051127364
0.0049053234
0.0047012599
0.0045007067
0.0043083839
0.0041325182
0.0039817703
0.0038623152
0.0037747028
0.0037146451
0.0036717612
0.0036362995
0.0036028544
0.0035689274
0.0035332397
0.003495688
0.0034558645
0.0034143504
0.0033718778
0.0033293365
0.0032880963
0.0032480742
0.0032092264
0.0031714912
0.0031337395
0.0030951757
0.0030557008
0.0030151725
0.002974331
0.002933962
0.0028943021
0.0028558058
0.0028187054
0.0027826686
0.0027474171
0.0027127127
0.0026781765
0.0026433723
0.0026079132
0.0025722346
0.0025363929
0.0024995545
0.0024615809
0.0024237903
0.0023879643
0.002353803
0.002319812
0.0022851064
0.0022490352
0.0022109446
0.0021716247
0.0021321833
0.0020926116
0.0020525126
0.0020120111
0.0019711359
0.001929662
0.0018876561
0.0018452234
0.0018022617
0.0017587535
0.0017147675
0.0016701801
0.001624954
0.0015791489
0.0015326419
0.0014854453
0.0014375691
0.001388873
0.0013393988
0.0012891159
0.0012378436
0.0011858028
0.001132647
0.0010780588
0.0010223781
0.00096439218
0.00089773235
0.00083297676
0.00077978732
0.0007242745
0.00066446601
0.00060457915
0.00054634647
0.00048964651
0.0004337443
0.00038047087
0.0003267737
0.00028972215
0.00023139738
0.00039026688
-0.0002752296
0.0071961463
0.0070121961
0.0066408
0.0062686229
0.0059899303
0.0057654399
0.0055438173
0.0053212605
0.0051085909
0.004906117
0.0047060312
0.0045110206
0.004323944
0.0041523537
0.0040042468
0.0038852303
0.0037959875
0.0037325906
0.0036859867
0.0036471553
0.0036107517
0.0035744008
0.0035369632
0.0034982104
0.0034577668
0.003415965
0.003373427
0.0033309345
0.0032896359
0.0032495746
0.0032106657
0.0031727864
0.0031349825
0.003096519
0.0030571929
0.0030168237
0.0029760344
0.0029355006
0.0028955151
0.0028566845
0.0028193019
0.0027831076
0.0027478031
0.0027129709
0.0026785588
0.0026444151
0.0026100508
0.0025752331
0.0025397485
0.002503122
0.0024651645
0.0024271983
0.002391096
0.0023566636
0.0023224687
0.0022876438
0.00225153
0.0022134504
0.0021741495
0.0021347086
0.0020951248
0.0020550014
0.0020144757
0.0019735702
0.0019320595
0.0018900199
0.0018475511
0.0018045469
0.0017609927
0.0017169591
0.001672321
0.0016270426
0.0015811841
0.0015346215
0.0014873688
0.0014394358
0.0013906816
0.0013411496
0.0012908086
0.0012394776
0.0011873803
0.0011341674
0.0010795226
0.0010237809
0.00096576547
0.00089967399
0.00083563812
0.00078262415
0.00072711705
0.00066720454
0.00060711827
0.00054864422
0.00049170112
0.00043557617
0.00038210653
0.00032824193
0.00029103308
0.00023254227
0.00039127679
-0.00027392991
0.0070380011
0.0068802305
0.0065637641
0.0062303351
0.0059630327
0.005742823
0.0055280732
0.0053118549
0.0051033368
0.0049040232
0.0047081987
0.0045176213
0.0043350719
0.0041673251
0.0040216206
0.0039030191
0.0038123134
0.0037460031
0.003696242
0.0036548354
0.0036165715
0.0035790196
0.0035409341
0.0035018261
0.0034612687
0.003419449
0.0033769353
0.0033344556
0.0032930239
0.0032527818
0.0032136266
0.0031754181
0.0031373384
0.0030986675
0.0030591696
0.0030187207
0.0029778787
0.0029373026
0.0028973391
0.0028585261
0.0028210788
0.0027847148
0.0027490999
0.0027138781
0.0026791167
0.0026447245
0.0026103059
0.0025753825
0.0025398292
0.0025036231
0.0024665372
0.0024293999
0.0023936677
0.0023593161
0.002325009
0.0022899595
0.0022536785
0.0022155476
0.0021762432
0.0021368107
0.0020972459
0.0020571336
0.0020166196
0.0019757195
0.0019342024
0.0018921541
0.001849673
0.0018066485
0.0017630691
0.0017190073
0.0016743361
0.0016290217
0.0015831251
0.001536521
0.0014892251
0.0014412471
0.0013924456
0.0013428657
0.0012924753
0.0012410935
0.0011889473
0.0011356838
0.0010809882
0.0010251898
0.00096714587
0.00090159219
0.00083821955
0.00078535033
0.00072987434
0.00066989977
0.00060964762
0.00055095473
0.00049378302
0.00043744392
0.00038378101
0.00032975061
0.00029237613
0.00023371186
0.00039221094
-0.00027240585
0.0068923202
0.0067549324
0.0064843115
0.0061870627
0.005933475
0.0057183131
0.0055099765
0.0053002062
0.0050963612
0.004900925
0.0047099466
0.0045241248
0.0043464228
0.0041828283
0.0040398183
0.0039219821
0.0038302016
0.0037614057
0.0037087783
0.0036648934
0.003624682
0.0035856315
0.0035464243
0.0035064356
0.0034652566
0.0034230097
0.0033802114
0.0033375303
0.0032958483
0.0032553529
0.0032159292
0.0031774146
0.0031390879
0.0031002558
0.0030606728
0.0030202513
0.0029794746
0.002938962
0.002899062
0.0028602406
0.0028227058
0.0027862264
0.0027504994
0.0027152166
0.002680401
0.0026459078
0.0026113037
0.0025761079
0.0025402942
0.0025039307
0.0024668643
0.0024297412
0.0023939306
0.0023597385
0.0023259612
0.002291417
0.0022553948
0.0022174438
0.002178166
0.0021386524
0.0020990236
0.0020588867
0.0020183787
0.0019775051
0.0019360106
0.0018939837
0.0018515202
0.0018085027
0.0017649231
0.0017208562
0.001676173
0.001630842
0.0015849255
0.0015382963
0.0014909726
0.0014429641
0.0013941283
0.0013445126
0.001294084
0.0012426614
0.0011904756
0.00113717
0.0010824309
0.0010265824
0.00096851514
0.00090348354
0.00084072064
0.00078796695
0.00073253288
0.00067252425
0.00061213383
0.00055324463
0.0004958611
0.0004393195
0.00038546986
0.00033127891
0.00029373302
0.00023488819
0.00039303308
-0.00027062646
0.0067573186
0.0066361343
0.0064036714
0.0061393952
0.0059008253
0.005691773
0.0054899985
0.0052871235
0.0050886142
0.0048975149
0.0047112991
0.0045301634
0.0043570943
0.0041974139
0.0040569196
0.0039397967
0.0038469907
0.0037758428
0.0037204287
0.0036740545
0.0036318566
0.0035912835
0.0035509774
0.0035102174
0.0034685763
0.0034260921
0.003383193
0.0033404702
0.0032986814
0.003258038
0.0032184274
0.0031796704
0.0031411312
0.003102158
0.0030624995
0.0030220892
0.0029813465
0.0029408508
0.0029009547
0.0028620817
0.0028244448
0.0027878514
0.002752013
0.0027166361
0.002681702
0.0026470674
0.0026123362
0.0025770754
0.0025412495
0.0025048809
0.0024677958
0.002430563
0.0023945165
0.0023600648
0.0023261464
0.0022914635
0.0022553777
0.0022177453
0.0021790371
0.0021399593
0.0021005321
0.00206047
0.0020199238
0.0019790065
0.0019374962
0.0018954778
0.0018530421
0.0018100529
0.0017664987
0.0017224532
0.0016777825
0.0016324576
0.0015865422
0.0015399069
0.0014925734
0.0014445507
0.0013956957
0.0013460585
0.0012956048
0.0012441533
0.0011919395
0.0011386019
0.0010838286
0.0010279384
0.00096985496
0.00090532895
0.00084313483
0.00079047516
0.00073508862
0.0006750672
0.00061456239
0.00055549825
0.00049791982
0.00044118842
0.00038716004
0.00033281507
0.00029509261
0.00023606004
0.00039371148
-0.00026855153
0.0066315586
0.0065235344
0.006322778
0.0060880823
0.0058652351
0.0056634257
0.0054684232
0.0052726203
0.00507981
0.0048932871
0.0047117764
0.0045353671
0.0043668829
0.0042110886
0.0040731747
0.0039569498
0.003863391
0.0037902219
0.0037322966
0.0036836091
0.0036395435
0.0035975316
0.0035561726
0.0035146613
0.0034725326
0.0034297499
0.0033866632
0.0033437994
0.0033018168
0.0032609426
0.0032210751
0.0031820244
0.0031432275
0.0031040766
0.0030643139
0.0030238864
0.0029831606
0.0029426762
0.0029027872
0.0028638803
0.0028261624
0.0027894673
0.0027535183
0.0027180381
0.0026829851
0.0026482251
0.0026133917
0.002578075
0.0025422086
0.0025058037
0.002468732
0.0024315395
0.0023954703
0.0023609034
0.0023267991
0.0022918801
0.0022555893
0.0022178741
0.0021791704
0.0021400609
0.0021007005
0.0020610167
0.0020208759
0.0019801888
0.0019387966
0.0018967836
0.0018543244
0.0018113243
0.0017677814
0.0017237636
0.0016791225
0.0016338255
0.001587934
0.001541314
0.0014939906
0.0014459724
0.0013971151
0.0013474723
0.0012970081
0.0012455413
0.0011933126
0.0011399548
0.0010851583
0.0010292367
0.00097114569
0.0009071085
0.00084544746
0.00079286318
0.00073752822
0.00067751305
0.00061691648
0.00055769892
0.00049994353
0.00044303643
0.00038883871
0.00033434747
0.00029644382
0.00023721578
0.0003942131
-0.00026613488
0.0065138775
0.0064167377
0.0062423408
0.0060338879
0.0058269217
0.0056333081
0.0054452785
0.0052566178
0.0050698192
0.0048881801
0.0047114624
0.0045398532
0.0043759291
0.0042239796
0.0040886603
0.0039734344
0.0038792951
0.0038043232
0.0037440609
0.0036931448
0.0036472364
0.0036037762
0.0035613274
0.0035190223
0.0034763596
0.0034332422
0.0033899478
0.003346939
0.0033047831
0.0032637061
0.003223615
0.0031843109
0.0031452903
0.0031059885
0.0030661441
0.0030257133
0.0029850177
0.0029445567
0.0029046812
0.0028657452
0.0028279463
0.0027911443
0.0027550795
0.0027194923
0.0026843231
0.002649441
0.0026145012
0.0025791132
0.0025431916
0.0025067502
0.0024697006
0.0024325504
0.002396439
0.0023617323
0.0023274724
0.0022924541
0.00225613
0.0022184144
0.0021796611
0.0021404193
0.0021009271
0.0020612031
0.0020210166
0.0019803149
0.0019391618
0.0018975075
0.0018553029
0.001812421
0.0017688965
0.0017248662
0.0016802201
0.0016349385
0.0015890759
0.0015424854
0.0014951909
0.0014471969
0.0013983554
0.0013487246
0.0012982661
0.0012467986
0.0011945694
0.0011412046
0.0010863968
0.0010304561
0.00097236714
0.00090880138
0.00084763778
0.00079511158
0.00073983249
0.0006798423
0.00061917664
0.00055982797
0.00050191503
0.00044484803
0.00039049187
0.00033586352
0.00029777478
0.00023834323
0.00039447904
-0.00026332668
0.0064033068
0.0063153095
0.0061628792
0.0059775143
0.0057861416
0.0056014558
0.0054206328
0.0052391648
0.0050586387
0.0048821737
0.0047103409
0.0045435487
0.0043841368
0.004235979
0.0041032632
0.0039891402
0.0038946088
0.0038180758
0.0037556916
0.0037026853
0.0036550135
0.0036101506
0.0035666331
0.0035235472
0.0034803554
0.0034369051
0.0033934022
0.0033502436
0.0033079141
0.0032666296
0.0032263072
0.0031867444
0.0031474894
0.0031080218
0.0030680807
0.0030276276
0.0029869461
0.0029464955
0.0029066204
0.0028676463
0.0028297614
0.0027928494
0.0027566677
0.0027209723
0.0026856869
0.0026506812
0.0026156316
0.0025801693
0.0025441957
0.0025077243
0.0024706958
0.0024335779
0.0023974163
0.0023625719
0.0023281687
0.0022930563
0.0022566822
0.0022189522
0.0021802002
0.0021409611
0.0021014699
0.0020617022
0.0020214072
0.001980578
0.0019393593
0.0018976718
0.0018554473
0.0018127242
0.0017694993
0.0017256998
0.0016811599
0.0016358986
0.0015900321
0.0015434436
0.0014961683
0.0014482047
0.0013993919
0.001349789
0.0012993531
0.0012479005
0.0011956863
0.0011423284
0.0010875225
0.0010315759
0.00097349947
0.00091038625
0.00084968272
0.00079719796
0.00074197974
0.00068203375
0.00062132219
0.00056186579
0.00050381622
0.00044660681
0.00039210474
0.00033734993
0.00029907289
0.00023942854
0.00039447408
-0.00026007705
0.0062990311
0.006218818
0.0060847588
0.0059195863
0.005743196
0.0055679398
0.0053945628
0.0052203157
0.0050462454
0.0048751986
0.0047083458
0.004546382
0.0043914548
0.0042470611
0.0041169761
0.0040040695
0.0039093367
0.0038314773
0.0037671801
0.003712219
0.0036628557
0.003616624
0.0035720447
0.0035281713
0.003484433
0.0034406265
0.0033968907
0.0033535591
0.0033110435
0.0032695439
0.0032289872
0.003189171
0.0031496867
0.0031100563
0.0030700219
0.0030295468
0.0029888807
0.0029484438
0.0029085713
0.0028695637
0.002831599
0.0027945819
0.0027582868
0.0027224834
0.0026870821
0.0026519533
0.0026167942
0.0025812571
0.0025452323
0.00250873
0.0024717164
0.0024346245
0.0023984141
0.0023634381
0.0023288932
0.0022936797
0.0022572468
0.002219502
0.002180759
0.0021415221
0.0021020167
0.0020622173
0.0020219048
0.0019810744
0.0019398319
0.0018980669
0.0018557278
0.0018129318
0.0017696748
0.0017258548
0.0016814495
0.001636443
0.001590768
0.0015442666
0.0014970041
0.001449042
0.0014002399
0.0013506592
0.0013002527
0.0012488268
0.001196642
0.0011433054
0.001088515
0.0010325769
0.00097452413
0.00091184286
0.00085155978
0.00079909969
0.00074394764
0.00068406548
0.00062333184
0.00056379214
0.00050562827
0.0004482956
0.00039366173
0.00033879264
0.00030032486
0.00024045694
0.00039415114
-0.00025632515
0.0062003604
0.006126853
0.006008224
0.0058606443
0.0056984098
0.0055328584
0.0053671372
0.0052001223
0.0050326269
0.0048672022
0.0047054331
0.0045483141
0.0043978517
0.004257202
0.0041297748
0.0040181905
0.0039234359
0.0038444724
0.0037784668
0.0037216929
0.0036707196
0.0036231633
0.0035775412
0.0035328848
0.0034885944
0.003444421
0.0034004414
0.0033569277
0.0033142254
0.0032725139
0.0032317274
0.003191666
0.0031519582
0.0031121658
0.0030720366
0.0030315336
0.0029908766
0.0029504488
0.0029105733
0.0028715291
0.0028334834
0.0027963592
0.0027599482
0.002724033
0.0026885137
0.0026532608
0.002617991
0.0025823765
0.0025462984
0.0025097637
0.0024727605
0.0024356908
0.0023994325
0.0023643269
0.0023296387
0.0022943215
0.0022578303
0.0022200722
0.002181337
0.0021420966
0.0021025724
0.0020627468
0.0020224216
0.0019815803
0.0019403131
0.0018985284
0.0018561856
0.0018133736
0.0017700522
0.0017261285
0.0016816561
0.0016366172
0.0015909299
0.0015445763
0.0014975306
0.0014497066
0.0014009712
0.001351398
0.0013009958
0.0012495846
0.0011974287
0.0011441206
0.0010893573
0.001033442
0.00097542436
0.00091315314
0.00085324896
0.00080079595
0.00074571479
0.00068591603
0.00062518438
0.00056558648
0.00050733185
0.00044989651
0.00039514647
0.00034017675
0.00030151663
0.00024141354
0.00039345436
-0.00025200218
0.006106707
0.0060390346
0.0059334269
0.005801144
0.0056521128
0.0054963344
0.0053384248
0.0051786412
0.0050177884
0.0048581469
0.0047015623
0.0045493043
0.0044032876
0.0042663669
0.0041416278
0.0040314706
0.0039368707
0.0038570211
0.0037895131
0.0037310765
0.0036785845
0.0036297554
0.0035831152
0.0035376835
0.0034928366
0.0034482853
0.0034040487
0.0033603404
0.0033174453
0.0032755195
0.0032345025
0.0031941993
0.0031542702
0.0031143146
0.0030740881
0.0030335518
0.002992899
0.0029524778
0.002912597
0.002873516
0.0028353913
0.002798162
0.0027616363
0.0027256092
0.0026899724
0.0026545968
0.0026192167
0.0025835236
0.0025473917
0.0025108244
0.0024738286
0.0024367772
0.002400471
0.0023652374
0.0023304061
0.0022949845
0.0022584348
0.0022206613
0.0021819309
0.0021426855
0.0021031444
0.0020632948
0.0020229535
0.0019820958
0.0019408058
0.0018990069
0.0018566556
0.0018138247
0.0017704822
0.0017265503
0.001682061
0.0016369621
0.0015911822
0.0015447785
0.0014976997
0.0014498807
0.0014013089
0.0013519198
0.0013016127
0.0012502368
0.0011980923
0.0011447932
0.0010900494
0.0010341622
0.0009761875
0.00091430218
0.0008547337
0.00080226922
0.00074726249
0.00068756584
0.00062685982
0.00056722892
0.00050890768
0.00045139133
0.00039654201
0.00034148666
0.00030263328
0.00024228208
0.00039234832
-0.00024704301
0.0060175665
0.0059550157
0.0058604518
0.005741462
0.0056046247
0.0054585113
0.0053084995
0.0051559319
0.005001747
0.0048480052
0.0046966942
0.0045493137
0.0044077262
0.0042745254
0.0041525092
0.0040438829
0.003949609
0.0038690845
0.0038002772
0.003740332
0.0036864188
0.003636374
0.0035887459
0.0035425505
0.0034971463
0.0034522087
0.0034077043
0.0033637913
0.0033206994
0.0032785595
0.0032373142
0.0031967752
0.0031566301
0.003116513
0.0030761889
0.003035616
0.0029949636
0.0029545466
0.002914658
0.0028755393
0.0028373369
0.0028000031
0.0027633627
0.0027272222
0.0026914673
0.0026559687
0.0026204776
0.0025847036
0.0025485163
0.0025119155
0.0024749232
0.0024378853
0.0024015304
0.0023661706
0.0023311968
0.00229567
0.0022590602
0.0022212689
0.0021825412
0.0021432909
0.0021037329
0.0020638587
0.0020234995
0.0019826257
0.0019413151
0.0018995005
0.0018571359
0.0018142859
0.0017709268
0.0017269842
0.0016824769
0.0016373592
0.0015915714
0.0015451465
0.0014980053
0.0014501057
0.0014014949
0.0013520807
0.0013018219
0.0012506087
0.0011986094
0.0011453731
0.001090643
0.0010347652
0.0009768217
0.00091528629
0.00085600421
0.00080350685
0.00074857589
0.00068899853
0.00062834062
0.00056870126
0.0005103375
0.00045276228
0.00039783137
0.00034270641
0.00030365941
0.0002430454
0.00039076738
-0.00024138029
0.0059325044
0.0058744829
0.0057893341
0.0056819036
0.0055562453
0.0054195479
0.0052774422
0.0051320556
0.0049845287
0.0048367608
0.0046907957
0.0045483085
0.0044111356
0.00428165
0.0041623938
0.0040553999
0.0039616175
0.0038806222
0.0038107156
0.0037494197
0.00369419
0.0036429939
0.0035944144
0.0035474723
0.0035015141
0.003456185
0.0034114043
0.0033672781
0.0033239857
0.0032816321
0.003240161
0.0031993912
0.0031590348
0.0031187572
0.0030783341
0.0030377204
0.0029970636
0.0029566477
0.0029167484
0.0028775909
0.0028393118
0.0028018745
0.0027651198
0.0027288652
0.0026929919
0.002657371
0.0026217689
0.0025859127
0.0025496692
0.0025130342
0.0024760418
0.0024390131
0.0024026092
0.0023671257
0.0023320103
0.0022963773
0.0022597063
0.002221895
0.0021831685
0.0021439128
0.0021043375
0.0020644383
0.0020240605
0.0019831709
0.0019418395
0.0019000078
0.0018576294
0.0018147619
0.0017713858
0.0017274284
0.0016829027
0.0016377698
0.0015919713
0.0015455284
0.001498372
0.0014504643
0.0014018243
0.0013523439
0.0013020212
0.0012507723
0.0011987752
0.0011456474
0.001091063
0.0010352702
0.00097737294
0.00091614029
0.00085707635
0.00080451094
0.0007496485
0.0006902029
0.00062961293
0.00056998804
0.00051160509
0.00045399293
0.00039899835
0.00034382035
0.00030457958
0.00024368558
0.00038865292
-0.00023494481
0.005851144
0.0057971544
0.0057200748
0.0056227116
0.0055072472
0.0053796112
0.0052453418
0.0051070757
0.0049661674
0.0048244079
0.0046838406
0.0045462592
0.0044134875
0.0042877145
0.0041712572
0.0040659949
0.0039728636
0.0038915949
0.0038207858
0.0037582999
0.0037018649
0.0036495883
0.0036000998
0.0035524328
0.0035059277
0.0034602048
0.0034151413
0.003370795
0.003327299
0.0032847327
0.0032430388
0.0032020437
0.0031614811
0.0031210449
0.0030805222
0.0030398644
0.0029991992
0.0029587817
0.0029188695
0.0028796727
0.0028413181
0.0028037788
0.0027669105
0.0027305412
0.0026945496
0.0026588068
0.0026230936
0.0025871539
0.0025508528
0.0025141825
0.0024771865
0.0024401626
0.002403709
0.0023681039
0.0023328477
0.0022971076
0.002260374
0.0022225409
0.0021838137
0.0021445517
0.0021049586
0.0020650343
0.0020246374
0.0019837313
0.0019423788
0.0019005294
0.0018581371
0.001815252
0.0017718578
0.0017278851
0.0016833421
0.0016381934
0.0015923808
0.0015459206
0.0014987513
0.0014508326
0.0014021752
0.001352683
0.0013023492
0.0012510559
0.0011989968
0.001145833
0.0010912233
0.0010354776
0.00097772556
0.00091686022
0.00085799514
0.00080532298
0.00075050114
0.00069118359
0.00063067153
0.00057107885
0.00051269737
0.00045506908
0.00040002836
0.00034481388
0.00030537897
0.00024418508
0.00038595152
-0.00022766998
0.0057731577
0.005722778
0.0056526508
0.0055640759
0.0054578733
0.00533887
0.0052122944
0.0050810586
0.0049467028
0.0048109507
0.0046758102
0.0045431411
0.0044147572
0.0042926959
0.0041790768
0.0040756425
0.0039833158
0.0039019644
0.0038304458
0.003766932
0.0037094084
0.0036561283
0.0036057793
0.0035574143
0.0035103736
0.0034642578
0.0034189074
0.0033743361
0.0033306347
0.0032878574
0.0032459445
0.00320473
0.0031639666
0.0031233742
0.0030827515
0.0030420466
0.0030013692
0.0029609471
0.0029210199
0.0028817829
0.002843354
0.0028057141
0.0027687328
0.0027322485
0.0026961385
0.0026602744
0.0026244503
0.0025884257
0.0025520659
0.0025153593
0.0024783562
0.0024413328
0.0024048288
0.0023691043
0.0023337086
0.0022978606
0.0022610632
0.0022232062
0.0021844765
0.0021452075
0.0021055963
0.0020656468
0.0020252302
0.0019843071
0.0019429334
0.0019010658
0.001858659
0.0018157561
0.0017723433
0.001728355
0.0016837947
0.0016386292
0.0015928021
0.0015463254
0.0014991422
0.0014512098
0.0014025364
0.0013530337
0.0013026866
0.0012513858
0.0011993094
0.0011461203
0.0010914724
0.0010356824
0.00097791268
0.0009172801
0.00085863391
0.00080592179
0.00075116606
0.00069197835
0.00063153745
0.00057197935
0.00051360985
0.00045598105
0.00040090945
0.00034567416
0.0003060437
0.0002445277
0.00038261625
-0.0002194975
0.005698259
0.0056511281
0.0055870233
0.0055061423
0.005408335
0.0052974896
0.005178402
0.0050540734
0.0049261798
0.0047964027
0.0046666935
0.0045389346
0.0044149242
0.0042965738
0.0041858319
0.0040843187
0.0039929439
0.0039116931
0.0038396536
0.0037752748
0.0037167843
0.0036625838
0.0036114282
0.0035623973
0.0035148366
0.0034683327
0.003422694
0.0033778948
0.0033339872
0.0032910015
0.0032488741
0.0032074462
0.0031664879
0.0031257422
0.0030850195
0.003044265
0.0030035717
0.0029631425
0.0029231982
0.0028839204
0.0028454185
0.0028076795
0.0027705862
0.002733987
0.0026977588
0.0026617742
0.0026258394
0.0025897289
0.0025533092
0.0025165651
0.0024795516
0.0024425243
0.0024059692
0.0023701275
0.0023345935
0.0022986372
0.0022617747
0.0022238919
0.0021851576
0.0021458807
0.002106251
0.0020662763
0.0020258392
0.0019848987
0.0019435036
0.0019016173
0.0018591955
0.0018162744
0.0017728427
0.0017288384
0.0016842603
0.0016390776
0.0015932359
0.0015467425
0.0014995444
0.0014515983
0.0014029095
0.0013533943
0.0013030334
0.0012517261
0.0011996286
0.0011464249
0.0010917847
0.0010359837
0.00097822411
0.00091769874
0.00085913273
0.00080622243
0.00075151776
0.00069254814
0.00063223065
0.00057272277
0.00051436323
0.00045673465
0.00040163793
0.00034639247
0.00030656217
0.00024469559
0.00037861586
-0.00021038547
0.005626197
0.005582003
0.005523143
0.0054490203
0.0053588135
0.0052556277
0.0051437701
0.0050261927
0.0049046477
0.0047807847
0.0046564878
0.0045336261
0.0044139722
0.0042993313
0.0041915039
0.0040920012
0.004001719
0.0039207449
0.003848368
0.003783287
0.0037239551
0.003668923
0.0036170205
0.003567361
0.0035193005
0.0034724165
0.0034264911
0.0033814632
0.0033373501
0.0032941595
0.003251823
0.0032101883
0.0031690414
0.0031281459
0.0030873236
0.0030465174
0.003005805
0.002965366
0.002925403
0.002886084
0.0028475102
0.0028096739
0.0027724698
0.0027357559
0.0026994099
0.0026633056
0.0026272605
0.0025910632
0.0025545824
0.0025177995
0.0024807723
0.0024437369
0.0024071299
0.0023711731
0.0023355025
0.0022994373
0.0022625086
0.0022245978
0.0021858572
0.0021465715
0.0021069229
0.0020669228
0.0020264647
0.0019855061
0.0019440896
0.0019021842
0.0018597468
0.0018168073
0.0017733563
0.0017293355
0.0016847394
0.0016395391
0.0015936822
0.0015471718
0.0014999584
0.0014519985
0.0014032939
0.0013537656
0.0013033913
0.0012520765
0.001199957
0.0011467405
0.0010921083
0.0010362902
0.00097860183
0.00091817978
0.00085965405
0.00080655253
0.00075176499
0.00069286857
0.00063264441
0.00057326037
0.00051496907
0.00045735845
0.00040223374
0.00034697522
0.00030693405
0.00024466084
0.00037394768
-0.0002003168
0.0055567505
0.0055152223
0.0054609543
0.0053927899
0.0053094614
0.0052134306
0.0051085054
0.0049974916
0.0048821594
0.0047641248
0.0046451982
0.0045272081
0.0044118895
0.004300955
0.004196077
0.0040986695
0.0040096138
0.003929085
0.0038565488
0.0037909274
0.0037308827
0.0036751129
0.0036225284
0.0035722826
0.0035237471
0.0034764951
0.0034302877
0.0033850327
0.0033407165
0.0032973254
0.0032547859
0.0032129517
0.0031716228
0.0031305815
0.0030896607
0.0030488013
0.0030080669
0.0029676159
0.0029276325
0.0028882719
0.0028496277
0.002811696
0.0027743824
0.0027375544
0.0027010911
0.0026648682