/*--------------------------------*- C++ -*----------------------------------*\
  =========                 |
  \\      /  F ield         | OpenFOAM: The Open Source CFD Toolbox
   \\    /   O peration     | Website:  https://openfoam.org
    \\  /    A nd           | Version:  12
     \\/     M anipulation  |
\*---------------------------------------------------------------------------*/
FoamFile
{
    format      ascii;
    class       surfaceScalarField;
    location    "500";
    object      phi;
}
// * * * * * * * * * * * * * * * * * * * * * * * * * * * * * * * * * * * * * //

dimensions      [0 3 -1 0 0 0 0];

internalField   nonuniform List<scalar> 
25880
(
2.0046411e-06
1.30239e-11
2.0046071e-06
3.4027238e-11
2.0045619e-06
4.5201616e-11
2.0045116e-06
5.0318465e-11
2.0044556e-06
5.5988489e-11
2.0043931e-06
6.246419e-11
2.0043238e-06
6.933088e-11
2.0042471e-06
7.6725857e-11
2.0041621e-06
8.4990237e-11
2.0040676e-06
9.4436449e-11
2.0039623e-06
1.0538318e-10
2.003844e-06
1.1826632e-10
2.0037103e-06
1.3370924e-10
2.0035576e-06
1.5271378e-10
2.003381e-06
1.7659537e-10
2.0031727e-06
2.0827658e-10
2.0029228e-06
2.4990649e-10
2.0026076e-06
3.1522382e-10
2.0022107e-06
3.9682236e-10
2.0016153e-06
5.954216e-10
2.0008393e-06
7.7602547e-10
1.9986131e-06
2.2262176e-09
1.9972523e-06
1.3607512e-09
1.0277665e-06
9.6948587e-07
4.3285697e-08
9.8448076e-07
2.7460256e-08
1.5825441e-08
2.5420558e-08
2.0396979e-09
2.4599291e-08
8.2126706e-10
2.4013498e-08
5.8579297e-10
2.3511714e-08
5.0178424e-10
2.3067632e-08
4.4408228e-10
2.2670672e-08
3.9695927e-10
2.2312338e-08
3.5833421e-10
2.1985492e-08
3.268458e-10
2.1684851e-08
3.006417e-10
2.1406564e-08
2.782869e-10
2.1147675e-08
2.5888899e-10
2.0905789e-08
2.4188631e-10
2.0678921e-08
2.2686769e-10
2.0465408e-08
2.1351264e-10
2.0263837e-08
2.0157166e-10
2.0072985e-08
1.9085193e-10
1.9891787e-08
1.8119732e-10
1.9719324e-08
1.7246321e-10
1.9554784e-08
1.6454021e-10
1.9397463e-08
1.5732055e-10
1.9246748e-08
1.5071547e-10
1.9102073e-08
1.4467445e-10
1.896295e-08
1.3912302e-10
1.8828949e-08
1.3400105e-10
1.8699665e-08
1.2928472e-10
1.8574735e-08
1.2492967e-10
1.8453848e-08
1.2088651e-10
1.8336712e-08
1.1713625e-10
1.8223048e-08
1.1366427e-10
1.8112617e-08
1.1043066e-10
1.800521e-08
1.0740755e-10
1.7900615e-08
1.0459475e-10
1.7798635e-08
1.0197961e-10
1.7699105e-08
9.9530442e-11
1.7601875e-08
9.7230358e-11
1.7506791e-08
9.5083982e-11
1.7413705e-08
9.3085914e-11
1.7322495e-08
9.1210047e-11
1.7233052e-08
8.9442393e-11
1.7145263e-08
8.778952e-11
1.7059013e-08
8.6249575e-11
1.6974206e-08
8.4807516e-11
1.6890756e-08
8.3449482e-11
1.6808582e-08
8.2174235e-11
1.6727596e-08
8.0986303e-11
1.6647713e-08
7.9882906e-11
1.6568865e-08
7.8847979e-11
1.6490991e-08
7.787403e-11
1.6414022e-08
7.6968435e-11
1.633789e-08
7.6132654e-11
1.626253e-08
7.5359668e-11
1.6187891e-08
7.4638958e-11
1.6113922e-08
7.3968638e-11
1.6040567e-08
7.3355266e-11
1.5967766e-08
7.2800955e-11
1.5895469e-08
7.2296667e-11
1.5823635e-08
7.1834609e-11
1.5752216e-08
7.1418359e-11
1.5681163e-08
7.1053427e-11
1.5610422e-08
7.0741067e-11
1.553995e-08
7.0471504e-11
1.5469711e-08
7.0239446e-11
1.5399658e-08
7.0052783e-11
1.5329742e-08
6.9916253e-11
1.5259914e-08
6.9827616e-11
1.5190135e-08
6.9779594e-11
1.5120364e-08
6.977066e-11
1.5050555e-08
6.9809627e-11
1.4980652e-08
6.9902544e-11
1.491061e-08
7.0041559e-11
1.4840389e-08
7.0221039e-11
1.4769939e-08
7.0450038e-11
1.4699203e-08
7.0736727e-11
1.4628123e-08
7.1079403e-11
1.4556651e-08
7.1472078e-11
1.4484733e-08
7.1917905e-11
1.4412305e-08
7.2428101e-11
1.43393e-08
7.3005387e-11
1.4265656e-08
7.3643658e-11
1.4191309e-08
7.4346995e-11
1.4116179e-08
7.5129871e-11
1.4040184e-08
7.5994754e-11
1.3963247e-08
7.6937481e-11
1.3885279e-08
7.7968147e-11
1.3806174e-08
7.9104815e-11
1.3725836e-08
8.0337634e-11
1.3644132e-08
8.1704449e-11
1.3564412e-08
7.9719503e-11
1.3488509e-08
7.5903784e-11
1.3416133e-08
7.2375332e-11
1.3347013e-08
6.9120745e-11
1.3280891e-08
6.6121518e-11
1.3217544e-08
6.3346903e-11
1.3156775e-08
6.0769033e-11
1.3098399e-08
5.8375718e-11
1.3042243e-08
5.6156226e-11
1.2988155e-08
5.4088155e-11
1.2936003e-08
5.2152129e-11
1.2885661e-08
5.0341454e-11
1.283701e-08
4.8651728e-11
1.278993e-08
4.707974e-11
1.2744319e-08
4.5610929e-11
1.2700062e-08
4.4257066e-11
1.265708e-08
4.298171e-11
1.2615118e-08
4.1962422e-11
1.2574276e-08
4.0842058e-11
1.2533349e-08
4.0926282e-11
1.2494331e-08
3.9018059e-11
1.2446275e-08
4.8056467e-11
3.0446406e-11
2.0345148e-06
2.6280849e-11
2.0344801e-06
6.8686764e-11
2.0344341e-06
9.1267855e-11
2.0343828e-06
1.0160796e-10
2.0343257e-06
1.1305664e-10
2.0342621e-06
1.2612969e-10
2.0341914e-06
1.3999081e-10
2.0341132e-06
1.5491655e-10
2.0340266e-06
1.7159521e-10
2.0339304e-06
1.9065726e-10
2.033823e-06
2.1274564e-10
2.0337025e-06
2.3873953e-10
2.0335664e-06
2.6989618e-10
2.0334108e-06
3.0823621e-10
2.033231e-06
3.5641219e-10
2.033019e-06
4.2031866e-10
2.0327646e-06
5.0428666e-10
2.0324438e-06
6.3602623e-10
2.03204e-06
8.0058127e-10
2.0314344e-06
1.2010702e-09
2.0306452e-06
1.5651851e-09
2.0283818e-06
4.4896109e-09
2.0269944e-06
2.7481728e-09
1.0992978e-06
1.8971825e-06
1.2991893e-07
1.9538596e-06
8.402396e-08
6.1720416e-08
7.7784982e-08
8.2786754e-09
7.5270345e-08
3.3359043e-09
7.3476312e-08
2.3798264e-09
7.1940682e-08
2.0374133e-09
7.0581935e-08
1.8028296e-09
6.9367351e-08
1.611543e-09
6.8270929e-08
1.4547565e-09
6.7270871e-08
1.3269042e-09
6.6351007e-08
1.2205058e-09
6.5499548e-08
1.1297455e-09
6.470744e-08
1.0509973e-09
6.3967353e-08
9.8197346e-10
6.3273217e-08
9.2100372e-10
6.2619942e-08
8.6678728e-10
6.2003202e-08
8.1831176e-10
6.1419259e-08
7.7479494e-10
6.0864856e-08
7.3560063e-10
6.0337174e-08
7.0014485e-10
5.9833734e-08
6.6798013e-10
5.9352383e-08
6.386714e-10
5.889124e-08
6.1185889e-10
5.8448581e-08
5.8733337e-10
5.8022907e-08
5.6479702e-10
5.7612903e-08
5.4400525e-10
5.7217329e-08
5.2485788e-10
5.6835081e-08
5.0717769e-10
5.6465203e-08
4.9076498e-10
5.6106799e-08
4.7554067e-10
5.5759018e-08
4.6144455e-10
5.5421131e-08
4.4831765e-10
5.5092493e-08
4.3604608e-10
5.4772461e-08
4.246267e-10
5.4460431e-08
4.1400927e-10
5.4155895e-08
4.04067e-10
5.3858395e-08
3.9473041e-10
5.3567462e-08
3.8601656e-10
5.3282644e-08
3.779042e-10
5.3003565e-08
3.7028916e-10
5.2729893e-08
3.6311407e-10
5.2461279e-08
3.5640368e-10
5.2197377e-08
3.501515e-10
5.1937887e-08
3.4429709e-10
5.1682552e-08
3.3878457e-10
5.1431119e-08
3.3360773e-10
5.118332e-08
3.2878488e-10
5.0938898e-08
3.2430487e-10
5.0697642e-08
3.2010372e-10
5.0459366e-08
3.1615049e-10
5.022386e-08
3.1247386e-10
4.9990913e-08
3.0908057e-10
4.976033e-08
3.0594227e-10
4.9531952e-08
3.0301685e-10
4.9305625e-08
3.0029591e-10
4.9081174e-08
2.9780568e-10
4.885842e-08
2.9555498e-10
4.8637209e-08
2.9350776e-10
4.8417411e-08
2.9163246e-10
4.8198887e-08
2.899427e-10
4.7981479e-08
2.8846109e-10
4.7765028e-08
2.8719266e-10
4.7549401e-08
2.8609854e-10
4.7334483e-08
2.8515695e-10
4.7120137e-08
2.8439909e-10
4.6906209e-08
2.8384469e-10
4.6692551e-08
2.8348472e-10
4.6479041e-08
2.8329009e-10
4.6265557e-08
2.8325413e-10
4.6051955e-08
2.8341232e-10
4.5838068e-08
2.8378927e-10
4.5623756e-08
2.843538e-10
4.5408894e-08
2.850829e-10
4.5193331e-08
2.860126e-10
4.4976892e-08
2.8717639e-10
4.4759404e-08
2.8856758e-10
4.4540714e-08
2.9016208e-10
4.4320659e-08
2.9197226e-10
4.4099044e-08
2.9404347e-10
4.3875662e-08
2.9638712e-10
4.3650327e-08
2.9897866e-10
4.342284e-08
3.0183432e-10
4.3192957e-08
3.0501256e-10
4.2960428e-08
3.085239e-10
4.2725014e-08
3.1235151e-10
4.2486446e-08
3.1653596e-10
4.22444e-08
3.2115057e-10
4.1998582e-08
3.2615574e-10
4.1748581e-08
3.3170537e-10
4.1504654e-08
3.2364701e-10
4.1272402e-08
3.0815577e-10
4.1050946e-08
2.9383109e-10
4.0839449e-08
2.8061819e-10
4.0637128e-08
2.6844187e-10
4.0443298e-08
2.5717759e-10
4.0257354e-08
2.4671212e-10
4.0078734e-08
2.3699572e-10
3.9906906e-08
2.2798488e-10
3.9741405e-08
2.1958894e-10
3.9581828e-08
2.1172916e-10
3.9427791e-08
2.0437808e-10
3.9278925e-08
1.9751798e-10
3.9134869e-08
1.9113575e-10
3.8995308e-08
1.8517242e-10
3.8859889e-08
1.7967574e-10
3.8728374e-08
1.7449707e-10
3.8599978e-08
1.703582e-10
3.8475015e-08
1.6580466e-10
3.8349792e-08
1.6614911e-10
3.8230479e-08
1.5833173e-10
3.8083149e-08
1.9538647e-10
1.2317202e-10
2.0947074e-06
3.9973975e-11
2.0946716e-06
1.0451383e-10
2.0946239e-06
1.3891463e-10
2.0945709e-06
1.5466725e-10
2.0945118e-06
1.7209314e-10
2.094446e-06
1.9198743e-10
2.0943729e-06
2.1307884e-10
2.094292e-06
2.3578726e-10
2.0942024e-06
2.6115949e-10
2.0941029e-06
2.9015459e-10
2.0939919e-06
3.2375025e-10
2.0938674e-06
3.6328312e-10
2.0937266e-06
4.1066439e-10
2.0935659e-06
4.6896589e-10
2.0933801e-06
5.4221931e-10
2.093161e-06
6.3938566e-10
2.0928983e-06
7.6704327e-10
2.092567e-06
9.6731897e-10
2.0921501e-06
1.2174436e-09
2.091525e-06
1.8261748e-09
2.0907107e-06
2.3794486e-09
2.0883758e-06
6.8245101e-09
2.0869411e-06
4.182874e-09
1.1884373e-06
2.7956863e-06
2.217018e-07
2.9205951e-06
1.4561373e-07
1.3780849e-07
1.3480103e-07
1.9091373e-08
1.3044099e-07
7.6959514e-09
1.2732995e-07
5.4908636e-09
1.2466853e-07
4.6988279e-09
1.2231411e-07
4.157255e-09
1.2020949e-07
3.7161626e-09
1.1830958e-07
3.3546638e-09
1.1657667e-07
3.0598163e-09
1.1498274e-07
2.8144374e-09
1.1350735e-07
2.6051378e-09
1.1213479e-07
2.4235513e-09
1.1085237e-07
2.26439e-09
1.0964958e-07
2.1237997e-09
1.0851758e-07
1.9987815e-09
1.0744889e-07
1.8870019e-09
1.0643703e-07
1.7866576e-09
1.0547635e-07
1.6962787e-09
1.0456198e-07
1.6145225e-09
1.036896e-07
1.5403528e-09
1.028555e-07
1.4727698e-09
1.0205642e-07
1.4109445e-09
1.0128936e-07
1.3543887e-09
1.0055174e-07
1.302422e-09
9.9841265e-08
1.2544798e-09
9.9155796e-08
1.210326e-09
9.8493418e-08
1.1695561e-09
9.7852472e-08
1.1317111e-09
9.7231407e-08
1.0966052e-09
9.6628753e-08
1.0640986e-09
9.6043242e-08
1.0338293e-09
9.5473754e-08
1.0055336e-09
9.491918e-08
9.7920043e-10
9.4378474e-08
9.5471573e-10
9.3850751e-08
9.317901e-10
9.3335219e-08
9.1026192e-10
9.2831068e-08
8.9016766e-10
9.2337513e-08
8.7145943e-10
9.1853902e-08
8.5390005e-10
9.137966e-08
8.3735614e-10
9.0914182e-08
8.2188189e-10
9.045687e-08
8.0746366e-10
9.0007203e-08
7.9396344e-10
8.9564735e-08
7.812528e-10
8.9129027e-08
7.6931568e-10
8.8699618e-08
7.581939e-10
8.8276061e-08
7.4786227e-10
8.7857989e-08
7.3817508e-10
8.744508e-08
7.2906019e-10
8.7036972e-08
7.2058179e-10
8.6633296e-08
7.1275644e-10
8.6233719e-08
7.0551933e-10
8.5837962e-08
6.9877412e-10
8.5445757e-08
6.9250036e-10
8.5056805e-08
6.8675782e-10
8.4670793e-08
6.815672e-10
8.4287454e-08
6.768465e-10
8.3906563e-08
6.7252302e-10
8.3527879e-08
6.6862675e-10
8.315113e-08
6.6521008e-10
8.2776038e-08
6.6228467e-10
8.2402375e-08
6.5976212e-10
8.202994e-08
6.5759178e-10
8.1658495e-08
6.5584424e-10
8.1287774e-08
6.5456569e-10
8.0917523e-08
6.5373557e-10
8.0547526e-08
6.5328742e-10
8.0177575e-08
6.5320524e-10
7.9807417e-08
6.5357015e-10
7.9436767e-08
6.5443918e-10
7.9065379e-08
6.5574147e-10
7.8693038e-08
6.5742374e-10
7.8319483e-08
6.5956796e-10
7.7944408e-08
6.6225173e-10
7.7567515e-08
6.6546015e-10
7.7188539e-08
6.6913791e-10
7.6807199e-08
6.733129e-10
7.6423153e-08
6.7808939e-10
7.6036046e-08
6.8349424e-10
7.5645553e-08
6.8947126e-10
7.525133e-08
6.9605729e-10
7.4852956e-08
7.0338673e-10
7.4449995e-08
7.1148458e-10
7.4042034e-08
7.2031221e-10
7.3628608e-08
7.2996249e-10
7.3209154e-08
7.4060443e-10
7.2783162e-08
7.5214746e-10
7.2349921e-08
7.6494675e-10
7.1927204e-08
7.4636395e-10
7.152472e-08
7.1063969e-10
7.1140945e-08
6.7760602e-10
7.0774427e-08
6.471362e-10
7.0423812e-08
6.1905658e-10
7.008791e-08
5.9308043e-10
6.9765675e-08
5.6894649e-10
6.9456131e-08
5.4653967e-10
6.9158356e-08
5.2575971e-10
6.8871547e-08
5.06398e-10
6.8595004e-08
4.8827287e-10
6.8328061e-08
4.7132053e-10
6.8070079e-08
4.5550028e-10
6.7820433e-08
4.4078183e-10
6.7578576e-08
4.2702945e-10
6.7343899e-08
4.1435299e-10
6.7115987e-08
4.0240913e-10
6.6893483e-08
3.9286184e-10
6.6676932e-08
3.8235526e-10
6.6459938e-08
3.8314304e-10
6.6253231e-08
3.650388e-10
6.5997715e-08
4.5090245e-10
2.8357055e-10
2.1861159e-06
5.4315265e-11
2.1860783e-06
1.4206872e-10
2.1860283e-06
1.8889323e-10
2.1859727e-06
2.1033529e-10
2.1859107e-06
2.3403143e-10
2.1858417e-06
2.6107793e-10
2.185765e-06
2.8974872e-10
2.1856802e-06
3.2061317e-10
2.1855862e-06
3.5509348e-10
2.1854819e-06
3.9449292e-10
2.1853655e-06
4.4013958e-10
2.1852349e-06
4.9384873e-10
2.1850874e-06
5.5821567e-10
2.1849189e-06
6.3741181e-10
2.1847242e-06
7.3691093e-10
2.1844947e-06
8.6888193e-10
2.1842195e-06
1.0422493e-09
2.1838726e-06
1.3142226e-09
2.1834362e-06
1.6538331e-09
2.1827821e-06
2.480328e-09
2.1819303e-06
3.2312648e-09
2.1794883e-06
9.2664417e-09
2.1779839e-06
5.6873161e-09
1.298815e-06
3.6748552e-06
3.2375529e-07
3.8956548e-06
2.1588924e-07
2.4567454e-07
1.9986381e-07
3.5116805e-08
1.9339509e-07
1.4164677e-08
1.8878025e-07
1.0105703e-08
1.8483464e-07
8.6444332e-09
1.813448e-07
7.6470966e-09
1.7822523e-07
6.8357286e-09
1.7540902e-07
6.1708756e-09
1.7284034e-07
5.6284957e-09
1.7047769e-07
5.1770953e-09
1.6829073e-07
4.7920899e-09
1.662562e-07
4.4580823e-09
1.6435527e-07
4.1653264e-09
1.6257234e-07
3.9067269e-09
1.6089435e-07
3.6767691e-09
1.5931019e-07
3.4711629e-09
1.5781026e-07
3.2865915e-09
1.5638619e-07
3.120348e-09
1.5503074e-07
2.9699668e-09
1.5373756e-07
2.8335372e-09
1.525011e-07
2.7092242e-09
1.5131654e-07
2.595504e-09
1.5017946e-07
2.4914708e-09
1.49086e-07
2.3958818e-09
1.4803278e-07
2.3076982e-09
1.4701663e-07
2.2264779e-09
1.4603471e-07
2.1514827e-09
1.4508455e-07
2.0818709e-09
1.4416386e-07
2.0172958e-09
1.4327046e-07
1.9574985e-09
1.4240246e-07
1.9018199e-09
1.4155822e-07
1.8497737e-09
1.4073609e-07
1.8013336e-09
1.3993452e-07
1.7562923e-09
1.3915218e-07
1.7141223e-09
1.3838792e-07
1.6745242e-09
1.3764053e-07
1.6375604e-09
1.3690884e-07
1.6031446e-09
1.361919e-07
1.5708453e-09
1.3548884e-07
1.5404155e-09
1.3479877e-07
1.5119504e-09
1.3412081e-07
1.4854266e-09
1.3345418e-07
1.4605929e-09
1.3279822e-07
1.4372135e-09
1.3215228e-07
1.4152562e-09
1.3151567e-07
1.3947971e-09
1.3088774e-07
1.3757908e-09
1.3026795e-07
1.3579722e-09
1.296558e-07
1.3412074e-09
1.2905077e-07
1.3256113e-09
1.2845231e-07
1.3112158e-09
1.2785993e-07
1.2979029e-09
1.2727321e-07
1.2854965e-09
1.2669175e-07
1.2739573e-09
1.2611511e-07
1.2633938e-09
1.2554283e-07
1.253845e-09
1.2497452e-07
1.2451618e-09
1.2440983e-07
1.2372106e-09
1.2384841e-07
1.2300443e-09
1.2328986e-07
1.2237594e-09
1.2273377e-07
1.2183778e-09
1.2217979e-07
1.2137388e-09
1.2162764e-07
1.2097484e-09
1.2107695e-07
1.2065345e-09
1.2052733e-07
1.2041828e-09
1.1997841e-07
1.2026564e-09
1.1942986e-07
1.2018337e-09
1.1888138e-07
1.2016844e-09
1.183326e-07
1.2023566e-09
1.1778308e-07
1.2039556e-09
1.1723247e-07
1.2063528e-09
1.1668044e-07
1.2094498e-09
1.1612662e-07
1.2133956e-09
1.1557053e-07
1.2183335e-09
1.1501176e-07
1.224237e-09
1.1444989e-07
1.2310048e-09
1.1388452e-07
1.2386872e-09
1.1331513e-07
1.2474754e-09
1.1274121e-07
1.2574197e-09
1.1216226e-07
1.2684175e-09
1.1157778e-07
1.2805356e-09
1.1098715e-07
1.2940207e-09
1.1038971e-07
1.3089198e-09
1.0978486e-07
1.3251622e-09
1.0917191e-07
1.3429176e-09
1.0855001e-07
1.362497e-09
1.0791843e-07
1.3837349e-09
1.0727609e-07
1.407285e-09
1.0664935e-07
1.3731e-09
1.0605261e-07
1.3073787e-09
1.0548361e-07
1.2466077e-09
1.0494019e-07
1.1905534e-09
1.0442035e-07
1.1388958e-09
1.0392233e-07
1.0911084e-09
1.0344456e-07
1.0467101e-09
1.0298561e-07
1.0054886e-09
1.0254411e-07
9.6725971e-10
1.0211887e-07
9.3164029e-10
1.0170885e-07
8.9829597e-10
1.0131306e-07
8.6710876e-10
1.0093056e-07
8.3800389e-10
1.0056041e-07
8.1092566e-10
1.0020182e-07
7.8562479e-10
9.9853868e-08
7.6230268e-10
9.951595e-08
7.4032762e-10
9.9186055e-08
7.2275724e-10
9.8864987e-08
7.0342249e-10
9.8543283e-08
7.0484759e-10
9.8236856e-08
6.7146552e-10
9.7857887e-08
8.2987108e-10
5.2122094e-10
2.3101025e-06
6.9529261e-11
2.3100626e-06
1.8194708e-10
2.3100095e-06
2.4200465e-10
2.3099503e-06
2.6950746e-10
2.3098845e-06
2.9986764e-10
2.309811e-06
3.3451138e-10
2.3097296e-06
3.7123107e-10
2.3096394e-06
4.107539e-10
2.3095396e-06
4.5490024e-10
2.3094288e-06
5.0533857e-10
2.3093051e-06
5.6376854e-10
2.3091665e-06
6.3251259e-10
2.3090098e-06
7.148907e-10
2.308831e-06
8.1623931e-10
2.3086243e-06
9.4355925e-10
2.3083808e-06
1.1124181e-09
2.3080888e-06
1.3342207e-09
2.3077209e-06
1.6821573e-09
2.3072582e-06
2.1165414e-09
2.3065648e-06
3.1736561e-09
2.3056623e-06
4.1337568e-09
2.303076e-06
1.1852802e-08
2.3014779e-06
7.2853718e-09
1.4343127e-06
4.5420204e-06
4.4147028e-07
4.8884973e-06
2.9899541e-07
3.8814941e-07
2.7681904e-07
5.7293179e-08
2.6785131e-07
2.3132406e-08
2.6145838e-07
1.6498631e-08
2.5599596e-07
1.4106853e-08
2.511654e-07
1.2477654e-08
2.4684732e-07
1.1153816e-08
2.4294895e-07
1.0069241e-08
2.3939317e-07
9.1842718e-09
2.3612256e-07
8.4477068e-09
2.3309514e-07
7.8195136e-09
2.3027866e-07
7.2745597e-09
2.2764707e-07
6.7969131e-09
2.2517881e-07
6.3749883e-09
2.2285579e-07
5.9997903e-09
2.2066263e-07
5.6643236e-09
2.1858605e-07
5.3631766e-09
2.1661446e-07
5.0919295e-09
2.1473787e-07
4.8465646e-09
2.1294745e-07
4.6239581e-09
2.1123555e-07
4.4211229e-09
2.0959548e-07
4.2355732e-09
2.0802113e-07
4.0658205e-09
2.0650716e-07
3.9098498e-09
2.0504889e-07
3.7659658e-09
2.0364194e-07
3.6334355e-09
2.0228236e-07
3.5110632e-09
2.0096675e-07
3.3974802e-09
1.9969193e-07
3.2921122e-09
1.9845489e-07
3.194535e-09
1.9725303e-07
3.1036834e-09
1.9608404e-07
3.0187619e-09
1.9494566e-07
2.9397185e-09
1.9383573e-07
2.8662186e-09
1.9275244e-07
2.7974094e-09
1.9169417e-07
2.7327989e-09
1.9065925e-07
2.6724815e-09
1.8964607e-07
2.6163193e-09
1.886533e-07
2.563616e-09
1.8767975e-07
2.5139657e-09
1.8672419e-07
2.4675166e-09
1.8578538e-07
2.4242334e-09
1.8486226e-07
2.3837103e-09
1.8395391e-07
2.3455633e-09
1.8305943e-07
2.3097358e-09
1.8217788e-07
2.27635e-09
1.8130834e-07
2.2453342e-09
1.8045005e-07
2.2162602e-09
1.7960235e-07
2.1889071e-09
1.787645e-07
2.1634581e-09
1.7793575e-07
2.1399669e-09
1.7711541e-07
2.1182434e-09
1.763029e-07
2.0980017e-09
1.7549769e-07
2.079175e-09
1.7469914e-07
2.0619384e-09
1.7390663e-07
2.0463566e-09
1.731196e-07
2.0321893e-09
1.723376e-07
2.0192183e-09
1.7156011e-07
2.0075269e-09
1.707866e-07
1.9972726e-09
1.7001649e-07
1.9884918e-09
1.692493e-07
1.9809251e-09
1.6848463e-07
1.9744182e-09
1.6772199e-07
1.9691765e-09
1.6696083e-07
1.965341e-09
1.6620063e-07
1.9628529e-09
1.6544095e-07
1.961515e-09
1.6468136e-07
1.9612763e-09
1.6392134e-07
1.9623767e-09
1.6316031e-07
1.9649889e-09
1.6239775e-07
1.9689056e-09
1.6163324e-07
1.9739656e-09
1.6086622e-07
1.9804096e-09
1.6009608e-07
1.9884719e-09
1.5932221e-07
1.998111e-09
1.5854405e-07
2.009162e-09
1.5776104e-07
2.0217054e-09
1.5697246e-07
2.0360524e-09
1.5617759e-07
2.0522869e-09
1.5537577e-07
2.0702421e-09
1.5456628e-07
2.0900259e-09
1.5374826e-07
2.1120396e-09
1.5292082e-07
2.1363619e-09
1.520831e-07
2.162878e-09
1.5123415e-07
2.1918632e-09
1.5037283e-07
2.2238246e-09
1.4949807e-07
2.2584945e-09
1.4860841e-07
2.2969402e-09
1.4774036e-07
2.2411502e-09
1.4691385e-07
2.1338855e-09
1.4612576e-07
2.0347012e-09
1.453731e-07
1.9432146e-09
1.4465309e-07
1.8589035e-09
1.4396329e-07
1.7809092e-09
1.4330156e-07
1.7084467e-09
1.4266588e-07
1.6411681e-09
1.4205436e-07
1.5787731e-09
1.4146536e-07
1.5206377e-09
1.4089744e-07
1.4662157e-09
1.4034924e-07
1.4153137e-09
1.3981943e-07
1.3678097e-09
1.3930675e-07
1.3236128e-09
1.3881005e-07
1.2823171e-09
1.3832811e-07
1.2442497e-09
1.3786006e-07
1.2083803e-09
1.3740312e-07
1.1796911e-09
1.3695842e-07
1.148128e-09
1.3651286e-07
1.1504034e-09
1.3608848e-07
1.0958445e-09
1.3556348e-07
1.3548759e-09
8.5028593e-10
2.4685148e-06
8.5857127e-11
2.468472e-06
2.247913e-10
2.4684149e-06
2.9911564e-10
2.4683512e-06
3.3315367e-10
2.4682804e-06
3.7068085e-10
2.4682014e-06
4.1349005e-10
2.4681138e-06
4.5885807e-10
2.4680169e-06
5.0768064e-10
2.4679096e-06
5.6220529e-10
2.4677904e-06
6.244926e-10
2.4676576e-06
6.9664071e-10
2.4675086e-06
7.8151569e-10
2.4673402e-06
8.8321411e-10
2.4671482e-06
1.0083208e-09
2.4669262e-06
1.1654723e-09
2.4666648e-06
1.3738783e-09
2.4663514e-06
1.6475952e-09
2.4659566e-06
2.0769406e-09
2.4654603e-06
2.6128494e-09
2.464717e-06
3.9169956e-09
2.4637498e-06
5.1009462e-09
2.4609791e-06
1.4623471e-08
2.4592617e-06
9.0027588e-09
1.5991715e-06
5.4021106e-06
5.807057e-07
5.9069631e-06
3.9975525e-07
5.6909986e-07
3.7015132e-07
8.6897105e-08
3.5814639e-07
3.5137334e-08
3.4960136e-07
2.5043668e-08
3.4230519e-07
2.1403016e-08
3.3585414e-07
1.892871e-08
3.3008723e-07
1.6920723e-08
3.2488047e-07
1.5276002e-08
3.2013107e-07
1.3933673e-08
3.1576241e-07
1.2816361e-08
3.1171845e-07
1.186348e-08
3.0795611e-07
1.1036897e-08
3.0444062e-07
1.0312403e-08
3.011432e-07
9.6724107e-09
2.980397e-07
9.103284e-09
2.9510961e-07
8.5944191e-09
2.9233518e-07
8.1376084e-09
2.8970096e-07
7.7261442e-09
2.8719359e-07
7.3539407e-09
2.848013e-07
7.0162487e-09
2.8251387e-07
6.70855e-09
2.8032237e-07
6.4270739e-09
2.7821864e-07
6.1695479e-09
2.7619556e-07
5.9329336e-09
2.7424686e-07
5.7146594e-09
2.723667e-07
5.5135967e-09
2.7054982e-07
5.3279441e-09
2.6879167e-07
5.1556329e-09
2.67088e-07
4.995779e-09
2.654348e-07
4.8477361e-09
2.6382858e-07
4.709904e-09
2.6226627e-07
4.581073e-09
2.6074484e-07
4.46115e-09
2.5926142e-07
4.3496335e-09
2.5781359e-07
4.2452418e-09
2.5639917e-07
4.1472229e-09
2.5501594e-07
4.0557092e-09
2.5366176e-07
3.9704958e-09
2.5233484e-07
3.8905378e-09
2.5103359e-07
3.8152156e-09
2.4975636e-07
3.7447434e-09
2.4850153e-07
3.679071e-09
2.4726765e-07
3.6175901e-09
2.4605349e-07
3.5597186e-09
2.4485786e-07
3.5053647e-09
2.436795e-07
3.454711e-09
2.4251718e-07
3.4076522e-09
2.413699e-07
3.3635451e-09
2.4023675e-07
3.3220513e-09
2.3911677e-07
3.283442e-09
2.3800894e-07
3.247801e-09
2.3691233e-07
3.2148441e-09
2.358262e-07
3.1841392e-09
2.3474979e-07
3.1555816e-09
2.336823e-07
3.1294332e-09
2.3262286e-07
3.1057942e-09
2.3157074e-07
3.0843047e-09
2.3052533e-07
3.0646333e-09
2.2948595e-07
3.046902e-09
2.2845188e-07
3.0313488e-09
2.2742234e-07
3.0180312e-09
2.263967e-07
3.0065595e-09
2.2537442e-07
2.9966979e-09
2.2435485e-07
2.9887534e-09
2.2333725e-07
2.9829415e-09
2.2232092e-07
2.9791753e-09
2.2130528e-07
2.9771575e-09
2.2028975e-07
2.9768083e-09
2.1927364e-07
2.9784889e-09
2.1825616e-07
2.9824627e-09
2.1723665e-07
2.9884194e-09
2.162145e-07
2.9961132e-09
2.1518901e-07
3.0059054e-09
2.1415933e-07
3.0181525e-09
2.1312464e-07
3.0327942e-09
2.1208422e-07
3.0495811e-09
2.110373e-07
3.0686329e-09
2.0998293e-07
3.0904206e-09
2.0892014e-07
3.1150738e-09
2.0784804e-07
3.1423412e-09
2.0676568e-07
3.1723841e-09
2.0567191e-07
3.2058103e-09
2.0456553e-07
3.2427421e-09
2.034454e-07
3.2830057e-09
2.0231025e-07
3.3270167e-09
2.0115853e-07
3.3755448e-09
1.9998884e-07
3.4281864e-09
1.9879922e-07
3.4865624e-09
1.9763847e-07
3.4018942e-09
1.9653327e-07
3.239088e-09
1.9547942e-07
3.0885469e-09
1.9447295e-07
2.9496888e-09
1.9351013e-07
2.8217206e-09
1.925877e-07
2.7033403e-09
1.9170279e-07
2.5933563e-09
1.9085272e-07
2.491239e-09
1.9003496e-07
2.396533e-09
1.8924731e-07
2.3082929e-09
1.8848783e-07
2.2256895e-09
1.8775472e-07
2.1484275e-09
1.8704621e-07
2.0763221e-09
1.8636058e-07
2.0092355e-09
1.8569635e-07
1.9465525e-09
1.8505183e-07
1.8887676e-09
1.8442589e-07
1.8343183e-09
1.8381483e-07
1.7907524e-09
1.8322012e-07
1.7428375e-09
1.8262432e-07
1.7462029e-09
1.8205685e-07
1.6633167e-09
1.8135466e-07
2.0570614e-09
1.2902952e-09
2.6637137e-06
1.0356117e-10
2.6636672e-06
2.7130329e-10
2.6636051e-06
3.6117671e-10
2.6635359e-06
4.0233895e-10
2.6634589e-06
4.4765592e-10
2.6633731e-06
4.9933367e-10
2.6632779e-06
5.5409155e-10
2.6631725e-06
6.1300696e-10
2.663056e-06
6.7879047e-10
2.6629265e-06
7.5392792e-10
2.6627822e-06
8.4094929e-10
2.6626204e-06
9.4330925e-10
2.6624377e-06
1.065945e-09
2.6622292e-06
1.2167927e-09
2.6619884e-06
1.4062586e-09
2.6617048e-06
1.6574951e-09
2.661365e-06
1.9874209e-09
2.660937e-06
2.5048963e-09
2.6603992e-06
3.1506605e-09
2.6595941e-06
4.7220872e-09
2.6585471e-06
6.1479983e-09
2.6555491e-06
1.7621483e-08
2.6536843e-06
1.0867568e-08
1.7980493e-06
6.2577456e-06
7.4792948e-07
6.9570829e-06
5.238549e-07
7.9317444e-07
4.851615e-07
1.2559051e-07
4.694124e-07
5.0886432e-08
4.5822821e-07
3.6227859e-08
4.4868625e-07
3.0944973e-08
4.4025083e-07
2.7364127e-08
4.3270933e-07
2.4462222e-08
4.2589947e-07
2.2085862e-08
4.1968722e-07
2.0145922e-08
4.1397257e-07
1.8531014e-08
4.0868225e-07
1.7153801e-08
4.0375999e-07
1.595916e-08
3.9916034e-07
1.4912046e-08
3.9484573e-07
1.3987024e-08
3.9078462e-07
1.3164398e-08
3.8695018e-07
1.2428857e-08
3.8331924e-07
1.1768542e-08
3.7987163e-07
1.1173754e-08
3.7658987e-07
1.0635708e-08
3.7345858e-07
1.0147535e-08
3.7046442e-07
9.7027144e-09
3.6759569e-07
9.2957985e-09
3.6484176e-07
8.9234831e-09
3.6219329e-07
8.5814027e-09
3.5964211e-07
8.2658407e-09
3.5718056e-07
7.9751416e-09
3.5480179e-07
7.7067199e-09
3.5249982e-07
7.4575965e-09
3.5026913e-07
7.2264742e-09
3.4810445e-07
7.0124156e-09
3.4600122e-07
6.81313e-09
3.4395543e-07
6.6268644e-09
3.4196312e-07
6.453464e-09
3.4002054e-07
6.2922123e-09
3.381245e-07
6.1412741e-09
3.3627217e-07
5.9995546e-09
3.3446065e-07
5.8672285e-09
3.3268714e-07
5.7440065e-09
3.3094929e-07
5.6283951e-09
3.2924501e-07
5.5194922e-09
3.2757216e-07
5.4175921e-09
3.259286e-07
5.3226275e-09
3.2431246e-07
5.2337295e-09
3.2272213e-07
5.1500574e-09
3.2115602e-07
5.0714696e-09
3.1961251e-07
4.9982259e-09
3.1808998e-07
4.9301793e-09
3.1658711e-07
4.8664096e-09
3.1510274e-07
4.8064224e-09
3.1363559e-07
4.7505999e-09
3.1218432e-07
4.6990667e-09
3.1074775e-07
4.6514183e-09
3.0932485e-07
4.6070325e-09
3.0791468e-07
4.5657525e-09
3.0651616e-07
4.5279518e-09
3.0512818e-07
4.4937783e-09
3.0374976e-07
4.4627187e-09
3.023801e-07
4.434293e-09
3.0101834e-07
4.4086709e-09
2.9966349e-07
4.3861958e-09
2.9831457e-07
4.3669539e-09
2.9697074e-07
4.3503875e-09
2.9563128e-07
4.336153e-09
2.9429535e-07
4.3246878e-09
2.9296198e-07
4.3163055e-09
2.9163028e-07
4.3108845e-09
2.9029944e-07
4.307997e-09
2.8896872e-07
4.3075245e-09
2.8763722e-07
4.3099851e-09
2.8630392e-07
4.3157621e-09
2.8496793e-07
4.3244125e-09
2.8362846e-07
4.3355796e-09
2.8228459e-07
4.3497799e-09
2.8093521e-07
4.3675305e-09
2.7957926e-07
4.3887485e-09
2.7821576e-07
4.4130743e-09
2.7684372e-07
4.4406771e-09
2.754619e-07
4.4722369e-09
2.7406903e-07
4.5079447e-09
2.7266393e-07
4.5474395e-09
2.7124537e-07
4.5909512e-09
2.6981182e-07
4.6393573e-09
2.6836172e-07
4.692839e-09
2.6689358e-07
4.7511461e-09
2.6540572e-07
4.8148764e-09
2.6389613e-07
4.8851432e-09
2.6236294e-07
4.9613678e-09
2.6080361e-07
5.0458967e-09
2.592821e-07
4.923402e-09
2.5783337e-07
4.6878154e-09
2.5645194e-07
4.4699768e-09
2.5513259e-07
4.2690426e-09
2.5387045e-07
4.0838641e-09
2.5266123e-07
3.9125601e-09
2.5150118e-07
3.7534055e-09
2.5038679e-07
3.6056318e-09
2.4931474e-07
3.4685809e-09
2.4828214e-07
3.3408875e-09
2.4728648e-07
3.2213511e-09
2.4632537e-07
3.109542e-09
2.453965e-07
3.0051932e-09
2.4449763e-07
2.908106e-09
2.4362679e-07
2.8173912e-09
2.4278179e-07
2.7337615e-09
2.4196115e-07
2.6549581e-09
2.4116002e-07
2.5918805e-09
2.4038033e-07
2.5225331e-09
2.3959927e-07
2.5272627e-09
2.3885535e-07
2.4072392e-09
2.3793465e-07
2.9777582e-09
1.8671696e-09
2.8986079e-06
1.2292991e-10
2.8985569e-06
3.2225901e-10
2.8984889e-06
4.2924291e-10
2.898413e-06
4.7824714e-10
2.8983285e-06
5.3210995e-10
2.8982343e-06
5.9350879e-10
2.8981299e-06
6.5855527e-10
2.8980144e-06
7.2852424e-10
2.8978865e-06
8.0663269e-10
2.8977446e-06
8.9583189e-10
2.8975864e-06
9.9912389e-10
2.8974091e-06
1.1206064e-09
2.897209e-06
1.2661344e-09
2.8969806e-06
1.44512e-09
2.896717e-06
1.6699004e-09
2.8964065e-06
1.967934e-09
2.8960347e-06
2.3592556e-09
2.8955666e-06
2.9729767e-09
2.8949786e-06
3.7386504e-09
2.8940989e-06
5.6017911e-09
2.8929554e-06
7.291494e-09
2.8896832e-06
2.089376e-08
2.8876399e-06
1.2910833e-08
2.0360301e-06
7.1093554e-06
9.5027887e-07
8.0428342e-06
6.7798105e-07
1.0654723e-06
6.2810458e-07
1.7546698e-07
6.077174e-07
7.1273616e-08
5.9328329e-07
5.0661964e-08
5.8098012e-07
4.3248148e-08
5.7010502e-07
3.823922e-08
5.6038082e-07
3.4186423e-08
5.5159822e-07
3.086846e-08
5.4358507e-07
2.8159076e-08
5.3621274e-07
2.5903346e-08
5.2938691e-07
2.3979632e-08
5.2303512e-07
2.2310948e-08
5.170989e-07
2.0848265e-08
5.1152989e-07
1.9556041e-08
5.0628749e-07
1.8406789e-08
5.013372e-07
1.7379151e-08
4.9664917e-07
1.6456569e-08
4.9219743e-07
1.5625499e-08
4.8795946e-07
1.4873682e-08
4.8391547e-07
1.4191516e-08
4.8004828e-07
1.3569911e-08
4.7634281e-07
1.3001263e-08
4.7278537e-07
1.2480927e-08
4.6936393e-07
1.2002844e-08
4.6606795e-07
1.1561821e-08
4.6288758e-07
1.1155514e-08
4.5981396e-07
1.0780336e-08
4.5683941e-07
1.0432141e-08
4.539568e-07
1.010909e-08
4.5115935e-07
9.8098681e-09
4.4844117e-07
9.5313078e-09
4.4579708e-07
9.2709537e-09
4.4322198e-07
9.0285599e-09
4.4071106e-07
8.8031383e-09
4.3826018e-07
8.59215e-09
4.3586568e-07
8.3940534e-09
4.3352384e-07
8.2090692e-09
4.3123105e-07
8.0368032e-09
4.2898425e-07
7.8751931e-09
4.2678077e-07
7.7229685e-09
4.2461784e-07
7.5805191e-09
4.2249271e-07
7.447758e-09
4.2040296e-07
7.3234871e-09
4.1834648e-07
7.206532e-09
4.1632127e-07
7.096682e-09
4.143252e-07
6.9942939e-09
4.1235621e-07
6.8991708e-09
4.1041258e-07
6.81004e-09
4.084928e-07
6.7262032e-09
4.0659522e-07
6.6481801e-09
4.0471814e-07
6.5761503e-09
4.0286e-07
6.5095576e-09
4.0101949e-07
6.4475361e-09
3.9919539e-07
6.3898583e-09
3.973863e-07
6.3370391e-09
3.9559079e-07
6.28929e-09
3.938076e-07
6.2459036e-09
3.9203569e-07
6.2062076e-09
3.9027393e-07
6.1704297e-09
3.8852108e-07
6.1390488e-09
3.8677584e-07
6.1121903e-09
3.8503714e-07
6.0890829e-09
3.8330406e-07
6.0692421e-09
3.8157547e-07
6.05327e-09
3.7985017e-07
6.0416082e-09
3.7812696e-07
6.034093e-09
3.7640483e-07
6.0301292e-09
3.7468281e-07
6.0295463e-09
3.7295973e-07
6.033063e-09
3.7123427e-07
6.0412189e-09
3.6950528e-07
6.0534033e-09
3.6777175e-07
6.069115e-09
3.6603246e-07
6.0890681e-09
3.64286e-07
6.113988e-09
3.6253098e-07
6.1437656e-09
3.6076616e-07
6.1778989e-09
3.5899022e-07
6.2166199e-09
3.5720158e-07
6.2608773e-09
3.5539858e-07
6.3109442e-09
3.535797e-07
6.3663191e-09
3.5174333e-07
6.427319e-09
3.4988752e-07
6.4951692e-09