/*--------------------------------*- C++ -*----------------------------------*\
  =========                 |
  \\      /  F ield         | OpenFOAM: The Open Source CFD Toolbox
   \\    /   O peration     | Website:  https://openfoam.org
    \\  /    A nd           | Version:  12
     \\/     M anipulation  |
\*---------------------------------------------------------------------------*/
FoamFile
{
    format      ascii;
    class       surfaceScalarField;
    location    "500";
    object      phi;
}
// * * * * * * * * * * * * * * * * * * * * * * * * * * * * * * * * * * * * * //

dimensions      [0 3 -1 0 0 0 0];

internalField   nonuniform List<scalar> 
14782
(
0.00078635972
7.1539084e-06
-0.00079351363
0.00077670772
9.6520043e-06
0.00076587448
1.0833236e-05
0.00075456245
1.131203e-05
0.00074277918
1.1783272e-05
0.0007305742
1.2204983e-05
0.00071798653
1.2587664e-05
0.00070506364
1.292289e-05
0.00069187788
1.3185762e-05
0.00067855306
1.3324823e-05
0.00066527929
1.3273773e-05
0.00065231916
1.2960127e-05
0.00064000805
1.2311112e-05
0.00062870081
1.130724e-05
0.00061866691
1.0033899e-05
0.00061001975
8.6471614e-06
0.00060271696
7.3027866e-06
0.00059650978
6.2071765e-06
0.0005912803
5.2294826e-06
0.00058677644
4.5038593e-06
0.00058278738
3.9890666e-06
0.00057921856
3.5688112e-06
0.00057590186
3.3167034e-06
0.00057273097
3.1708956e-06
0.00056966842
3.0625458e-06
0.00056669352
2.9749035e-06
0.0005637972
2.8963155e-06
0.00056098292
2.8142756e-06
0.00055825375
2.7291748e-06
0.00055561535
2.6384038e-06
0.00055306635
2.5489998e-06
0.00055059523
2.4711199e-06
0.00054817088
2.4243479e-06
0.00054575183
2.419047e-06
0.00054331727
2.4345624e-06
0.00054087262
2.4446515e-06
0.00053843967
2.4329509e-06
0.00053604709
2.3925784e-06
0.00053372031
2.3267759e-06
0.00053147415
2.2461669e-06
0.00052931286
2.1612891e-06
0.00052723454
2.0783145e-06
0.00052523249
2.0020507e-06
0.00052329776
1.934731e-06
0.00052140648
1.8912796e-06
0.00051950773
1.8987455e-06
0.0005175166
1.9911324e-06
0.00051529443
2.2221679e-06
0.00051267868
2.6157561e-06
0.00050967323
3.0054467e-06
0.00050654866
3.1245741e-06
0.00050360819
2.9404669e-06
0.00050098585
2.6223414e-06
0.0004986675
2.3183509e-06
0.00049657104
2.0964629e-06
0.00049461808
1.9529512e-06
0.00049274571
1.8723712e-06
0.0004909285
1.8172161e-06
0.00048916531
1.7631865e-06
0.00048744759
1.7177236e-06
0.00048576716
1.6804321e-06
0.00048411506
1.6520936e-06
0.00048248439
1.6306712e-06
0.00048087019
1.6142038e-06
0.00047926827
1.6019152e-06
0.00047767607
1.592202e-06
0.00047609254
1.5835265e-06
0.00047451662
1.5759256e-06
0.00047294678
1.569842e-06
0.00047138155
1.5652251e-06
0.00046981946
1.5620964e-06
0.00046825914
1.5603155e-06
0.00046669955
1.5595895e-06
0.00046513949
1.5600631e-06
0.00046357783
1.5616544e-06
0.00046201359
1.5642447e-06
0.00046044556
1.5680299e-06
0.00045887274
1.5728195e-06
0.00045729425
1.5784846e-06
0.00045570896
1.5852918e-06
0.00045411661
1.5923566e-06
0.00045251751
1.5990924e-06
0.00045091617
1.6013467e-06
0.00044937092
1.5452428e-06
0.00044844279
9.2813189e-07
0.00045247545
-4.0326581e-06
0.00045898108
-6.5056296e-06
0.00046251374
-3.532663e-06
0.00046434398
-1.8302378e-06
0.00046491799
-5.7402062e-07
0.00046482475
9.3243518e-08
0.00046435897
4.6578126e-07
0.00046367757
6.8139699e-07
0.00046286341
8.1415987e-07
0.0004619634
9.0000726e-07
0.00046100706
9.5633962e-07
0.0004599991
1.007963e-06
0.00045892878
1.0703152e-06
0.00045782692
1.101864e-06
1.3410345e-06
0.00082497983
6.7727913e-06
-0.00082459871
0.00082537714
9.2546862e-06
0.00082558717
1.0623209e-05
0.00082568094
1.1218264e-05
0.00082565258
1.1811624e-05
0.00082549839
1.2359181e-05
0.00082521191
1.2874143e-05
0.00082477112
1.3363674e-05
0.00082412056
1.3836325e-05
0.00082316525
1.4280134e-05
0.00082178075
1.4658274e-05
0.0008197981
1.4942774e-05
0.00081701665
1.5092561e-05
0.0008132399
1.5083995e-05
0.00080834619
1.4927607e-05
0.00080233548
1.4657876e-05
0.00079531981
1.4318455e-05
0.00078749278
1.4034205e-05
0.00077903523
1.3687029e-05
0.0007701895
1.3349598e-05
0.00076120136
1.2977201e-05
0.00075230566
1.2464511e-05
0.00074369981
1.1922553e-05
0.00073551287
1.1357837e-05
0.0007278128
1.076262e-05
0.00072063088
1.0156817e-05
0.0007139695
9.5576979e-06
0.00070779918
8.984591e-06
0.00070206281
8.4655477e-06
0.00069669236
8.0088563e-06
0.00069162144
7.6199162e-06
0.00068678806
7.3045004e-06
0.00068215408
7.058328e-06
0.00067770824
6.864885e-06
0.00067344117
6.7016371e-06
0.00066934052
6.5452974e-06
0.00066538957
6.3839047e-06
0.0006615688
6.2133491e-06
0.00065786199
6.0335822e-06
0.00065425907
5.8490929e-06
0.00065075522
5.6651345e-06
0.00064734881
5.4847238e-06
0.00064403807
5.3127902e-06
0.00064082096
5.1518453e-06
0.00063770006
5.0121751e-06
0.00063468766
4.9111465e-06
0.00063181133
4.8674656e-06
0.00062912665
4.9068475e-06
0.00062670068
5.0417269e-06
0.00062449598
5.2101431e-06
0.0006223324
5.2881584e-06
0.00062005433
5.2185395e-06
0.00061763136
5.0453097e-06
0.00061511379
4.8359224e-06
0.00061256937
4.6408832e-06
0.00061004117
4.4811539e-06
0.00060754618
4.3673622e-06
0.00060508985
4.2735416e-06
0.00060267648
4.1765572e-06
0.00060030874
4.0854598e-06
0.00059798637
4.002803e-06
0.00059570727
3.931194e-06
0.00059346926
3.8686836e-06
0.00059127014
3.813328e-06
0.00058910733
3.7647167e-06
0.0005869791
3.7204332e-06
0.00058488456
3.6780744e-06
0.00058282263
3.6378533e-06
0.00058079201
3.600455e-06
0.00057879151
3.5657301e-06
0.00057681989
3.533721e-06
0.00057487598
3.504219e-06
0.00057295886
3.4767165e-06
0.0005710675
3.4514134e-06
0.00056920102
3.4281421e-06
0.00056735859
3.4066692e-06
0.00056553932
3.3873007e-06
0.00056374242
3.3697164e-06
0.00056196717
3.3537398e-06
0.00056021259
3.3398695e-06
0.00055847823
3.3267157e-06
0.00055676355
3.3137804e-06
0.00055506646
3.298431e-06
0.00055337943
3.2322717e-06
0.00055163571
2.6718505e-06
0.00054885999
-1.2569397e-06
0.00054619984
-3.8454739e-06
0.00054485488
-2.1877098e-06
0.00054372895
-7.0430875e-07
0.00054259822
5.5671349e-07
0.00054136834
1.3231244e-06
0.00054005697
1.7771487e-06
0.00053869644
2.0419259e-06
0.00053731074
2.1998578e-06
0.00053591047
2.3002851e-06
0.00053450869
2.3581131e-06
0.00053307877
2.4378844e-06
0.00053166183
2.4872567e-06
0.00053001264
2.7510561e-06
2.7422871e-06
0.00085269516
6.4991981e-06
-0.00085242156
0.00085309938
8.8504669e-06
0.00085347222
1.0250361e-05
0.00085376218
1.0928307e-05
0.00085402541
1.1548398e-05
0.00085425012
1.2134473e-05
0.00085444803
1.2676225e-05
0.00085463001
1.3181701e-05
0.00085480236
1.3663969e-05
0.00085496367
1.411883e-05
0.00085511389
1.4508053e-05
0.00085524125
1.4815415e-05
0.0008553298
1.5004003e-05
0.00085535379
1.5060005e-05
0.00085528052
1.5000876e-05
0.00085506905
1.4869349e-05
0.00085466332
1.4724184e-05
0.00085402123
1.4676297e-05
0.00085305247
1.4655794e-05
0.00085166124
1.4740825e-05
0.00084971668
1.4921759e-05
0.00084708612
1.5095076e-05
0.000843708
1.5300665e-05
0.00083955724
1.55086e-05
0.00083464572
1.5674136e-05
0.00082901847
1.5784073e-05
0.00082279231
1.5783859e-05
0.0008161429
1.5633996e-05
0.0008092432
1.5365255e-05
0.00080226014
1.4991914e-05
0.00079534232
1.453773e-05
0.00078860683
1.4039995e-05
0.00078213401
1.3531142e-05
0.00077596153
1.3037365e-05
0.00077008715
1.2576026e-05
0.00076448438
1.214806e-05
0.00075911539
1.1752894e-05
0.00075394228
1.1386468e-05
0.00074893678
1.1039073e-05
0.00074408092
1.0704953e-05
0.00073936418
1.0381873e-05
0.0007347791
1.0069812e-05
0.00073031788
9.7740027e-06
0.00072597539
9.4943393e-06
0.00072175512
9.2324404e-06
0.00071766874
8.9975348e-06
0.00071373246
8.8037394e-06
0.00070997088
8.6684262e-06
0.00070641049
8.6021216e-06
0.0007030435
8.577131e-06
0.00069980943
8.5222323e-06
0.00069663513
8.3928307e-06
0.00069347429
8.2061559e-06
0.00069031298
7.9972255e-06
0.0006871612
7.7926703e-06
0.00068403558
7.606772e-06
0.0006809502
7.4527444e-06
0.00067791403
7.3097039e-06
0.00067493193
7.1586559e-06
0.00067200573
7.0116637e-06
0.00066913529
6.8732395e-06
0.00066632011
6.7463777e-06
0.00066355963
6.6291682e-06
0.00066085257
6.5203797e-06
0.00065819693
6.4203584e-06
0.00065559139
6.3259793e-06
0.00065303489
6.2345649e-06
0.00065052587
6.1468818e-06
0.0006480627
6.0636244e-06
0.00064564406
5.9843702e-06
0.00064326863
5.909143e-06
0.00064093514
5.8377103e-06
0.00063864246
5.7694043e-06
0.00063638941
5.7044639e-06
0.00063417491
5.6426363e-06
0.00063199801
5.5835708e-06
0.00062985766
5.5276533e-06
0.00062775292
5.4744511e-06
0.00062568291
5.4237491e-06
0.00062364654
5.3762469e-06
0.00062164308
5.3301695e-06
0.00061967162
5.2852407e-06
0.00061772862
5.2414334e-06
0.00061579509
5.1658039e-06
0.00061372933
4.7376058e-06
0.00061061509
1.8573051e-06
0.0006072324
-4.6279027e-07
0.00060479488
2.49812e-07
0.00060277783
1.3127434e-06
0.00060097267
2.361873e-06
0.00059922354
3.0722569e-06
0.00059748528
3.51541e-06
0.00059575073
3.776468e-06
0.00059402451
3.9260852e-06
0.00059230637
4.0184165e-06
0.00059060498
4.0595079e-06
0.00058888399
4.1588715e-06
0.00058720598
4.1652678e-06
0.00058520897
4.7480651e-06
4.2975441e-06
0.00088128053
6.2962701e-06
-0.0008810776
0.00088165816
8.4728327e-06
0.00088203221
9.8763163e-06
0.00088232617
1.063435e-05
0.0008825968
1.1277761e-05
0.00088283553
1.1895742e-05
0.00088304953
1.246223e-05
0.00088324941
1.2981819e-05
0.0008834432
1.3470181e-05
0.00088363184
1.3930189e-05
0.0008838182
1.4321691e-05
0.00088399693
1.4636686e-05
0.00088416225
1.4838686e-05
0.00088430444
1.4917809e-05
0.0008844168
1.488852e-05
0.0008844967
1.4789451e-05
0.00088454236
1.4678521e-05
0.00088457202
1.4646633e-05
0.00088457723
1.4650587e-05
0.00088456191
1.4756143e-05
0.00088452639
1.4957285e-05
0.00088444528
1.5176179e-05
0.00088429563
1.5450323e-05
0.000884041
1.5763225e-05
0.00088362462
1.6090515e-05
0.00088297892
1.6429773e-05
0.00088199181
1.6770976e-05
0.00088052355
1.7102247e-05
0.00087846477
1.7424041e-05
0.00087573168
1.7725006e-05
0.00087227811
1.7991291e-05
0.00086810261
1.8215502e-05
0.00086328034
1.8353405e-05
0.00085795037
1.8367339e-05
0.00085226412
1.8262275e-05
0.0008463739
1.8038277e-05
0.0008404157
1.77111e-05
0.00083449627
1.7305896e-05
0.0008286855
1.6849843e-05
0.00082301458
1.6375876e-05
0.000817486
1.5910449e-05
0.00081208886
1.5466952e-05
0.00080681154
1.5051327e-05
0.00080164808
1.4657795e-05
0.0007965992
1.4281318e-05
0.00079167219
1.3924554e-05
0.00078687819
1.3597734e-05
0.00078222964
1.3316974e-05
0.00077773642
1.3095342e-05
0.00077339807
1.2915479e-05
0.00076919763
1.2722676e-05
0.00076510969
1.2480765e-05
0.00076111154
1.2204315e-05
0.00075718586
1.1922903e-05
0.00075332395
1.1654579e-05
0.00074952504
1.1405677e-05
0.00074579274
1.1185045e-05
0.0007421292
1.0973244e-05
0.00073853446
1.0753392e-05
0.00073500877
1.0537356e-05
0.00073155219
1.0329826e-05
0.00072816421
1.013435e-05
0.0007248441
9.9492803e-06
0.00072159044
9.7740437e-06
0.00071840128
9.6095183e-06
0.00071527533
9.45193e-06
0.00071221104
9.2988534e-06
0.00070920624
9.1516764e-06
0.00070625909
9.0107763e-06
0.00070336806
8.8754048e-06
0.00070053161
8.745593e-06
0.0006977482
8.6211127e-06
0.00069501645
8.5011608e-06
0.0006923349
8.3860141e-06
0.0006897022
8.2753357e-06
0.00068711711
8.1686538e-06
0.00068457835
8.0664174e-06
0.00068208472
7.9680788e-06
0.0006796351
7.8733715e-06
0.00067722818
7.7831642e-06
0.00067486304
7.695308e-06
0.00067253858
7.609701e-06
0.00067025154
7.5284796e-06
0.00066798729
7.430052e-06
0.00066565895
7.0659489e-06
0.00066279335
4.7229026e-06
0.00065971125
2.6193064e-06
0.0006570576
2.9034615e-06
0.00065469898
3.6713642e-06
0.00065253669
4.5241722e-06
0.00065046103
5.1479153e-06
0.000648423
5.5534342e-06
0.00064640567
5.7937983e-06
0.0006444075
5.9242582e-06
0.00064242512
6.000796e-06
0.00064046676
6.0178664e-06
0.00063849173
6.1339091e-06
0.00063657927
6.077723e-06
0.00063427677
7.0505607e-06
6.0193897e-06
0.00091084152
6.1334642e-06
-0.00091067871
0.00091118262
8.1317329e-06
0.0009115323
9.5266363e-06
0.00091181586
1.0350791e-05
0.00091207473
1.101889e-05
0.00091231055
1.1659918e-05
0.00091252576
1.2247018e-05
0.00091272853
1.2779054e-05
0.00091292632
1.3272393e-05
0.00091311999
1.3736515e-05
0.00091331168
1.413e-05
0.00091349646
1.4451904e-05
0.00091366895
1.4666196e-05
0.00091382105
1.476571e-05
0.00091394601
1.476356e-05
0.0009140408
1.4694661e-05
0.00091410581
1.4613514e-05
0.00091415762
1.459482e-05
0.00091419352
1.4614692e-05
0.00091422262
1.4727038e-05
0.00091425452
1.492539e-05
0.00091428271
1.5147984e-05
0.00091431034
1.5422697e-05
0.00091433842
1.5735139e-05
0.00091436324
1.6065696e-05
0.00091438122
1.6411799e-05
0.00091438544
1.6766754e-05
0.00091436313
1.7124555e-05
0.0009142959
1.7491274e-05
0.00091415298
1.786792e-05
0.00091388738
1.8256891e-05
0.00091343775
1.8665136e-05
0.00091270135
1.9089806e-05
0.0009115466
1.9522085e-05
0.00090985839
1.9950492e-05
0.00090754582
2.0350848e-05
0.00090455584
2.0701079e-05
0.00090089145
2.0970279e-05
0.00089662868
2.1112618e-05
0.00089189244
2.1112119e-05
0.00088682071
2.0982176e-05
0.00088154683
2.0740831e-05
0.00087618324
2.0414921e-05
0.00087080814
2.0032889e-05
0.00086546289
1.9626565e-05
0.00086016592
1.9221528e-05
0.0008549286
1.8835057e-05
0.00084976472
1.8480849e-05
0.00084469071
1.816935e-05
0.00083971913
1.7887063e-05
0.00083485329
1.7588514e-05
0.00083008899
1.7245067e-05
0.00082541991
1.6873393e-05
0.00082083964
1.6503171e-05
0.00081634327
1.6150952e-05
0.0008119288
1.5820149e-05
0.00080759653
1.5517312e-05
0.00080334453
1.5225251e-05
0.00079916987
1.4928043e-05
0.00079507228
1.4634948e-05
0.00079105239
1.4349715e-05
0.00078711004
1.4076703e-05
0.00078324449
1.3814832e-05
0.00077945476
1.356377e-05
0.00077573948
1.3324806e-05
0.0007720969
1.3094507e-05
0.00076852524
1.2870517e-05
0.00076502269
1.2654219e-05
0.00076158753
1.2445939e-05
0.00075821817
1.2244761e-05
0.00075491301
1.2050755e-05
0.00075167042
1.1863708e-05
0.00074848888
1.1682699e-05
0.00074536683
1.1508061e-05
0.00074230278
1.133939e-05
0.00073929532
1.1176106e-05
0.00073634302
1.1018723e-05
0.00073344451
1.0866585e-05
0.00073059851
1.0719373e-05
0.00072780356
1.0578113e-05
0.00072505859
1.0440279e-05
0.0007223624
1.0305895e-05
0.00071971218
1.0178696e-05
0.0007170981
1.0044132e-05
0.00071447641
9.6876447e-06
0.00071161668
7.5826247e-06
0.00070863677
5.599224e-06
0.00070585364
5.6865909e-06
0.00070325901
6.2659908e-06
0.00070081602
6.9671653e-06
0.00069845881
7.5051253e-06
0.0006961476
7.864639e-06
0.00069386437
8.0770318e-06
0.00069160528
8.1833485e-06
0.00068936574
8.2403396e-06
0.0006871545
8.2291004e-06
0.00068492791
8.3605033e-06
0.00068278073
8.2249071e-06
0.00068017553
9.655758e-06
7.9194381e-06
0.00094139063
6.0020771e-06
-0.00094125925
0.00094169106
7.8313013e-06
0.00094201734
9.2003599e-06
0.00094229577
1.007236e-05
0.00094255
1.0764656e-05
0.00094278753
1.1422393e-05
0.00094300726
1.202729e-05
0.00094321424
1.2572071e-05
0.00094341465
1.3071982e-05
0.00094361153
1.3539639e-05
0.00094380368
1.3937849e-05
0.00094398911
1.4266475e-05
0.00094416173
1.4493576e-05
0.0009443142
1.4613239e-05
0.00094444046
1.4637297e-05
0.00094453787
1.4597257e-05
0.00094460738
1.4544002e-05
0.00094466229
1.4539911e-05
0.00094470206
1.4574924e-05
0.0009447355
1.4693591e-05
0.00094477132
1.4889577e-05
0.00094480508
1.5114222e-05
0.00094483987
1.5387904e-05
0.00094487721
1.5697801e-05
0.0009449156
1.602731e-05
0.00094495477
1.6372623e-05
0.00094499394
1.6727586e-05
0.00094503144
1.7087051e-05
0.00094506713
1.7455586e-05
0.00094509989
1.7835161e-05
0.00094512813
1.8228648e-05
0.00094514991
1.8643356e-05
0.00094515978
1.9079939e-05
0.00094514685
1.9535017e-05
0.00094509161
2.0005728e-05
0.00094495953
2.0482931e-05
0.00094469902
2.096159e-05
0.00094422988
2.1439415e-05
0.00094343279
2.1909704e-05
0.00094217711
2.2367805e-05
0.00094035372
2.2805563e-05
0.00093788738
2.3207173e-05
0.00093476051
2.3541787e-05
0.00093103093
2.3762476e-05
0.00092680792
2.3849572e-05
0.00092221858
2.3810871e-05
0.00091738723
2.3666409e-05
0.00091241859
2.3449489e-05
0.00090738733
2.3200606e-05
0.00090233708
2.2937313e-05
0.00089728988
2.2635711e-05
0.00089225924
2.2275707e-05
0.00088725848
2.1874153e-05
0.00088230058
2.1461073e-05
0.00087739542
2.1056118e-05
0.00087254969
2.0665874e-05
0.00086776889
2.0298108e-05
0.0008630558
1.9938343e-05
0.00085841138
1.9572466e-05
0.00085383727
1.9209052e-05
0.00084933545
1.8851541e-05
0.00084490755
1.8504605e-05
0.00084055475
1.8167631e-05
0.00083627802
1.7840501e-05
0.00083207767
1.7525152e-05
0.00082795269
1.7219489e-05
0.00082390199
1.6921215e-05
0.00081992489
1.6631322e-05
0.00081602041
1.6350415e-05
0.00081218753
1.6077637e-05
0.00080842506
1.5813225e-05
0.00080473172
1.5557054e-05
0.00080110627
1.5308151e-05
0.00079754736
1.5066973e-05
0.00079405364
1.4833104e-05
0.00079062385
1.46059e-05
0.00078725658
1.4385987e-05
0.00078395054
1.4172626e-05
0.00078070444
1.3965472e-05
0.00077751683
1.3765729e-05
0.00077438661
1.3570498e-05
0.00077131259
1.3379911e-05
0.0007682924
1.3198883e-05
0.00076531949
1.3017047e-05
0.00076237447
1.2632667e-05
0.00075934097
1.0616125e-05
0.00075625772
8.6824761e-06
0.00075328186
8.662445e-06
0.00075043282
9.1150296e-06
0.00074770246
9.6975341e-06
0.00074505397
1.0153609e-05
0.00074245773
1.0460885e-05
0.0007398967
1.0638057e-05
0.00073736551
1.0714543e-05
0.00073485823
1.0747616e-05
0.00073238382
1.070351e-05
0.00072989564
1.0848683e-05
0.0007275033
1.0617245e-05
0.00072458637
1.2572691e-05
1.001129e-05
0.00097295812
5.8947483e-06
-0.00097285079
0.00097322216
7.56726e-06
0.00097352718
8.8953406e-06
0.00097379985
9.799687e-06
0.00097404925
1.0515255e-05
0.00097428559
1.1186051e-05
0.00097450709
1.180579e-05
0.00097471641
1.2362752e-05
0.00097491814
1.2870251e-05
0.00097511803
1.3339751e-05
0.00097531098
1.3744899e-05
0.00097549793
1.4079526e-05
0.00097567188
1.4319619e-05
0.00097582623
1.4458892e-05
0.00097595528
1.4508244e-05
0.00097605635
1.4496194e-05
0.00097613079
1.4469558e-05
0.00097618955
1.4481155e-05
0.0009762336
1.4530877e-05
0.00097627112
1.4656071e-05
0.0009763096
1.4851094e-05
0.000976346
1.5077825e-05
0.0009763831
1.5350801e-05
0.00097642233
1.5658565e-05
0.00097646275
1.5986893e-05
0.00097650413
1.6331247e-05
0.0009765459
1.6685808e-05
0.00097658696
1.7045995e-05
0.00097662722
1.7415323e-05
0.00097666621
1.7796171e-05
0.00097670373
1.8191131e-05
0.00097674065
1.8606437e-05
0.00097677746
1.9043131e-05
0.00097681408
1.9498394e-05
0.00097685049
1.9969315e-05
0.00097688532
2.0448105e-05
0.00097691625
2.0930662e-05
0.00097693883
2.141683e-05
0.0009769436
2.1904939e-05
0.00097691338
2.2398025e-05
0.0009768174
2.2901538e-05
0.00097660634
2.3418237e-05
0.00097619901
2.3949109e-05
0.00097547346
2.4488031e-05
0.00097429523
2.5027797e-05
0.0009725514
2.555471e-05
0.0009701661
2.6051702e-05
0.00096713987
2.6475727e-05
0.00096355125
2.6789226e-05
0.00095951282
2.6975734e-05
0.0009551464
2.7002137e-05
0.00095055981
2.6862298e-05
0.00094583324
2.6600724e-05
0.00094101718
2.6277134e-05
0.00093614237
2.5930924e-05
0.00093123245
2.5575791e-05
0.00092631042
2.5220142e-05
0.00092139574
2.4853026e-05
0.00091650242
2.4465778e-05
0.00091164083
2.4070645e-05
0.00090681922
2.3673149e-05
0.00090204492
2.3278909e-05
0.00089732429
2.2888256e-05
0.0008926626
2.2502198e-05
0.00088806387
2.2123884e-05
0.00088353059
2.1752765e-05
0.00087906441
2.1387395e-05
0.00087466669
2.1029039e-05
0.0008703384
2.0678704e-05
0.00086608021
2.0335827e-05
0.00086189234
2.0001101e-05
0.00085777466
1.9674729e-05
0.00085372695
1.9355864e-05
0.00084974867
1.9045251e-05
0.00084583918
1.8742593e-05
0.00084199778
1.84473e-05
0.00083822356
1.8160206e-05
0.00083451562
1.7880573e-05
0.00083087299
1.7608099e-05
0.00082729449
1.734423e-05
0.00082377925
1.7085731e-05
0.0008203263
1.6832868e-05
0.00081693369
1.6591486e-05
0.00081359702
1.6353725e-05
0.00081030922
1.5920463e-05
0.00080700594
1.3919403e-05
0.00080369773
1.1990685e-05
0.00080046708
1.1893095e-05
0.00079733167
1.2250441e-05
0.00079429471
1.2734497e-05
0.00079133717
1.3111148e-05
0.00078843822
1.3359835e-05
0.00078558274
1.3493534e-05
0.00078276425
1.3533041e-05
0.00077997532
1.3536542e-05
0.00077722466
1.3454174e-05
0.00077446237
1.361097e-05
0.00077181247
1.3267141e-05
0.00076857183
1.5813334e-05
1.2308085e-05
0.001005578
5.8048455e-06
-0.0010054881
0.0010058105
7.3347488e-06
0.0010060941
8.611709e-06
0.0010063588
9.5350465e-06
0.0010066029
1.0271117e-05
0.001006837
1.0951961e-05
0.0010070597
1.1583054e-05
0.0010072715
1.2150967e-05
0.0010074761
1.2665656e-05
0.001007678
1.3137891e-05
0.0010078732
1.3549705e-05
0.0010080617
1.3890996e-05
0.0010082373
1.414399e-05
0.0010083938
1.4302412e-05
0.0010085258
1.4376209e-05
0.0010086308
1.4391275e-05
0.0010087101
1.4390214e-05
0.0010087729
1.4418388e-05
0.0010088211
1.4482682e-05
0.0010088623
1.4614846e-05
0.0010089031
1.4810262e-05
0.0010089417
1.5039236e-05
0.0010089807
1.5311834e-05
0.0010090214
1.5617877e-05
0.0010090631
1.5945109e-05
0.0010091058
1.6288611e-05
0.0010091487
1.6642875e-05
0.0010091909
1.7003806e-05
0.0010092323
1.7373956e-05
0.0010092726
1.7755828e-05
0.0010093119
1.8151848e-05
0.0010093509
1.8567395e-05
0.0010093903
1.9003757e-05
0.0010094304
1.9458282e-05
0.0010094716
1.9928167e-05
0.001009513
2.0406683e-05
0.001009554
2.0889667e-05
0.0010095942
2.1376638e-05
0.0010096328
2.1866322e-05
0.0010096692
2.2361657e-05
0.0010097027
2.2868051e-05
0.0010097318
2.3389132e-05
0.0010097525
2.392832e-05
0.0010097553
2.4485313e-05
0.0010097206
2.5062489e-05
0.0010096116
2.5663656e-05
0.0010093701
2.6293268e-05
0.0010088917
2.6954133e-05
0.0010080363
2.7644608e-05
0.0010066738
2.8338254e-05
0.0010047017
2.8974176e-05
0.0010020867
2.9477297e-05
0.00099888038
2.9807061e-05
0.00099518447
2.9973045e-05
0.00099111757
2.999782e-05
0.00098678771
2.9905654e-05
0.00098227553
2.9732319e-05
0.00097763219
2.9496369e-05
0.00097289138
2.9206584e-05
0.00096808172
2.8880301e-05
0.00096322954
2.852533e-05
0.00095835715
2.8151305e-05
0.00095348214
2.7763261e-05
0.00094861859
2.7365748e-05
0.00094377837
2.6964106e-05
0.00093897131
2.6559824e-05
0.00093420511
2.6153592e-05
0.00092948586
2.5748287e-05
0.00092481861
2.5345962e-05
0.00092020757
2.494686e-05
0.000915656
2.455267e-05
0.00091116637
2.4164363e-05
0.00090674064
2.3781591e-05
0.00090238017
2.3405723e-05
0.00089808591
2.3036854e-05
0.00089385853
2.2674678e-05
0.00088969829
2.2320449e-05
0.00088560527
2.1973592e-05
0.00088157937
2.1633995e-05
0.00087762013
2.130348e-05
0.00087372729
2.0978566e-05
0.00086990041
2.0659748e-05
0.0008661382
2.0353693e-05
0.0008624378
2.0054129e-05
0.00085879815
1.9560113e-05
0.00085517876
1.7538789e-05
0.00085158184
1.5587613e-05
0.00084805583
1.5419098e-05
0.00084461042
1.5695857e-05
0.00084125167
1.6093247e-05
0.00083797086
1.6391952e-05
0.00083475438
1.6576316e-05
0.00083158964
1.6658277e-05
0.00082846973
1.6652956e-05
0.00082538589
1.6620375e-05
0.00082234636
1.6493708e-05
0.00081929776
1.6659571e-05
0.00081637825
1.618665e-05
0.0008128015
1.9390087e-05
1.4821891e-05
0.0010392849
5.7274264e-06
-0.0010392075
0.0010394902
7.1294425e-06
0.0010397526
8.3493077e-06
0.001040008
9.2796869e-06
0.0010402471
1.0031991e-05
0.0010404786
1.0720419e-05
0.0010407019
1.1359763e-05
0.0010409157
1.1937153e-05
0.0010411226
1.2458834e-05
0.0010413258
1.293467e-05
0.0010415228
1.3352652e-05
0.0010417125
1.3701337e-05
0.0010418895
1.3967003e-05
0.0010420479
1.4144021e-05
0.0010421827
1.4241379e-05
0.0010422914
1.4282598e-05
0.0010423755
1.4306138e-05
0.0010424424
1.4351466e-05
0.0010424949
1.4430195e-05
0.00104254
1.4569686e-05
0.0010425837
1.4766558e-05
0.0010426251
1.4997876e-05
0.0010426666
1.5270378e-05
0.0010427093
1.5575087e-05
0.0010427531
1.5901389e-05
0.0010427975
1.6244205e-05
0.001042842
1.6598304e-05
0.0010428858
1.6959998e-05
0.0010429287
1.7331073e-05
0.0010429706
1.7714006e-05
0.0010430113
1.8111103e-05
0.0010430517
1.8527e-05
0.0010430923
1.8963133e-05
0.0010431335
1.9417129e-05
0.0010431755
1.9886158e-05
0.0010432179
2.0364224e-05
0.0010432604
2.084722e-05
0.0010433025
2.133449e-05
0.0010433438
2.1825021e-05
0.0010433841
2.2321399e-05
0.0010434233
2.2828882e-05
0.0010434611
2.3351271e-05
0.0010434978
2.3891599e-05
0.0010435332
2.4449921e-05
0.0010435669
2.5028862e-05
0.0010435979
2.56326e-05
0.0010436244
2.626675e-05
0.0010436406
2.6937959e-05
0.001043633
2.7652178e-05
0.0010435721
2.8399152e-05
0.0010434029
2.9143465e-05
0.001043024
2.985617e-05
0.0010422925
3.0538531e-05
0.0010410665
3.1199058e-05
0.0010392352
3.1829124e-05
0.0010367647
3.2376125e-05
0.0010337087
3.2788374e-05
0.0010301663
3.303869e-05
0.0010262514
3.312153e-05
0.0010220632
3.3068489e-05
0.0010176721
3.2916418e-05
0.0010131243
3.2699159e-05
0.0010084552
3.243231e-05
0.0010036974
3.2123522e-05
0.00099887985
3.1781705e-05
0.00099402602
3.1413651e-05
0.0009891547
3.1024911e-05
0.00098428138
3.062161e-05
0.00097941919
3.0208148e-05
0.00097457915
2.9786907e-05
0.00096977018
2.9361638e-05
0.00096499969
2.8934854e-05
0.00096027389
2.8507393e-05
0.00095559772
2.8081892e-05
0.00095097522
2.7659347e-05
0.00094640974
2.7240166e-05
0.00094190378
2.6826409e-05
0.00093745939
2.6417977e-05
0.00093307817
2.601522e-05
0.00092876106
2.5620584e-05
0.0009245091
2.5230523e-05
0.00092032291
2.4845937e-05
0.00091620224
2.4474366e-05
0.00091214573
2.4110635e-05
0.00090815542
2.3550428e-05
0.00090420215
2.1492063e-05
0.00090028711
1.9502651e-05
0.00089644407
1.9262135e-05
0.00089267552
1.9464403e-05
0.00088898665
1.9782116e-05
0.00088537428
2.0004331e-05
0.00088183039
2.0120202e-05
0.00087834535
2.0143319e-05
0.00087491264
2.0085664e-05
0.00087152264
2.0010373e-05
0.00086818317
1.9833184e-05
0.00086483728
2.0005461e-05
0.00086163718
1.9386743e-05
0.00085771249
2.3314776e-05
1.7563701e-05
0.0010741149
5.659054e-06
-0.0010740465
0.001074297
6.9473267e-06
0.0010745391
8.107269e-06
0.0010747843
9.0344196e-06
0.0010750183
9.798016e-06
0.0010752468
1.049193e-05
0.0010754697
1.1136873e-05
0.0010756848
1.1722052e-05
0.0010758933
1.2250328e-05
0.0010760978
1.2730205e-05
0.0010762964
1.3153979e-05
0.0010764873
1.3510485e-05
0.0010766657
1.3788581e-05
0.0010768261
1.398361e-05
0.0010769638
1.4103666e-05
0.0010770764
1.4170074e-05
0.0010771652
1.4217348e-05
0.0010772364
1.4280209e-05
0.0010772933
1.4373293e-05
0.0010773425
1.4520504e-05
0.0010773893
1.4719801e-05
0.0010774334
1.4953679e-05
0.0010774774
1.5226445e-05
0.0010775222
1.5530237e-05
0.0010775678
1.5855816e-05
0.0010776139
1.6198104e-05
0.0010776601
1.655214e-05
0.0010777055
1.6914579e-05
0.00107775
1.7286609e-05
0.0010777934
1.7670591e-05
0.0010778357
1.8068733e-05
0.0010778777
1.848503e-05
0.0010779199
1.8920982e-05
0.0010779625
1.9374503e-05
0.0010780059
1.984278e-05
0.0010780496
2.0320444e-05
0.0010780934
2.0803499e-05
0.0010781367
2.1291132e-05
0.0010781792
2.1782586e-05
0.0010782204
2.2280144e-05
0.0010782606
2.2788695e-05
0.0010782999
2.3311993e-05
0.0010783385
2.3852948e-05
0.0010783766
2.441188e-05
0.0010784142
2.4991248e-05
0.0010784514
2.5595402e-05
0.0010784881
2.6230048e-05
0.0010785247
2.6901306e-05
0.0010785626
2.761435e-05
0.001078602
2.8359668e-05
0.0010786401
2.9105375e-05
0.0010786686
2.9827712e-05
0.001078672
3.0535168e-05
0.0010786191
3.1251929e-05
0.0010784542
3.199397e-05
0.00107807
3.276032e-05
0.0010773154
3.3543001e-05
0.001076044
3.4310091e-05
0.0010741533
3.5012213e-05
0.0010716308
3.5591057e-05
0.0010685459
3.6001264e-05
0.001065004
3.6241039e-05
0.0010611123
3.6324039e-05
0.0010569546
3.6281191e-05
0.0010525881
3.6148263e-05
0.001048055
3.5946707e-05
0.0010433931
3.5686864e-05
0.0010386359
3.5378736e-05
0.0010338116
3.5032463e-05
0.0010289429
3.4655623e-05
0.0010240489
3.4255642e-05
0.0010191459
3.383785e-05
0.0010142477
3.3405658e-05
0.0010093654
3.2964129e-05
0.0010045087
3.2516019e-05
0.00099968568
3.206323e-05
0.00099490277
3.1609319e-05
0.00099016554
3.1155204e-05
0.00098547858
3.070218e-05
0.00098084542
3.0253752e-05
0.00097626931
2.9806633e-05
0.0009717528
2.9362444e-05
0.00096729737
2.8929794e-05
0.00096290358
2.8504421e-05
0.00095857556
2.7878451e-05
0.00095429005
2.5777578e-05
0.00095004986
2.3742837e-05
0.00094588345
2.3428552e-05
0.00094178871
2.3559134e-05
0.00093776878
2.380205e-05
0.00093382306
2.3950051e-05
0.00092994772
2.3995541e-05
0.00092613619
2.3954848e-05
0.00092238313
2.3838725e-05
0.00091867869
2.3714816e-05
0.00091503058
2.3481293e-05
0.00091137838
2.365766e-05
0.0009078884
2.2876726e-05
0.00090360534
2.7597833e-05
2.0543332e-05
0.0011101054
5.5973339e-06
-0.0011100437
0.001110268
6.7847751e-06
0.0011104909
7.8843259e-06
0.0011107255
8.7998683e-06
0.0011109539
9.5695781e-06
0.0011111789
1.0266915e-05
0.0011114007
1.0915133e-05
0.0011116165
1.150627e-05
0.0011118263
1.2040498e-05
0.0011120319
1.2524621e-05
0.0011122319
1.2953972e-05
0.0011124239
1.3318493e-05
0.0011126036
1.3608811e-05
0.001112766
1.3821264e-05
0.0011129065
1.3963168e-05
0.0011130228
1.4053799e-05
0.0011131161
1.4123997e-05
0.0011131917
1.4204584e-05
0.0011132531
1.4311964e-05
0.0011133063
1.4467288e-05
0.0011133562
1.4669866e-05
0.0011134033
1.4906558e-05
0.0011134498
1.5179945e-05
0.0011134969
1.5483197e-05
0.0011135444
1.5808254e-05
0.0011135924
1.6150159e-05
0.0011136403
1.6504229e-05
0.0011136875
1.6867408e-05
0.0011137336
1.7240423e-05
0.0011137788
1.762546e-05
0.0011138229
1.8024628e-05
0.0011138665
1.8441377e-05
0.0011139103
1.8877203e-05
0.0011139545
1.9330297e-05
0.0011139994
1.9797902e-05
0.0011140446
2.0275191e-05
0.0011140898
2.0758324e-05
0.0011141346
2.1246358e-05
0.0011141784
2.1738736e-05
0.0011142211
2.2237496e-05
0.0011142626
2.2747164e-05
0.0011143032
2.3271421e-05
0.0011143431
2.3813073e-05
0.0011143822
2.4372719e-05
0.0011144208
2.4952691e-05
0.001114459
2.5557216e-05
0.0011144972
2.619186e-05
0.001114536
2.6862476e-05
0.001114577
2.7573302e-05
0.0011146215
2.8315167e-05
0.0011146679
2.9059048e-05
0.0011147131
2.9782454e-05
0.0011147557
3.0492554e-05
0.0011147951
3.1212572e-05
0.0011148301
3.1958991e-05
0.0011148549
3.2735535e-05
0.0011148529
3.3544921e-05
0.0011147863
3.437669e-05
0.00111458
3.5218561e-05
0.0011141025
3.6068547e-05
0.001113191
3.6912729e-05
0.0011117046
3.772752e-05
0.0011095794
3.8449201e-05
0.0011068493
3.9011336e-05
0.0011036048