/*--------------------------------*- C++ -*----------------------------------*\
  =========                 |
  \\      /  F ield         | OpenFOAM: The Open Source CFD Toolbox
   \\    /   O peration     | Website:  https://openfoam.org
    \\  /    A nd           | Version:  12
     \\/     M anipulation  |
\*---------------------------------------------------------------------------*/
FoamFile
{
    format      ascii;
    class       volVectorField;
    location    "500";
    object      wallShearStress;
}
// * * * * * * * * * * * * * * * * * * * * * * * * * * * * * * * * * * * * * //

dimensions      [0 2 -2 0 0 0 0];

internalField   uniform (0 0 0);

boundaryField
{
    bottom
    {
        type            calculated;
        value           nonuniform List<vector> 
112
(
(-0.0057187887 -3.5215383e-05 0)
(-0.0028851298 -3.8519814e-07 -1.862602e-17)
(-0.0025801967 -8.4083924e-08 -5.1820212e-19)
(-0.0024801263 -1.8645273e-08 -9.9605873e-19)
(-0.0024166429 -1.3183921e-08 0)
(-0.0023635365 -1.119504e-08 0)
(-0.0023167833 -9.8183103e-09 0)
(-0.0022751554 -8.692949e-09 0)
(-0.0022377738 -7.7703523e-09 0)
(-0.0022038324 -7.0165858e-09 -7.4801238e-19)
(-0.0021727179 -6.3876973e-09 0)
(-0.0021439915 -5.8502591e-09 -6.236242e-19)
(-0.0021173258 -5.383416e-09 5.7386014e-19)
(-0.00209246 -4.9739186e-09 -5.3020713e-19)
(-0.0020691783 -4.6119201e-09 0)
(-0.0020473017 -4.2897484e-09 4.5727201e-19)
(-0.0020266782 -4.0014267e-09 0)
(-0.0020071781 -3.7422393e-09 -1.9945234e-19)
(-0.0019886881 -3.508397e-09 0)
(-0.0019711098 -3.2964488e-09 -3.5138436e-19)
(-0.0019543581 -3.1037402e-09 3.3084084e-19)
(-0.0019383569 -2.9277195e-09 0)
(-0.0019230421 -2.7662858e-09 0)
(-0.0019083554 -2.6181407e-09 0)
(-0.0018942432 -2.4815488e-09 -2.6451776e-19)
(-0.0018806615 -2.3551239e-09 0)
(-0.0018675687 -2.2381814e-09 0)
(-0.0018549257 -2.1296654e-09 0)
(-0.0018426997 -2.0284929e-09 0)
(-0.0018308615 -1.9341463e-09 -2.0616877e-19)
(-0.0018193819 -1.8461845e-09 1.9679091e-19)
(-0.0018082348 -1.7637552e-09 0)
(-0.0017973988 -1.6862582e-09 0)
(-0.0017868534 -1.6135525e-09 0)
(-0.0017765773 -1.5452881e-09 1.6471714e-19)
(-0.0017665524 -1.4808428e-09 0)
(-0.0017567637 -1.4198519e-09 0)
(-0.0017471966 -1.3622848e-09 -1.4521107e-19)
(-0.0017378352 -1.3079503e-09 0)
(-0.0017286657 -1.2563689e-09 0)
(-0.0017196777 -1.2072658e-09 0)
(-0.00171086 -1.160659e-09 1.2371876e-19)
(-0.0017022009 -1.1164356e-09 -5.9502103e-20)
(-0.0016936897 -1.0743156e-09 1.1451438e-19)
(-0.0016853176 -1.0340565e-09 0)
(-0.0016770767 -9.955861e-10 0)
(-0.0016689584 -9.5889833e-10 -1.533181e-19)
(-0.0016609539 -9.2389556e-10 0)
(-0.0016530552 -8.90328e-10 9.4902584e-20)
(-0.0016452566 -8.58067e-10 0)
(-0.0016375517 -8.2715325e-10 0)
(-0.0016299333 -7.9754938e-10 -4.2506461e-20)
(-0.0016223947 -7.6913083e-10 -4.0991745e-20)
(-0.0016149301 -7.4174746e-10 0)
(-0.0016075349 -7.153477e-10 -7.6250935e-20)
(-0.0016002037 -6.8995861e-10 0)
(-0.0015929304 -6.6555838e-10 0)
(-0.0015857095 -6.4202471e-10 0)
(-0.0015785365 -6.1925513e-10 0)
(-0.0015714074 -5.9725563e-10 0)
(-0.0015643172 -5.7603935e-10 0)
(-0.0015572606 -5.5558226e-10 0)
(-0.0015502325 -5.357747e-10 0)
(-0.0015432294 -5.1655071e-10 0)
(-0.0015362473 -4.9794644e-10 -5.3075765e-20)
(-0.0015292813 -4.7996562e-10 0)
(-0.0015223262 -4.6256338e-10 -2.4651762e-20)
(-0.0015153776 -4.4566432e-10 0)
(-0.0015084319 -4.2923697e-10 -2.2875383e-20)
(-0.0015014849 -4.1331387e-10 4.4053136e-20)
(-0.0014945312 -3.9790371e-10 4.2410022e-20)
(-0.0014875654 -3.829327e-10 -2.0406948e-20)
(-0.0014805838 -3.6834845e-10 0)
(-0.0014735821 -3.5417997e-10 0)
(-0.0014665546 -3.4044257e-10 3.6283629e-20)
(-0.0014594954 -3.2709985e-10 -3.4860953e-20)
(-0.0014523994 -3.141003e-10 0)
(-0.0014452617 -3.0143775e-10 0)
(-0.0014380764 -2.8913652e-10 -3.0813078e-20)
(-0.0014308366 -2.7717964e-10 0)
(-0.001423536 -2.6551872e-10 0)
(-0.0014161686 -2.5414741e-10 0)
(-0.0014087273 -2.4309092e-10 0)
(-0.0014012034 -2.3232901e-10 0)
(-0.0013935891 -2.2182239e-10 0)
(-0.0013858766 -2.1157677e-10 0)
(-0.0013780562 -2.0161314e-10 0)
(-0.0013701163 -1.9187639e-10 2.0441444e-20)
(-0.0013620494 -1.8242749e-10 -1.9433839e-20)
(-0.00135402 -1.7349615e-10 0)
(-0.0013462823 -1.6519774e-10 0)
(-0.0013389097 -1.5752398e-10 0)
(-0.0013318743 -1.5044586e-10 0)
(-0.0013251496 -1.4392313e-10 0)
(-0.0013187113 -1.378887e-10 0)
(-0.001312539 -1.3228222e-10 0)
(-0.0013066139 -1.2707706e-10 0)
(-0.0013009179 -1.2225e-10 -1.3015963e-20)
(-0.0012954347 -1.1775224e-10 0)
(-0.0012901505 -1.1354143e-10 0)
(-0.0012850526 -1.0960334e-10 0)
(-0.0012801288 -1.059283e-10 0)
(-0.0012753674 -1.0250934e-10 0)
(-0.0012707566 -9.9314821e-11 0)
(-0.0012662875 -9.6370467e-11 0)
(-0.0012619461 -9.3597046e-11 0)
(-0.001257731 -9.1381445e-11 0)
(-0.0012535924 -8.894699e-11 0)
(-0.001249601 -8.9128925e-11 0)
(-0.0012454436 -1.52823e-10 0)
(-0.0012418416 -1.0451201e-10 -1.1203631e-20)
(-0.0012358389 -1.1918489e-10 0)
)
;
    }
    back
    {
        type            empty;
    }
    front
    {
        type            empty;
    }
    inlet
    {
        type            calculated;
        value           uniform (0 0 0);
    }
    outlet
    {
        type            calculated;
        value           uniform (0 0 0);
    }
    top
    {
        type            calculated;
        value           uniform (0 0 0);
    }
    slipsurface
    {
        type            calculated;
        value           uniform (0 0 0);
    }
}


// ************************************************************************* //
