#      distance           pMean         UMean_x         UMean_y         UMean_z         nutMean wallShearStr... wallShearStr... wallShearStr...
  3.0219182e-06   7.4739528e-05     0.028358679   1.6172361e-12   1.2880712e-38   7.0583837e-13               0               0               0
  5.0865428e-06   7.4739529e-05     0.047624499   4.1874387e-12  -4.4882725e-39   6.3546672e-12               0               0               0
  7.2269684e-06   7.4739529e-05     0.067466419   8.2957416e-12  -1.4066466e-38   3.5285242e-11               0               0               0
  9.4750924e-06   7.4739529e-05     0.088126969   1.4216048e-11  -9.9657374e-39    1.431458e-10               0               0               0
  1.1864417e-05   7.4739529e-05      0.10984739   2.2313524e-11               0   4.6819624e-10               0               0               0
  1.4430548e-05   7.4739529e-05      0.13285447   3.3114421e-11               0   1.3086453e-09               0               0               0
  1.7211727e-05   7.4739529e-05      0.15733161   4.7300612e-11   3.1833339e-37   3.2332602e-09               0               0               0
  2.0249401e-05    7.473953e-05      0.18336848    6.571143e-11   2.9813561e-37   7.1944778e-09               0               0               0
  2.3588836e-05    7.473953e-05      0.21089687   8.9306656e-11   2.3238281e-37   1.4562932e-08               0               0               0
  2.7279799e-05    7.473953e-05      0.23964526   1.1908533e-10  -4.5186902e-39   2.6987855e-08               0               0               0
  3.1377293e-05   7.4739531e-05      0.26915978   1.5599066e-10  -6.2057328e-37   4.6080985e-08               0               0               0
  3.5942381e-05   7.4739531e-05      0.29891209   2.0086871e-10  -3.6347401e-37    7.298932e-08               0               0               0
  4.1043091e-05   7.4739532e-05      0.32844352   2.5450423e-10   2.5487727e-37   1.0820841e-07               0               0               0
  4.6755437e-05   7.4739533e-05      0.35745196   3.1778964e-10   6.0999153e-37   1.5172435e-07               0               0               0
  5.3164546e-05   7.4739534e-05      0.38577164   3.9193401e-10   1.1230205e-37   2.0399763e-07               0               0               0
  6.0365928e-05   7.4739535e-05      0.41328596   4.7844057e-10   -5.922471e-37   2.6682256e-07               0               0               0
    6.84669e-05   7.4739536e-05      0.43987383   5.7900347e-10  -3.4943489e-37   3.4240269e-07               0               0               0
  7.7588184e-05   7.4739538e-05      0.46542019   6.9558466e-10               0   4.3258788e-07               0               0               0
   8.786571e-05   7.4739541e-05       0.4898393   8.3055326e-10  -2.2991133e-37   5.3897601e-07               0               0               0
  9.9452634e-05   7.4739543e-05      0.51309524   9.8674804e-10  -4.8109549e-39   6.6272564e-07               0               0               0
  0.00011252163   7.4739547e-05      0.53521908   1.1675233e-09   2.2510038e-37   8.0415951e-07               0               0               0
  0.00012726745    7.473955e-05      0.55629708   1.3769428e-09   1.7468421e-36   9.6305831e-07               0               0               0
  0.00014390985   7.4739555e-05      0.57642931   1.6199486e-09   1.3552155e-38   1.1403744e-06               0               0               0
  0.00016269684    7.473956e-05      0.59569795   1.9022808e-09    -6.91469e-39   1.3385394e-06               0               0               0
  0.00018390838   7.4739566e-05      0.61416838   2.2305803e-09     8.48791e-40   1.5597461e-06               0               0               0
  0.00020786057   7.4739573e-05      0.63190207   2.6127613e-09  -1.7255264e-36   1.8056485e-06               0               0               0
  0.00023491035   7.4739581e-05       0.6489607   3.0582453e-09               0   2.0779138e-06               0               0               0
  0.00026546084    7.473959e-05      0.66540417   3.5781746e-09               0   2.3782499e-06               0               0               0
   0.0002999673   7.4739601e-05      0.68128793   4.1857546e-09               0   2.7083738e-06               0               0               0
  0.00033894396   7.4739613e-05      0.69666236   4.8966657e-09               0   3.0698936e-06               0               0               0
  0.00038297165   7.4739628e-05      0.71157349   5.7295603e-09               0   3.4642283e-06               0               0               0
  0.00043270649   7.4739644e-05      0.72606302   6.7066653e-09               0   3.8925554e-06               0               0               0
  0.00048888965   7.4739664e-05      0.74016789   7.8545149e-09               0   4.3556796e-06               0               0               0
  0.00055235838   7.4739686e-05      0.75392048   9.2048539e-09               0   4.8538482e-06               0               0               0
   0.0006240585   7.4739711e-05      0.76734935   1.0795745e-08               0   5.3865522e-06               0               0               0
  0.00070505852    7.473974e-05      0.78047982   1.2672927e-08               0   5.9523257e-06               0               0               0
  0.00079656552   7.4739773e-05      0.79333416   1.4891516e-08               0   6.5484988e-06               0               0               0
  0.00089994316   7.4739811e-05      0.80593188   1.7518129e-08               0   7.1708687e-06               0               0               0
    0.001016732   7.4739854e-05      0.81828999   2.0633567e-08               0   7.8133901e-06               0               0               0
   0.0011486725   7.4739903e-05      0.83042303   2.4336283e-08               0   8.4678002e-06               0               0               0
   0.0012977308   7.4739957e-05      0.84234302   2.8746816e-08               0   9.1231176e-06               0               0               0
   0.0014661282   7.4740018e-05      0.85405972   3.4013439e-08               0    9.765146e-06               0               0               0
   0.0016563743   7.4740085e-05      0.86558067     4.03196e-08               0   1.0375962e-05               0               0               0
   0.0018713042   7.4740159e-05       0.8769112   4.7893884e-08               0   1.0933493e-05               0               0               0
   0.0021141207   7.4740238e-05      0.88805384   5.7023108e-08               0   1.1411245e-05               0               0               0
   0.0023884425   7.4740323e-05      0.89900721   6.8069556e-08               0   1.1778223e-05               0               0               0
   0.0026983575   7.4740412e-05      0.90976434   8.1494958e-08               0   1.1999106e-05               0               0               0
   0.0030484842     7.47405e-05      0.92031155   9.7895608e-08   1.3874852e-35   1.2034646e-05               0               0               0
   0.0034440402   7.4740586e-05      0.93062775   1.1805452e-07   2.0810004e-35   1.1843327e-05               0               0               0
   0.0038909203   7.4740662e-05      0.94068189   1.4302112e-07  -5.7830136e-36   1.1385644e-05               0               0               0
    0.004395784   7.4740719e-05      0.95042694   1.7421363e-07  -1.9075196e-35   1.0638517e-05               0               0               0
   0.0049661549   7.4740741e-05      0.95978978   2.1352514e-07   1.2340478e-35   9.6112406e-06               0               0               0
   0.0056105328   7.4740716e-05      0.96865968   2.6345033e-07   3.0522458e-35   8.3446314e-06               0               0               0
   0.0063385204   7.4740643e-05      0.97687843   3.2723821e-07  -9.9680392e-36   6.9067328e-06               0               0               0
   0.0071609664    7.474054e-05       0.9842329    4.088884e-07  -2.6625271e-35   5.3903824e-06               0               0               0
   0.0080901272    7.474045e-05      0.99045905   5.1256388e-07  -4.8322812e-36   3.8968266e-06               0               0               0
   0.0091398493   7.4740487e-05      0.99527969   6.4112833e-07               0   2.5125881e-06               0               0               0
    0.010325776    7.474079e-05      0.99847427   7.8917474e-07               0   1.3710603e-06               0               0               0
     0.01166558   7.4741453e-05       1.0000732   9.3853269e-07               0   6.2783558e-07               0               0               0
    0.013179228   7.4742553e-05       1.0005719   1.0796589e-06               0   2.8577448e-07               0               0               0
    0.014889277    7.474409e-05       1.0006438   1.2256134e-06               0   1.9301673e-07               0               0               0
    0.016821209   7.4745929e-05       1.0006468    1.389705e-06               0   1.8503473e-07               0               0               0
    0.019003816   7.4747986e-05       1.0006468   1.5755099e-06               0    1.849756e-07               0               0               0
    0.021469624   7.4750266e-05       1.0006468   1.7853416e-06               0   1.8497476e-07               0               0               0
    0.024255377   7.4752788e-05       1.0006468   2.0221582e-06               0   1.8497424e-07               0               0               0
    0.027402591   7.4755569e-05       1.0006468   2.2893808e-06               0   1.8497382e-07               0               0               0
    0.030958166   7.4758624e-05       1.0006468   2.5908402e-06   5.6420329e-35   1.8497347e-07               0               0               0
    0.034975088   7.4761965e-05       1.0006467    2.930818e-06   6.2897779e-35   1.8497319e-07               0               0               0
    0.039513219     7.47656e-05       1.0006467   3.3141048e-06  -4.3465697e-35   1.8497297e-07               0               0               0
    0.044640187   7.4769527e-05       1.0006466   3.7460225e-06  -4.9943147e-35    1.849728e-07               0               0               0
    0.050432395   7.4773739e-05       1.0006466   4.2325111e-06   2.0959369e-35   1.8497266e-07               0               0               0
    0.056976161   7.4778211e-05       1.0006465   4.7800849e-06   1.2883297e-35   1.8497256e-07               0               0               0
    0.064369002   7.4782905e-05       1.0006464   5.3960205e-06   9.8027062e-36   1.8497247e-07               0               0               0
    0.072721087   7.4787749e-05       1.0006462   6.0880832e-06   2.0997372e-35   1.8497241e-07               0               0               0
    0.082156882   7.4792658e-05        1.000646   6.8650468e-06  -2.0915901e-35   1.8497236e-07               0               0               0
    0.092817002   7.4797464e-05       1.0006458   7.7357084e-06  -2.4034362e-35   1.8497233e-07               0               0               0
