#      distance             U_x             U_y             U_z wallShearStr... wallShearStr... wallShearStr...               p         epsilon               k             nut
  5.5511169e-17      0.99958133   2.5036799e-22               0               0               0               0    0.0041517712   9.1180082e-06   0.00014786642   0.00021581538
   0.0021021021      0.99956964   2.5036799e-22               0               0               0               0    0.0041633764   9.1177406e-06   0.00014784616   0.00021576258
   0.0042042042      0.99955795   2.5036799e-22               0               0               0               0    0.0041749816   9.1174729e-06   0.00014782591   0.00021570979
   0.0063063063      0.99954627   2.5036799e-22               0               0               0               0    0.0041865868   9.1172053e-06   0.00014780565     0.000215657
   0.0084084084      0.99953458   2.5036799e-22               0               0               0               0     0.004198192   9.1169377e-06   0.00014778539    0.0002156042
    0.010510511      0.99952289   2.5036799e-22               0               0               0               0    0.0042097972     9.11667e-06   0.00014776514   0.00021555141
    0.012612613       0.9995112   2.5036799e-22               0               0               0               0    0.0042214025   9.1164024e-06   0.00014774488   0.00021549862
    0.014714715      0.99949952   2.5036799e-22               0               0               0               0    0.0042330077   9.1161347e-06   0.00014772462   0.00021544582
    0.016816817      0.99948783   2.5036799e-22               0               0               0               0    0.0042446129   9.1158671e-06   0.00014770437   0.00021539303
    0.018918919      0.99947614   2.5036799e-22               0               0               0               0    0.0042562181   9.1155994e-06   0.00014768411   0.00021534024
    0.021021021      0.99946445   2.5036799e-22               0               0               0               0    0.0042678233   9.1153318e-06   0.00014766385   0.00021528745
    0.023123123      0.99944674   3.8142018e-22               0               0               0               0    0.0042856264   9.1151697e-06   0.00014764356   0.00021523214
    0.025225225      0.99942883   3.8142018e-22               0               0               0               0    0.0043036321   9.1150111e-06   0.00014762327   0.00021517676
    0.027327327      0.99941093   3.8142018e-22               0               0               0               0    0.0043216378   9.1148526e-06   0.00014760298   0.00021512138
    0.029429429      0.99939302   3.8142018e-22               0               0               0               0    0.0043396436    9.114694e-06   0.00014758269   0.00021506599
    0.031531532      0.99937511   3.8142018e-22               0               0               0               0    0.0043576493   9.1145354e-06    0.0001475624   0.00021501061
    0.033633634       0.9993572   3.8142018e-22               0               0               0               0     0.004375655   9.1143768e-06   0.00014754211   0.00021495522
    0.035735736       0.9993393   3.8142018e-22               0               0               0               0    0.0043936608   9.1142182e-06   0.00014752182   0.00021489984
    0.037837838      0.99932139   3.8142018e-22               0               0               0               0    0.0044116665   9.1140596e-06   0.00014750153   0.00021484446
     0.03993994      0.99930348   3.8142018e-22               0               0               0               0    0.0044296722    9.113901e-06   0.00014748124   0.00021478907
    0.042042042      0.99928557   3.8142018e-22               0               0               0               0     0.004447678   9.1137424e-06   0.00014746095   0.00021473369
    0.044144144      0.99926767   3.8142018e-22               0               0               0               0    0.0044656837   9.1135838e-06   0.00014744066    0.0002146783
    0.046246246      0.99924976   3.8142018e-22               0               0               0               0    0.0044836894   9.1134252e-06   0.00014742037   0.00021462292
    0.048348348      0.99922572    5.777961e-22               0               0               0               0     0.004507495   9.1134038e-06   0.00014740008   0.00021456434
     0.05045045      0.99919866    5.777961e-22               0               0               0               0    0.0045341481   9.1134497e-06   0.00014737978   0.00021450419
    0.052552553      0.99917161    5.777961e-22               0               0               0               0    0.0045608012   9.1134956e-06   0.00014735948   0.00021444404
    0.054654655      0.99914455    5.777961e-22               0               0               0               0    0.0045874543   9.1135415e-06   0.00014733917   0.00021438388
    0.056756757       0.9991175    5.777961e-22               0               0               0               0    0.0046141074   9.1135874e-06   0.00014731887   0.00021432373
    0.058858859      0.99909044    5.777961e-22               0               0               0               0    0.0046407606   9.1136333e-06   0.00014729857   0.00021426358
    0.060960961      0.99906339    5.777961e-22               0               0               0               0    0.0046674137   9.1136792e-06   0.00014727827   0.00021420343
    0.063063063      0.99903633    5.777961e-22               0               0               0               0    0.0046940668   9.1137251e-06   0.00014725797   0.00021414328
    0.065165165      0.99900928    5.777961e-22               0               0               0               0    0.0047207199    9.113771e-06   0.00014723767   0.00021408313
    0.067267267       0.9989719   8.2967749e-22               0               0               0               0    0.0047587316   9.1139256e-06   0.00014721785   0.00021402188
    0.069369369      0.99893277   8.2967749e-22               0               0               0               0    0.0047986715   9.1140986e-06   0.00014719812   0.00021396045
    0.071471471      0.99889363   8.2967749e-22               0               0               0               0    0.0048386113   9.1142716e-06   0.00014717838   0.00021389901
    0.073573574       0.9988545   8.2967749e-22               0               0               0               0    0.0048785512   9.1144446e-06   0.00014715864   0.00021383758
    0.075675676      0.99881537   8.2967749e-22               0               0               0               0    0.0049184911   9.1146176e-06   0.00014713891   0.00021377615
    0.077777778      0.99877624   8.2967749e-22               0               0               0               0     0.004958431   9.1147906e-06   0.00014711917   0.00021371471
     0.07987988      0.99872309   1.4133382e-21               0               0               0               0    0.0050085534   9.1187947e-06   0.00014709882   0.00021356254
    0.081981982      0.99865777   1.4133382e-21               0               0               0               0    0.0050675236   9.1261275e-06   0.00014707792   0.00021333151
    0.084084084      0.99859244   1.4133382e-21               0               0               0               0    0.0051264939   9.1334603e-06   0.00014705703   0.00021310049
    0.086186186      0.99852711   1.4133382e-21               0               0               0               0    0.0051854641   9.1407931e-06   0.00014703614   0.00021286946
    0.088288288      0.99846167   1.9357876e-21               0               0               0               0    0.0052446764   9.1542905e-06    0.0001470154   0.00021256562
     0.09039039      0.99837095   1.9357876e-21               0               0               0               0    0.0053564474   1.0506228e-05   0.00014702755   0.00019645292
    0.092492492      0.99828023   1.9357876e-21               0               0               0               0    0.0054682184   1.1858166e-05   0.00014703969   0.00018034021
    0.094594595      0.99818952   1.9357876e-21               0               0               0               0    0.0055799895   1.3210103e-05   0.00014705184    0.0001642275
    0.096696697      0.83591686   1.1688606e-20               0  -0.00010148829  -5.8376883e-08   2.8130131e-22     0.005719039   0.00045741661   0.00015498913   0.00012590295
    0.098798799      0.62152894   1.1688606e-20               0  -0.00023558865  -1.3551249e-07   6.5299549e-22    0.0058668542    0.0010439292   0.00016547307   8.0440881e-05
      0.1009009      0.35550989   3.4623077e-20               0  -0.00041622969  -2.5042256e-07   8.6925918e-22    0.0059891051    0.0020646134   0.00019113297     3.88204e-05
       0.103003      0.02064935   3.4623077e-20               0  -0.00065892498  -4.1569855e-07   8.7828224e-22    0.0060772703    0.0036641929   0.00023702748   2.3220357e-06
     0.10510511   1.1034995e-16   3.7733248e-20   -4.103581e-36   -0.0007406074  -5.6294524e-07   3.5018393e-22    0.0060814242    0.0055280936   0.00030744549   9.8739383e-08
     0.10720721   1.1001304e-16   5.6552536e-20               0  -0.00081539863  -7.4236204e-07   1.1880333e-21    0.0060746889    0.0079350995   0.00039127472   1.2954896e-07
     0.10930931   1.1001304e-16   5.6552536e-20               0   -0.0008956722   -9.713317e-07   4.1076041e-21    0.0060599788     0.011123148   0.00049263367   1.6275768e-07
     0.11141141   1.0960005e-16   7.5823001e-20               0  -0.00098111718  -1.2485133e-06   1.6680761e-20    0.0060596544     0.015906044   0.00062243274   1.9839587e-07
     0.11351351    1.091019e-16   9.6222332e-20               0   -0.0010685632  -1.5426748e-06   2.5363043e-20    0.0060639113     0.021565461   0.00076615181   2.3501731e-07
     0.11561562    1.091019e-16   9.6222332e-20               0   -0.0011597375  -1.8643208e-06   7.9037945e-21    0.0060742633     0.029500555   0.00094302741   2.7357758e-07
     0.11771772   1.0851088e-16   1.1042399e-19  -1.8507091e-33   -0.0012521615  -2.1851265e-06  -7.6607056e-21    0.0060819213     0.039344963    0.0011427335   3.1297411e-07
     0.11981982   1.0851088e-16   1.1042399e-19  -1.8507091e-33   -0.0013458091  -2.5051096e-06  -2.1369958e-20    0.0060869415      0.05105888    0.0013647941   3.5318946e-07
     0.12192192   1.0781576e-16   1.1942216e-19  -3.4113175e-35   -0.0014393013  -2.9061251e-06   1.6674947e-20    0.0060815565     0.066402516    0.0016222949   3.9393355e-07
     0.12402402   1.0781576e-16   1.1942216e-19  -3.4113175e-35   -0.0015327475   -3.331126e-06   7.0038918e-20    0.0060730916     0.082820536    0.0018902857   4.3483415e-07
     0.12612613   1.0701391e-16   1.4503363e-19               0   -0.0016229557  -3.8962405e-06   7.0733569e-20    0.0060448648      0.10445833    0.0021990721   4.7526597e-07
     0.12822823   1.0609926e-16   1.7209912e-19               0   -0.0017121818  -4.4708057e-06   8.0145626e-20    0.0060142856      0.12692682    0.0025128889   5.1544218e-07
     0.13033033   1.0609926e-16   1.7209912e-19               0   -0.0017958188  -5.0889967e-06   1.4677405e-19    0.0059714376      0.15389209    0.0028530798   5.5412858e-07
     0.13243243   1.0506974e-16   1.9819849e-19               0   -0.0018771252  -5.7101701e-06   1.9711462e-19     0.005926105      0.18190533    0.0031967617   5.9208589e-07
     0.13453453   1.0506974e-16   1.9819849e-19               0   -0.0019512288  -6.3405606e-06   1.9711467e-19    0.0058730932      0.21315751    0.0035512332   6.2778984e-07
     0.13663664    1.039292e-16   2.2257399e-19               0   -0.0020219154  -6.9640021e-06   1.2490233e-19    0.0058167632      0.24511056    0.0039040828   6.6233417e-07
     0.13873874    1.039292e-16   2.2257399e-19               0   -0.0020841431   -7.570241e-06  -1.2607147e-19     0.005752219      0.27879862    0.0042529171   6.9400789e-07
     0.14084084    1.026859e-16   2.4422071e-19               0   -0.0021427883  -8.1596893e-06  -3.0906056e-19    0.0056851022      0.31248918    0.0045948627   7.2439766e-07
     0.14294294    1.026859e-16   2.4422071e-19               0   -0.0021917911   -8.703944e-06  -3.0906064e-19    0.0056110608      0.34618647    0.0049182664   7.5133154e-07
     0.14504505   1.0135158e-16   2.6215944e-19               0   -0.0022381984  -9.2291625e-06  -2.2785699e-19    0.0055358277      0.37940444    0.0052336376   7.7729244e-07
     0.14714715   1.0135158e-16   2.6215944e-19               0   -0.0022736883  -9.6743097e-06   1.9491037e-19    0.0054555823      0.41060629    0.0055152218   7.9916078e-07
     0.14924925   9.9941259e-17   2.7498628e-19               0   -0.0023085431   -1.011416e-05   5.9678897e-19    0.0053751647      0.44158231    0.0057942103   8.2078089e-07
     0.15135135   9.9941259e-17   2.7498628e-19               0   -0.0023311801   -1.045209e-05   5.9673654e-19    0.0052914346      0.46821299    0.0060232524    8.376244e-07
     0.15345345   9.9941259e-17   2.7498628e-19               0   -0.0023538171  -1.0790019e-05    5.966841e-19    0.0052077045      0.49484367    0.0062522946   8.5446791e-07
     0.15555556   9.8471473e-17   2.8476356e-19               0    -0.002366862  -1.1005128e-05   6.3086163e-19    0.0051241328       0.5165764    0.0064338828   8.6739493e-07
     0.15765766   9.8471473e-17   2.8476356e-19               0   -0.0023780921     -1.1197e-05   6.7151543e-19     0.005040591      0.53738244    0.0066064927   8.7958095e-07
     0.15975976    9.695952e-17   2.8475338e-19               0   -0.0023838212  -1.1309712e-05   6.8924619e-19    0.0049582485      0.55457555    0.0067474531   8.8940234e-07
     0.16186186    9.695952e-17   2.8475338e-19               0   -0.0023853073  -1.1361366e-05   6.8929593e-19     0.004876831      0.56898193    0.0068640015   8.9739985e-07
     0.16396396   9.5424358e-17   2.8201701e-19               0   -0.0023853389  -1.1392199e-05   6.2712069e-19    0.0047959891      0.58227924    0.0069712929   9.0474053e-07
     0.16606607   9.5424358e-17   2.8201701e-19               0   -0.0023801614  -1.1348461e-05   3.4207964e-19     0.004717209      0.59160429    0.0070454289    9.097287e-07
     0.16816817   9.5424358e-17   2.8201701e-19               0   -0.0023749838  -1.1304723e-05   5.7038588e-20    0.0046384289      0.60092935     0.007119565   9.1471688e-07
     0.17027027    9.387868e-17   2.7395172e-19               0   -0.0023647279  -1.1175784e-05   6.3001459e-20    0.0045629653      0.60565968    0.0071570054   9.1722347e-07
     0.17237237    9.387868e-17   2.7395172e-19               0   -0.0023532015  -1.1025531e-05   1.4176377e-19    0.0044883315      0.60924057    0.0071852658   9.1910925e-07
     0.17447447   9.2342474e-17   2.6095942e-19               0   -0.0023402404  -1.0850198e-05   2.1784984e-19    0.0044154036      0.61136401    0.0072020341   9.2022895e-07
     0.17657658   9.2342474e-17   2.6095942e-19               0    -0.002324044  -1.0618311e-05   2.8790109e-19    0.0043463228      0.61020099    0.0071928886   9.1962118e-07
     0.17867868   9.2342474e-17   2.6095942e-19               0   -0.0023078476  -1.0386424e-05   3.5795235e-19    0.0042772419      0.60903798    0.0071837431   9.1901341e-07
     0.18078078   9.0828631e-17   2.4438415e-19               0   -0.0022906272  -1.0117242e-05   4.1190651e-19     0.004212355      0.60638984    0.0071628575   9.1762079e-07
     0.18288288   9.0828631e-17   2.4438415e-19               0   -0.0022730432  -9.8348177e-06   4.6014526e-19    0.0041489571      0.60321441    0.0071378035   9.1594951e-07
     0.18498498   8.9350805e-17   2.2443982e-19               0   -0.0022553647  -9.5487187e-06    4.981318e-19     0.004085997      0.59987501    0.0071114348   9.1418895e-07
     0.18708709   8.9350805e-17   2.2443982e-19               0   -0.0022367283  -9.2253693e-06   4.3219442e-19    0.0040274736       0.5948735    0.0070717395   9.1152334e-07
     0.18918919   8.9350805e-17   2.2443982e-19               0   -0.0022180918  -8.9020199e-06   3.6625703e-19    0.0039689503      0.58987199    0.0070320442   9.0885773e-07
     0.19129129   8.7924007e-17    2.015753e-19               0   -0.0021994094  -8.5704323e-06   2.5634381e-19    0.0039123641      0.58449025    0.0069891831   9.0596825e-07
     0.19339339   8.7924007e-17    2.015753e-19               0   -0.0021806454   -8.224215e-06   6.8336671e-20     0.003859218      0.57843327    0.0069406999   9.0268123e-07
      0.1954955   8.7924007e-17    2.015753e-19               0   -0.0021618813  -7.8779978e-06  -1.1967047e-19    0.0038060719      0.57237629    0.0068922166    8.993942e-07
      0.1975976   8.6565674e-17   1.7704671e-19               0   -0.0021434527  -7.5305422e-06  -2.0486552e-19    0.0037562072      0.56608868    0.0068415938   8.9593951e-07
      0.1996997   8.6565674e-17   1.7704671e-19               0   -0.0021253022  -7.1820605e-06   -2.048656e-19    0.0037090617      0.55960995    0.0067891978   8.9234589e-07
      0.2018018   8.6565674e-17   1.7704671e-19               0   -0.0021071516  -6.8335787e-06  -2.0486568e-19    0.0036619161      0.55313123    0.0067368019   8.8875227e-07
      0.2039039   8.5290056e-17   1.5204588e-19               0   -0.0020897506  -6.4929283e-06  -1.4958019e-19    0.0036186249       0.5466926    0.0066843482    8.851249e-07
     0.20600601   8.5290056e-17   1.5204588e-19               0   -0.0020727584  -6.1565502e-06  -6.4133632e-20    0.0035774363      0.54027586    0.0066318629   8.8147912e-07
     0.20810811   8.5290056e-17   1.5204588e-19               0   -0.0020557662  -5.8201721e-06   2.1312931e-20    0.0035362477      0.53385911    0.0065793776   8.7783334e-07
     0.21021021   8.4108421e-17   1.2721406e-19               0    -0.002039792  -5.4975997e-06   5.0527563e-20    0.0034988343      0.52771679    0.0065287585   8.7428734e-07
     0.21231231   8.4108421e-17   1.2721406e-19               0   -0.0020243466  -5.1821998e-06   5.0527583e-20    0.0034633822      0.52171704     0.006479109   8.7079317e-07
     0.21441441   8.4108421e-17   1.2721406e-19               0   -0.0020089012     -4.8668e-06   5.0527604e-20    0.0034279301      0.51571729    0.0064294595   8.6729899e-07
     0.21651652   8.3029638e-17   1.0321728e-19               0   -0.0019944999  -4.5672078e-06   4.1340788e-20    0.0033957244      0.51010289    0.0063827079   8.6398553e-07
     0.21861862   8.3029638e-17   1.0321728e-19               0   -0.0019808629   -4.279188e-06   2.5428578e-20    0.0033658954      0.50477059    0.0063380779   8.6080434e-07
     0.22072072   8.3029638e-17   1.0321728e-19               0   -0.0019672258  -3.9911682e-06   9.5163667e-21    0.0033360664      0.49943829    0.0062934478   8.5762316e-07
     0.22282282   8.2059204e-17    8.058035e-20               0   -0.0019543764  -3.7162867e-06               0    0.0033084172      0.49443983     0.006251452   8.5461682e-07
     0.22492492   8.2059204e-17    8.058035e-20               0   -0.0019426988  -3.4609536e-06               0    0.0032840114       0.4899381    0.0062133757   8.5187061e-07
     0.22702703   8.2059204e-17    8.058035e-20               0   -0.0019310212  -3.2056206e-06               0    0.0032596055      0.48543636    0.0061752994   8.4912441e-07
     0.22912913   8.1199475e-17   6.0050017e-20               0   -0.0019196028  -2.9552226e-06  -1.1037955e-22    0.0032358509      0.48105304    0.0061381886    8.464449e-07
     0.23123123   8.1199475e-17   6.0050017e-20               0    -0.001909934  -2.7381484e-06  -9.6609382e-22    0.0032164939       0.4774693    0.0061075972   8.4421571e-07
     0.23333333   8.1199475e-17   6.0050017e-20               0   -0.0019002653  -2.5210742e-06  -1.8218081e-21    0.0031971369      0.47388556    0.0060770059   8.4198652e-07
     0.23543544   8.1199475e-17   6.0050017e-20               0   -0.0018905966      -2.304e-06  -2.6775224e-21    0.0031777799      0.47030182    0.0060464145   8.3975733e-07
     0.23753754   8.0448889e-17   4.2434559e-20               0   -0.0018823992  -2.1192944e-06   -7.934923e-21    0.0031617275      0.46742288    0.0060217107   8.3794656e-07
     0.23963964   8.0448889e-17   4.2434559e-20               0   -0.0018746781   -1.945065e-06  -1.4616954e-20    0.0031467448      0.46477205    0.0059989124   8.3627122e-07
     0.24174174   8.0448889e-17   4.2434559e-20               0    -0.001866957  -1.7708356e-06  -2.1298985e-20     0.003131762      0.46212123    0.0059761142   8.3459588e-07
     0.24384384   7.9799821e-17   2.8438968e-20               0   -0.0018597254  -1.6093461e-06  -2.5896997e-20    0.0031177829      0.45971167    0.0059553667   8.3306923e-07
     0.24594595   7.9799821e-17   2.8438968e-20               0   -0.0018537633   -1.480889e-06  -2.5091544e-20    0.0031064064      0.45792768    0.0059399365   8.3192811e-07
     0.24804805   7.9799821e-17   2.8438968e-20               0   -0.0018478011  -1.3524319e-06  -2.4286091e-20    0.0030950298      0.45614369    0.0059245064     8.30787e-07
     0.25015015   7.9799821e-17   2.8438968e-20               0    -0.001841839  -1.2239748e-06  -2.3480639e-20    0.0030836533       0.4543597    0.0059090762   8.2964589e-07
     0.25225225   7.9238883e-17   1.8667852e-20               0   -0.0018368824  -1.1267016e-06  -1.2243653e-20    0.0030741603      0.45307287    0.0058979212   8.2881886e-07
     0.25435435   7.9238883e-17   1.8667852e-20               0   -0.0018323684  -1.0431549e-06   3.5850903e-21    0.0030654964      0.45200488    0.0058886481    8.281301e-07
     0.25645646   7.9238883e-17   1.8667852e-20               0   -0.0018278544  -9.5960824e-07   1.9413833e-20    0.0030568325       0.4509369     0.005879375   8.2744133e-07
     0.25855856   7.8749087e-17   1.3078297e-20               0   -0.0018233408  -8.7607209e-07   3.5236093e-20     0.003048169      0.44986905     0.005870103   8.2675264e-07
     0.26066066   7.8749087e-17   1.3078297e-20               0   -0.0018198779  -8.3108793e-07   2.7298806e-20    0.0030408991      0.44929834    0.0058651357    8.263827e-07
     0.26276276   7.8749087e-17   1.3078297e-20               0    -0.001816415  -7.8610376e-07   1.9361519e-20    0.0030336291      0.44872764    0.0058601685   8.2601275e-07
     0.26486486   7.8749087e-17   1.3078297e-20               0   -0.0018129521  -7.4111959e-07   1.1424232e-20    0.0030263591      0.44815694    0.0058552012   8.2564281e-07
     0.26696697    7.831177e-17   1.0971778e-20               0   -0.0018096115   -7.016065e-07   3.2862188e-21     0.003019124        0.447635    0.0058506576   8.2530435e-07
     0.26906907    7.831177e-17   1.0971778e-20               0   -0.0018067836  -6.8501443e-07  -5.6927355e-21     0.003012035      0.44731737     0.005847889   8.2509783e-07
     0.27117117    7.831177e-17   1.0971778e-20               0   -0.0018039557  -6.6842236e-07   -1.467169e-20    0.0030049459      0.44699973    0.0058451205    8.248913e-07
     0.27327327    7.831177e-17   1.0971778e-20               0   -0.0018011278  -6.5183029e-07  -2.3650644e-20    0.0029978568       0.4466821    0.0058423519   8.2468477e-07
     0.27537538   7.7909466e-17   1.1262107e-20               0   -0.0017983763  -6.3974043e-07  -2.8218599e-20    0.0029906383      0.44637553     0.005839679   8.2448533e-07
     0.27747748   7.7909466e-17   1.1262107e-20               0   -0.0017958334  -6.3993868e-07  -2.0747396e-20    0.0029830663      0.44609913    0.0058372674   8.2430523e-07
     0.27957958   7.7909466e-17   1.1262107e-20               0   -0.0017932904  -6.4013692e-07  -1.3276194e-20    0.0029754943      0.44582273    0.0058348558   8.2412513e-07
     0.28168168   7.7909466e-17   1.1262107e-20               0   -0.0017907474  -6.4033517e-07  -5.8049909e-21    0.0029679223      0.44554633    0.0058324442   8.2394503e-07
     0.28378378   7.7528928e-17   1.2710407e-20               0   -0.0017882179  -6.4194643e-07   2.6326763e-22    0.0029602005      0.44524913    0.0058298503   8.2375125e-07
     0.28588589   7.7528928e-17   1.2710407e-20               0   -0.0017857354  -6.4848055e-07   1.4437452e-21    0.0029519565      0.44487945    0.0058266213   8.2350981e-07
     0.28798799   7.7528928e-17   1.2710407e-20               0   -0.0017832528  -6.5501467e-07   2.6242228e-21    0.0029437126      0.44450976    0.0058233924   8.2326838e-07
     0.29009009   7.7528928e-17   1.2710407e-20               0   -0.0017807702  -6.6154879e-07   3.8047004e-21    0.0029354687      0.44414008    0.0058201634   8.2302694e-07
     0.29219219   7.7162021e-17   1.4275295e-20               0   -0.0017782859  -6.6803924e-07   4.9218851e-21     0.002927203      0.44376288    0.0058168684   8.2278054e-07
     0.29429429   7.7162021e-17   1.4275295e-20               0   -0.0017757707  -6.7375885e-07   4.9218879e-21    0.0029185533      0.44325301    0.0058124086   8.2244654e-07
      0.2963964   7.7162021e-17   1.4275295e-20               0   -0.0017732555  -6.7947846e-07   4.9218908e-21    0.0029099036      0.44274313    0.0058079487   8.2211254e-07
      0.2984985   7.7162021e-17   1.4275295e-20               0   -0.0017707403  -6.8519807e-07   4.9218936e-21    0.0029012539      0.44223325    0.0058034889   8.2177855e-07
      0.3006006   7.7162021e-17   1.4275295e-20               0   -0.0017682252  -6.9091769e-07   4.9218964e-21    0.0028926042      0.44172337    0.0057990291   8.2144455e-07
      0.3027027   7.6804771e-17   1.5322722e-20               0   -0.0017656868  -6.9350399e-07    4.081728e-21    0.0028840067      0.44112164     0.005793758   8.2104914e-07
      0.3048048   7.6804771e-17   1.5322722e-20               0    -0.001763141  -6.9507969e-07   2.9705711e-21    0.0028754261      0.44049028    0.0057882254   8.2063393e-07
     0.30690691   7.6804771e-17   1.5322722e-20               0   -0.0017605951  -6.9665538e-07   1.8594142e-21    0.0028668454      0.43985892    0.0057826927   8.2021872e-07
     0.30900901   7.6804771e-17   1.5322722e-20               0   -0.0017580493  -6.9823107e-07   7.4825735e-22    0.0028582648      0.43922756      0.00577716   8.1980351e-07
     0.31111111   7.6455737e-17   1.5635319e-20               0   -0.0017555077  -6.9845993e-07               0    0.0028497796      0.43857205    0.0057714111   8.1937169e-07
     0.31321321   7.6455737e-17   1.5635319e-20               0    -0.001752975  -6.9591178e-07               0    0.0028414912      0.43786674    0.0057652165   8.1890563e-07
     0.31531532   7.6455737e-17   1.5635319e-20               0   -0.0017504423  -6.9336363e-07               0    0.0028332028      0.43716143    0.0057590219   8.1843957e-07
     0.31741742   7.6455737e-17   1.5635319e-20               0   -0.0017479096  -6.9081548e-07               0    0.0028249144      0.43645612    0.0057528273   8.1797351e-07
     0.31951952   7.6455737e-17   1.5635319e-20               0   -0.0017453769  -6.8826733e-07               0     0.002816626      0.43575081    0.0057466327   8.1750745e-07
     0.32162162   7.6114175e-17   1.5398962e-20               0   -0.0017428853  -6.8410124e-07               0     0.002808506       0.4350229    0.0057402272   8.1702447e-07
     0.32372372   7.6114175e-17   1.5398962e-20               0   -0.0017404066  -6.7942698e-07               0    0.0028004389      0.43428789    0.0057337553   8.1653617e-07
     0.32582583   7.6114175e-17   1.5398962e-20               0    -0.001737928  -6.7475272e-07               0    0.0027923719      0.43355288    0.0057272835   8.1604787e-07
     0.32792793   7.6114175e-17   1.5398962e-20               0   -0.0017354493  -6.7007846e-07               0    0.0027843048      0.43281787    0.0057208117   8.1555957e-07
     0.33003003   7.5778835e-17    1.495443e-20               0   -0.0017329746  -6.6540174e-07               0    0.0027762443      0.43208264     0.005714337   8.1507097e-07
     0.33213213   7.5778835e-17    1.495443e-20               0   -0.0017305681  -6.6068282e-07               0     0.002768297      0.43134364    0.0057078124   8.1457719e-07
     0.33423423   7.5778835e-17    1.495443e-20               0   -0.0017281616  -6.5596389e-07               0    0.0027603497      0.43060463    0.0057012878   8.1408341e-07
     0.33633634   7.5778835e-17    1.495443e-20               0    -0.001725755  -6.5124497e-07               0    0.0027524024      0.42986563    0.0056947633   8.1358963e-07
     0.33843844   7.5778835e-17    1.495443e-20               0   -0.0017233485  -6.4652604e-07               0     0.002744455      0.42912663    0.0056882387   8.1309586e-07
     0.34054054    7.544794e-17   1.4568026e-20               0   -0.0017209564  -6.4201646e-07               0     0.002736525      0.42838856    0.0056817186    8.126021e-07
     0.34264264    7.544794e-17   1.4568026e-20               0   -0.0017186204  -6.3832045e-07               0    0.0027286622       0.4276541    0.0056752159   8.1210841e-07
     0.34474474    7.544794e-17   1.4568026e-20               0   -0.0017162845  -6.3462443e-07               0    0.0027207993      0.42691965    0.0056687132   8.1161472e-07
     0.34684685    7.544794e-17   1.4568026e-20               0   -0.0017139485  -6.3092842e-07               0    0.0027129364       0.4261852    0.0056622104   8.1112103e-07
     0.34894895    7.544794e-17   1.4568026e-20               0   -0.0017116125   -6.272324e-07               0    0.0027050736      0.42545074    0.0056557077   8.1062735e-07
     0.35105105   7.5119824e-17   1.4333446e-20               0   -0.0017092896   -6.237346e-07               0    0.0026972463      0.42471742    0.0056492111   8.1013379e-07
     0.35315315   7.5119824e-17   1.4333446e-20               0   -0.0017070172  -6.2100458e-07               0    0.0026895568      0.42398847    0.0056427382   8.0964076e-07