# Wall shear stress 
# Time              	patch               	min                 	max                 
1.000000000000e+03	top	(-3.776845532694e-02 -2.345900017467e-07 -7.671527545600e-17)	(-7.155583036695e-03 1.153689890557e-03 1.142321608373e-16)
