#      distance             U_x             U_y             U_z wallShearStr... wallShearStr... wallShearStr...               p           omega               k             nut
  3.0219182e-06     0.018437889   2.6284525e-09  -3.4461353e-23               0               0               0     0.000232767       5570601.8   3.9968239e-07   3.7390967e-13
  5.0865428e-06      0.03103803   6.6678303e-09  -1.4611532e-23               0               0               0   0.00023276721       1240850.2   1.8252601e-06   3.4559003e-12
  7.2269684e-06     0.044100077   1.3130502e-08   -3.764322e-23               0               0               0   0.00023276743       495682.18   5.7569103e-06   1.9325625e-11
  9.4750924e-06     0.057816662   2.2378923e-08  -5.6458791e-23               0               0               0   0.00023276765       256764.62   1.4417801e-05   7.8819576e-11
  1.1864417e-05     0.072385789   3.4924556e-08  -2.3400976e-23               0               0               0   0.00023276788       152802.43   3.1086337e-05   2.5990336e-10
  1.4430548e-05     0.088006873   5.1501768e-08   7.8882607e-23               0               0               0   0.00023276813        99058.22   6.0518585e-05   7.3658718e-10
  1.7211727e-05       0.1048687   7.3068627e-08    1.274806e-22               0               0               0   0.00023276842       68139.934   0.00010940358   1.8611123e-09
  2.0249401e-05      0.12312314   1.0081999e-07   2.8786654e-23               0               0               0   0.00023276874       49052.781   0.00018656233   4.2814114e-09
  2.3588836e-05      0.14283958   1.3617966e-07  -3.0451857e-23               0               0               0   0.00023276912       36671.307   0.00030228804   9.0655988e-09
  2.7279799e-05      0.16394565   1.8073704e-07  -1.5225929e-23               0               0               0   0.00023276961       28321.835   0.00046603763    1.775529e-08
  3.1377293e-05      0.18618217   2.3612596e-07               0               0               0               0   0.00023277023       22484.257   0.00068235526   3.2248225e-08
  3.5942381e-05      0.20911571   3.0390825e-07   7.1949543e-23               0               0               0   0.00023277106       18244.023   0.00094682859   5.4497274e-08
  4.1043091e-05      0.23222701   3.8555537e-07   1.0791277e-22               0               0               0   0.00023277215       15039.648    0.0012453316   8.6183003e-08
  4.6755437e-05      0.25503549   4.8251376e-07    1.214972e-22               0               0               0   0.00023277356       12530.033    0.0015580303   1.2857466e-07
  5.3164546e-05      0.27720464   5.9646028e-07   1.2828724e-22               0               0               0   0.00023277536       10510.287    0.0018656951   1.8205238e-07
  6.0365928e-05      0.29857464   7.2962072e-07  -1.9330795e-22               0               0               0   0.00023277761       8853.5787    0.0021545078   2.4683783e-07
    6.84669e-05       0.3190896   8.8471347e-07  -4.1173382e-22               0               0               0    0.0002327804       7476.9371    0.0024168736   3.2495167e-07
  7.7588184e-05      0.33871257   1.0647517e-06  -2.1503822e-22               0               0               0   0.00023278387       6324.5488     0.002649328    4.196167e-07
   8.786571e-05      0.35741898   1.2731053e-06   6.1355611e-23               0               0               0   0.00023278816        5357.539    0.0028511037   5.3377077e-07
  9.9452634e-05      0.37521861   1.5136478e-06   2.7236179e-22               0               0               0   0.00023279341       4546.6251    0.0030236988   6.6994511e-07
  0.00011252163      0.39216373   1.7909134e-06    5.655281e-23               0               0               0   0.00023279973       3867.6643    0.0031701504   8.2954897e-07
  0.00012726745      0.40834853      2.1104e-06  -1.5311994e-22               0               0               0   0.00023280722       3299.2826    0.0032941986   1.0127848e-06
  0.00014390985      0.42388503   2.4786888e-06  -3.8032189e-23               0               0               0   0.00023281602       2822.4268     0.003399554   1.2215791e-06
  0.00016269684      0.43886722   2.9032012e-06   6.8210111e-23               0               0               0   0.00023282636       2421.0096    0.0034893242   1.4605673e-06
  0.00018390838      0.45336294   3.3922356e-06   5.4409895e-22               0               0               0   0.00023283849       2082.0039    0.0035658988   1.7344573e-06
  0.00020786057      0.46742737   3.9553767e-06    6.796628e-22               0               0               0   0.00023285271       1794.8362    0.0036312165   2.0475797e-06
  0.00023491035      0.48110986   4.6037042e-06   2.0377396e-22               0               0               0   0.00023286932       1550.8451    0.0036869319   2.4048032e-06
  0.00026546084      0.49445436   5.3499173e-06               0               0               0               0   0.00023288867       1342.9263    0.0037344398   2.8115951e-06
   0.0002999673      0.50749997   6.2085856e-06               0               0               0               0   0.00023291115        1165.241    0.0037749076    3.274085e-06
  0.00033894396      0.52028147   7.1964384e-06  -1.8512461e-22               0               0               0   0.00023293724       1012.9786     0.003809306   3.7991345e-06
  0.00038297165      0.53282984   8.3326897e-06  -3.7024923e-22               0               0               0   0.00023296745       882.16469    0.0038384382   4.3944102e-06
  0.00043270649      0.54517276   9.6394129e-06   8.0095892e-22               0               0               0   0.00023300236       769.50505    0.0038629646   5.0684601e-06
  0.00048888965      0.55733508   1.1141975e-05   1.5554388e-21               0               0               0   0.00023304266       672.26034     0.003883424   5.8307899e-06
  0.00055235838       0.5693392   1.2869545e-05   5.6935526e-22               0               0               0    0.0002330891       588.14476     0.003900251   6.6919395e-06
   0.0006240585      0.58120544   1.4855681e-05               0               0               0               0   0.00023314254       515.24436    0.0039137899   7.6635525e-06
  0.00070505852      0.59295241   1.7139024e-05   2.3905841e-22               0               0               0   0.00023320397       451.95101    0.0039243059   8.7584366e-06
  0.00079656552      0.60459728   1.9764105e-05   4.7811683e-22               0               0               0   0.00023327448         396.909    0.0039319938   9.9906043e-06
  0.00089994316      0.61615607   2.2782306e-05   2.3905841e-22               0               0               0   0.00023335531       348.97167    0.0039369843   1.1375287e-05
    0.001016732      0.62764396   2.6252992e-05               0               0               0               0   0.00023344784       307.16615    0.0039393485   1.2928906e-05
   0.0011486725       0.6390755   3.0244861e-05   1.0417271e-21               0               0               0   0.00023355361       270.66453    0.0039391008    1.466898e-05
   0.0012977308      0.65046491   3.4837565e-05  -7.8789573e-22               0               0               0   0.00023367436       238.76029    0.0039361995   1.6613947e-05
   0.0014661282      0.66182634   4.0123669e-05  -3.4905335e-21               0               0               0   0.00023381197       210.84894     0.003930547   1.8782867e-05
   0.0016563743      0.67317415   4.6211026e-05  -2.6967074e-21               0               0               0   0.00023396855       186.41202    0.0039219874   2.1194955e-05
   0.0018713042      0.68452324   5.3225696e-05  -1.5854654e-21               0               0               0   0.00023414635       165.00386    0.0039103026   2.3868885e-05
   0.0021141207      0.69588937   6.1315554e-05  -5.4966868e-22               0               0               0   0.00023434783       146.24067    0.0038952073   2.6821803e-05
   0.0023884425      0.70728963   7.0654789e-05  -4.0098681e-22               0               0               0   0.00023457558       129.79134    0.0038763404   3.0067927e-05
   0.0026983575      0.71874282   8.1449583e-05   1.2443676e-21               0               0               0   0.00023483228       115.36989    0.0038532553    3.361663e-05
   0.0030484842      0.73027016   9.3945344e-05  -2.2368194e-21               0               0               0   0.00023512062       102.72909    0.0038254057   3.7469843e-05
   0.0034440402      0.74189591   0.00010843602  -5.6989928e-21               0               0               0   0.00023544317       91.655126    0.0037921277   4.1618596e-05
   0.0038909203      0.75364831   0.00012527621   -1.816819e-21               0               0               0   0.00023580214        81.96324    0.0037526162   4.6038489e-05
    0.004395784      0.76556072    0.0001448973   3.1397396e-21               0               0               0   0.00023619913       73.494039    0.0037058944   5.0683853e-05
   0.0049661549      0.77767311   0.00016782936  -4.6845674e-21               0               0               0   0.00023663468       66.110561    0.0036507732   5.5480391e-05
   0.0056105328        0.790034   0.00019473145  -1.3757675e-20               0               0               0   0.00023710759       59.695972    0.0035857984   6.0316142e-05
   0.0063385204      0.80270295   0.00022642988   5.3445648e-21               0               0               0    0.0002376129       54.151959    0.0035091831   6.5030759e-05
   0.0071609664      0.81575407   0.00026394749   1.8558412e-20               0               0               0   0.00023813779       49.397972     0.003418722    6.940341e-05
   0.0080901272      0.82929278   0.00030865257   2.9365183e-20               0               0               0   0.00023866645       45.366261    0.0033113884    7.300287e-05
   0.0091398493      0.84349109   0.00036255429   3.4051257e-20               0               0               0   0.00023918414       41.988082    0.0031823964   7.5150127e-05
    0.010325776      0.85859782    0.0004285669   1.6023091e-20               0               0               0   0.00023965467       39.180337    0.0030240955   7.5298469e-05
     0.01166558      0.87491322   0.00051062563   4.0565397e-21               0               0               0   0.00024000763       36.833272    0.0028246296   7.3109948e-05
    0.013179228      0.89277136   0.00061403763    1.790956e-20               0               0               0   0.00024015095       34.787056    0.0025665991   6.8305495e-05
    0.014889277      0.91247576   0.00074574648   1.6571022e-20               0               0               0   0.00023993651       32.818652    0.0022283447   6.0909775e-05
    0.016821209      0.93403223   0.00091052749   5.0714681e-20               0               0               0   0.00023904302       30.697557    0.0017936216   5.1466247e-05
    0.019003816      0.95679121    0.0011121035   7.7419576e-20               0               0               0   0.00023727389        28.14664     0.001263503   4.0159418e-05
    0.021469624      0.97883326    0.0013395406   4.3864655e-20               0               0               0   0.00023446777       23.077374   0.00068844953    2.626827e-05
    0.024255377      0.99526707    0.0015166029   2.4054521e-20               0               0               0   0.00022960062        14.33242   0.00023566035   1.2129168e-05
    0.027402591       1.0024697    0.0015843218   5.5561803e-21               0               0               0   0.00022278759       7.3125889   3.6689564e-05   3.1150111e-06
    0.030958166        1.003776    0.0015883043               0               0               0               0   0.00021582927       5.3269973   1.7760857e-06   3.2426844e-07
    0.034975088       1.0038179    0.0015795049               0               0               0               0   0.00020933814       5.2603575   6.5595366e-07   1.2469785e-07
    0.039513219       1.0038155    0.0015693754   1.9703155e-20               0               0               0   0.00020287731       5.2618482   6.5391265e-07   1.2427305e-07
    0.044640187       1.0038176    0.0015601509   2.9551643e-20               0               0               0   0.00019621873       5.2622593   6.5412436e-07   1.2430341e-07
    0.050432395       1.0038245    0.0015498641   9.8484524e-21               0               0               0   0.00018935983       5.2622372   6.5413622e-07   1.2430619e-07
    0.056976161       1.0038303    0.0015380527               0               0               0               0   0.00018239833       5.2622296     6.54133e-07   1.2430576e-07
    0.064369002       1.0038309    0.0015254736               0               0               0               0   0.00017550899       5.2622238   6.5413179e-07   1.2430567e-07
    0.072721087       1.0038279    0.0015117648               0               0               0               0   0.00016884478       5.2622137   6.5413018e-07    1.243056e-07
    0.082156882       1.0038227    0.0014970798               0               0               0               0   0.00016249314       5.2621962   6.5412764e-07   1.2430553e-07
    0.092817002        1.003815    0.0014811879               0               0               0               0   0.00015653503        5.262169   6.5412384e-07   1.2430545e-07
