#      distance             U_x             U_y             U_z wallShearStr... wallShearStr... wallShearStr...               p             nut         nuTilda
  3.0219182e-06      0.01885573   2.7096469e-09  -3.5563181e-23               0               0               0   0.00024091071   3.1859282e-12   4.3835686e-08
  5.0865428e-06     0.031741018   6.8740021e-09  -1.5135999e-23               0               0               0   0.00024091093   1.5791408e-11    7.378619e-08
  7.2269684e-06     0.045097592   1.3536183e-08  -3.8981896e-23               0               0               0   0.00024091115   5.3954214e-11    1.048324e-07
  9.4750924e-06     0.059121492   2.3069443e-08  -5.8466591e-23               0               0               0   0.00024091138   1.4693799e-10   1.3743508e-07
  1.1864417e-05     0.074015147   3.6000598e-08   -2.474116e-23               0               0               0   0.00024091162     3.45589e-10    1.720775e-07
  1.4430548e-05     0.089987061   5.3088308e-08   8.0869453e-23               0               0               0   0.00024091188    7.359378e-10   2.0927244e-07
  1.7211727e-05       0.1072488   7.5331076e-08   1.3180245e-22               0               0               0   0.00024091217   1.4613006e-09   2.4956966e-07
  2.0249401e-05      0.12600714   1.0400129e-07    2.788992e-23               0               0               0   0.00024091249   2.7575282e-09   2.9356433e-07
  2.3588836e-05       0.1464479   1.4068635e-07  -3.5573225e-23               0               0               0   0.00024091285   5.0082562e-09   3.4190725e-07
  2.7279799e-05      0.16870687   1.8731484e-07  -1.7786612e-23               0               0               0   0.00024091327   8.8297559e-09   3.9531803e-07
  3.1377293e-05      0.19282281   2.4614155e-07               0               0               0               0   0.00024091379   1.5197783e-08   4.5460338e-07
  3.5942381e-05      0.21867152   3.1965606e-07   8.7733556e-23               0               0               0   0.00024091443   2.5629856e-08   5.2068161e-07
  4.1043091e-05      0.24589293   4.1038133e-07   1.3158626e-22               0               0               0   0.00024091528   4.2430212e-08   5.9461111e-07
  4.6755437e-05      0.27384567   5.2057122e-07   1.5308155e-22               0               0               0   0.00024091644   6.8978033e-08   6.7760978e-07
  5.3164546e-05      0.30164398   6.5191611e-07   1.6382574e-22               0               0               0   0.00024091806   1.0997252e-07   7.7104358e-07
  6.0365928e-05      0.32831348   8.0546864e-07  -2.3004433e-22               0               0               0   0.00024092038   1.7144518e-07   8.7637462e-07
    6.84669e-05      0.35302685   9.8195787e-07  -4.9908124e-22               0               0               0   0.00024092367   2.6029657e-07   9.9510794e-07
  7.7588184e-05      0.37530082     1.18241e-06   -2.625796e-22               0               0               0   0.00024092822   3.8325017e-07   1.1288067e-06
   8.786571e-05      0.39504921   1.4087534e-06   4.5637361e-23               0               0               0   0.00024093432   5.4545296e-07   1.2791929e-06
  9.9452634e-05      0.41249262   1.6641354e-06    2.476252e-22               0               0               0   0.00024094216    7.492871e-07   1.4482723e-06
  0.00011252163       0.4280104    1.952939e-06   6.8012588e-23               0               0               0   0.00024095181   9.9402054e-07   1.6384172e-06
  0.00012726745      0.44201595   2.2806663e-06  -1.0877361e-22               0               0               0   0.00024096328   1.2765771e-06   1.8523996e-06
  0.00014390985      0.45488454   2.6538374e-06  -2.2937954e-23               0               0               0   0.00024097649   1.5931137e-06   2.0933992e-06
  0.00016269684      0.46692518   3.0799676e-06    6.009431e-23               0               0               0   0.00024099141   1.9406889e-06   2.3650127e-06
  0.00018390838      0.47837801   3.5676271e-06   4.4442167e-22               0               0               0   0.00024100807   2.3183901e-06   2.6712725e-06
  0.00020786057      0.48942304   4.1265671e-06   5.4639187e-22               0               0               0   0.00024102662   2.7277157e-06   3.0166809e-06
  0.00023491035      0.50019191   4.7678971e-06   1.6206451e-22               0               0               0   0.00024104728    3.172393e-06   3.4062548e-06
  0.00026546084      0.51077931   5.5043023e-06               0               0               0               0   0.00024107039   3.6579458e-06   3.8455797e-06
   0.0002999673      0.52125246   6.3502985e-06               0               0               0               0   0.00024109636   4.1912562e-06   4.3408677e-06
  0.00033894396      0.53165871   7.3225284e-06  -1.7303177e-22               0               0               0   0.00024112568   4.7802387e-06   4.8990175e-06
  0.00038297165      0.54203122   8.4401081e-06  -3.4606355e-22               0               0               0   0.00024115891   5.4336432e-06   5.5276705e-06
  0.00043270649      0.55239325   9.7250331e-06   6.9969367e-22               0               0               0   0.00024119668   6.1609621e-06     6.23526e-06
  0.00048888965      0.56276129    1.120266e-05   1.3826565e-21               0               0               0   0.00024123973   6.9723986e-06   7.0310478e-06
  0.00055235838      0.57314736   1.2902276e-05   5.0993102e-22               0               0               0   0.00024128885   7.8788616e-06   7.9251411e-06
   0.0006240585      0.58356067   1.4857789e-05               0               0               0               0   0.00024134498   8.8919566e-06   8.9284809e-06
  0.00070505852      0.59400892    1.710855e-05   2.4321889e-22               0               0               0   0.00024140916   1.0023948e-05   1.0052791e-05
  0.00079656552      0.60449919   1.9700358e-05   4.8643778e-22               0               0               0   0.00024148257   1.1287673e-05   1.1310472e-05
  0.00089994316       0.6150387   2.2686683e-05   2.4321889e-22               0               0               0   0.00024156654   1.2696385e-05   1.2714433e-05
    0.001016732      0.62563542    2.613017e-05               0               0               0               0   0.00024166258   1.4263519e-05   1.4277832e-05
   0.0011486725      0.63629854   3.0104481e-05   1.0008035e-21               0               0               0    0.0002417724   1.6002347e-05   1.6013724e-05
   0.0012977308       0.6470389   3.4696574e-05  -7.8120962e-22               0               0               0   0.00024189791   1.7925534e-05   1.7934602e-05
   0.0014661282      0.65786938   4.0009511e-05  -3.4516426e-21               0               0               0   0.00024204123   2.0044573e-05   2.0051824e-05
   0.0016563743      0.66880526   4.6165915e-05  -2.8032717e-21               0               0               0   0.00024220471   2.2369128e-05   2.2374949e-05
   0.0018713042      0.67986444   5.3312209e-05  -1.7384161e-21               0               0               0   0.00024239092   2.4906279e-05   2.4910971e-05
   0.0021141207      0.69106774   6.1623806e-05  -6.0477383e-22               0               0               0    0.0002426026   2.7659707e-05   2.7663509e-05
   0.0023884425      0.70243899   7.1311417e-05  -4.5754591e-22               0               0               0   0.00024284265   3.0628835e-05   3.0631933e-05
   0.0026983575      0.71400515   8.2628679e-05   1.1645108e-21               0               0               0   0.00024311395   3.3807916e-05   3.3810456e-05
   0.0030484842      0.72579631   9.5881358e-05   -2.417293e-21               0               0               0   0.00024341932   3.7185054e-05   3.7187152e-05
   0.0034440402      0.73784561   0.00011143838  -5.8358948e-21               0               0               0   0.00024376121   4.0741087e-05   4.0742833e-05
   0.0038909203      0.75018911   0.00012974495   -1.796545e-21               0               0               0   0.00024414141   4.4448248e-05   4.4449713e-05
    0.004395784       0.7628655   0.00015133784   3.8238969e-21               0               0               0   0.00024456055   4.8268495e-05   4.8269736e-05
   0.0049661549      0.77591582   0.00017686347   -4.608065e-21               0               0               0   0.00024501752    5.215143e-05   5.2152492e-05
   0.0056105328      0.78938292   0.00020710167  -1.5115824e-20               0               0               0   0.00024550919   5.6031705e-05   5.6032623e-05
   0.0063385204       0.8033106   0.00024299998   5.6644382e-21               0               0               0   0.00024602968   5.9825883e-05   5.9826689e-05
   0.0071609664      0.81774235   0.00028570169   2.0570519e-20               0               0               0   0.00024656336   6.3428714e-05    6.342943e-05
   0.0080901272      0.83271915    0.0003363635   4.7958813e-20               0               0               0   0.00024708487   6.6708761e-05   6.6709407e-05
   0.0091398493      0.84827601   0.00039660661   6.0614717e-20               0               0               0   0.00024756305   6.9503355e-05   6.9503949e-05
    0.010325776      0.86443621   0.00046840099   2.5777814e-20               0               0               0    0.0002479504   7.1612807e-05   7.1613366e-05
     0.01166558      0.88120212   0.00055356643   4.8996942e-21               0               0               0    0.0002481795   7.2793857e-05   7.2794398e-05
    0.013179228       0.8985402   0.00065410836   1.6397112e-20               0               0               0   0.00024815763   7.2752461e-05   7.2753002e-05
    0.014889277       0.9163565   0.00077199578   1.4082529e-20               0               0               0   0.00024775386   7.1136297e-05   7.1136864e-05
    0.016821209       0.9344558   0.00090852104   4.1578971e-20               0               0               0   0.00024679431   6.7527781e-05   6.7528414e-05
    0.019003816        0.952472    0.0010631648   6.5191666e-20               0               0               0   0.00024505591   6.1438551e-05   6.1439326e-05
    0.021469624      0.96974737    0.0012315508   3.3531805e-20               0               0               0   0.00024229131   5.2298896e-05   5.2300015e-05
    0.024255377      0.98516003    0.0014047972   1.3878987e-20               0               0               0    0.0002383689   3.9263521e-05   3.9265975e-05
    0.027402591      0.99661673    0.0015423594   1.6452552e-21               0               0               0   0.00023278749   2.2520136e-05   2.2549528e-05
    0.030958166       1.0023362    0.0016046714               0               0               0               0   0.00022549877    8.211456e-06   8.4041285e-06
    0.034975088       1.0037621    0.0016139762               0               0               0               0   0.00021783947   2.2390734e-06   2.6694943e-06
    0.039513219       1.0038586    0.0016052592   1.9843095e-20               0               0               0    0.0002105699   1.4474392e-06   1.9807613e-06
    0.044640187       1.0038606    0.0015948039   2.8291354e-20               0               0               0   0.00020335636   1.4415556e-06   1.9762961e-06
    0.050432395       1.0038663    0.0015845232   6.9780397e-21               0               0               0    0.0001960215   1.4502337e-06   1.9828646e-06
    0.056976161       1.0038711     0.001572291  -1.4701836e-21               0               0               0   0.00018864126   1.4572185e-06   1.9881539e-06
    0.064369002       1.0038734    0.0015595647               0               0               0               0   0.00018134846   1.4629574e-06    1.992502e-06
    0.072721087       1.0038716    0.0015451523               0               0               0               0   0.00017427823   1.4679019e-06   1.9962496e-06
    0.082156882       1.0038668     0.001530023               0               0               0               0   0.00016753021   1.4722204e-06   1.9995239e-06
    0.092817002       1.0038594    0.0015136143               0               0               0               0   0.00016119285   1.4767734e-06   2.0029773e-06
