# Selection     : all 
# Volume        : 2.33333000e+00
# Time          	max(nuTilda)	location	cell	max(nut)	location	cell
0               	2.00000000e-06	(1.56631511e-03 4.00664797e-04 5.00000000e-01)	0	1.47285058e-06	(1.56631511e-03 4.00664797e-04 5.00000000e-01)	0
1               	1.52769666e-05	(1.96867370e+00 4.00664797e-04 5.00000000e-01)	99	1.12503446e-05	(1.96867370e+00 4.00664797e-04 5.00000000e-01)	99
2               	1.20725470e-05	(1.96867370e+00 2.05728518e-03 5.00000000e-01)	299	1.19390727e-05	(1.96867370e+00 2.05728518e-03 5.00000000e-01)	299
3               	1.64039003e-05	(1.96867370e+00 2.05728518e-03 5.00000000e-01)	299	1.63772495e-05	(1.96867370e+00 2.05728518e-03 5.00000000e-01)	299
4               	1.85039887e-05	(1.96867370e+00 2.92730968e-03 5.00000000e-01)	399	1.84902447e-05	(1.96867370e+00 2.92730968e-03 5.00000000e-01)	399
5               	2.13331068e-05	(1.96867370e+00 2.92730968e-03 5.00000000e-01)	399	2.13234701e-05	(1.96867370e+00 2.92730968e-03 5.00000000e-01)	399
6               	2.35679207e-05	(1.96867370e+00 3.82638520e-03 5.00000000e-01)	499	2.35609416e-05	(1.96867370e+00 3.82638520e-03 5.00000000e-01)	499
7               	2.58682834e-05	(1.96867370e+00 4.75548180e-03 5.00000000e-01)	599	2.58623515e-05	(1.96867370e+00 4.75548180e-03 5.00000000e-01)	599
8               	2.80028682e-05	(1.96867370e+00 4.75548180e-03 5.00000000e-01)	599	2.79982371e-05	(1.96867370e+00 4.75548180e-03 5.00000000e-01)	599
9               	2.99629008e-05	(1.96867370e+00 5.71560190e-03 5.00000000e-01)	699	2.99588186e-05	(1.96867370e+00 5.71560190e-03 5.00000000e-01)	699
10              	3.20101125e-05	(1.96867370e+00 5.71560190e-03 5.00000000e-01)	699	3.20067057e-05	(1.96867370e+00 5.71560190e-03 5.00000000e-01)	699
11              	3.38601622e-05	(1.96867370e+00 5.71560190e-03 5.00000000e-01)	699	3.38572065e-05	(1.96867370e+00 5.71560190e-03 5.00000000e-01)	699
12              	3.56681487e-05	(1.96867370e+00 6.70778142e-03 5.00000000e-01)	799	3.56654763e-05	(1.96867370e+00 6.70778142e-03 5.00000000e-01)	799
13              	3.74726905e-05	(1.96867370e+00 6.70778142e-03 5.00000000e-01)	799	3.74703261e-05	(1.96867370e+00 6.70778142e-03 5.00000000e-01)	799
14              	3.91190577e-05	(1.96867370e+00 6.70778142e-03 5.00000000e-01)	799	3.91169292e-05	(1.96867370e+00 6.70778142e-03 5.00000000e-01)	799
15              	4.07882295e-05	(1.96867370e+00 7.73309085e-03 5.00000000e-01)	899	4.07862621e-05	(1.96867370e+00 7.73309085e-03 5.00000000e-01)	899
16              	4.24417298e-05	(1.96867370e+00 7.73309085e-03 5.00000000e-01)	899	4.24399390e-05	(1.96867370e+00 7.73309085e-03 5.00000000e-01)	899
17              	4.39738105e-05	(1.96867370e+00 7.73309085e-03 5.00000000e-01)	899	4.39721636e-05	(1.96867370e+00 7.73309085e-03 5.00000000e-01)	899
18              	4.54522507e-05	(1.96867370e+00 8.79263643e-03 5.00000000e-01)	999	4.54507018e-05	(1.96867370e+00 8.79263643e-03 5.00000000e-01)	999
19              	4.69966094e-05	(1.96867370e+00 8.79263643e-03 5.00000000e-01)	999	4.69951764e-05	(1.96867370e+00 8.79263643e-03 5.00000000e-01)	999
20              	4.84539386e-05	(1.96867370e+00 8.79263643e-03 5.00000000e-01)	999	4.84526020e-05	(1.96867370e+00 8.79263643e-03 5.00000000e-01)	999
21              	4.98204534e-05	(1.96867370e+00 8.79263643e-03 5.00000000e-01)	999	4.98191994e-05	(1.96867370e+00 8.79263643e-03 5.00000000e-01)	999
22              	5.11596385e-05	(1.96867370e+00 9.88756135e-03 5.00000000e-01)	1099	5.11584446e-05	(1.96867370e+00 9.88756135e-03 5.00000000e-01)	1099
23              	5.25456476e-05	(1.96867370e+00 9.88756135e-03 5.00000000e-01)	1099	5.25445241e-05	(1.96867370e+00 9.88756135e-03 5.00000000e-01)	1099
24              	5.38633347e-05	(1.96867370e+00 9.88756135e-03 5.00000000e-01)	1099	5.38622717e-05	(1.96867370e+00 9.88756135e-03 5.00000000e-01)	1099
25              	5.51082419e-05	(1.96867370e+00 9.88756135e-03 5.00000000e-01)	1099	5.51072322e-05	(1.96867370e+00 9.88756135e-03 5.00000000e-01)	1099
26              	5.62930177e-05	(1.96867370e+00 9.88756135e-03 5.00000000e-01)	1099	5.62920546e-05	(1.96867370e+00 9.88756135e-03 5.00000000e-01)	1099
27              	5.74726079e-05	(1.96867370e+00 1.10190469e-02 5.00000000e-01)	1199	5.74716816e-05	(1.96867370e+00 1.10190469e-02 5.00000000e-01)	1199
28              	5.86681131e-05	(1.96867370e+00 1.10190469e-02 5.00000000e-01)	1199	5.86672282e-05	(1.96867370e+00 1.10190469e-02 5.00000000e-01)	1199
29              	5.98007294e-05	(1.96867370e+00 1.10190469e-02 5.00000000e-01)	1199	5.97998815e-05	(1.96867370e+00 1.10190469e-02 5.00000000e-01)	1199
30              	6.08792411e-05	(1.96867370e+00 1.10190469e-02 5.00000000e-01)	1199	6.08784260e-05	(1.96867370e+00 1.10190469e-02 5.00000000e-01)	1199
31              	6.18994207e-05	(1.96867370e+00 1.10190469e-02 5.00000000e-01)	1199	6.18986352e-05	(1.96867370e+00 1.10190469e-02 5.00000000e-01)	1199
32              	6.28695114e-05	(1.96867370e+00 1.10190469e-02 5.00000000e-01)	1199	6.28687524e-05	(1.96867370e+00 1.10190469e-02 5.00000000e-01)	1199
33              	6.37853652e-05	(1.96867370e+00 1.10190469e-02 5.00000000e-01)	1199	6.37846303e-05	(1.96867370e+00 1.10190469e-02 5.00000000e-01)	1199
34              	6.47400232e-05	(1.96867370e+00 1.21883140e-02 5.00000000e-01)	1299	6.47393087e-05	(1.96867370e+00 1.21883140e-02 5.00000000e-01)	1299
35              	6.56452140e-05	(1.96867370e+00 1.21883140e-02 5.00000000e-01)	1299	6.56445213e-05	(1.96867370e+00 1.21883140e-02 5.00000000e-01)	1299
36              	6.65018816e-05	(1.96867370e+00 1.21883140e-02 5.00000000e-01)	1299	6.65012085e-05	(1.96867370e+00 1.21883140e-02 5.00000000e-01)	1299
37              	6.73078052e-05	(1.96867370e+00 1.21883140e-02 5.00000000e-01)	1299	6.73071499e-05	(1.96867370e+00 1.21883140e-02 5.00000000e-01)	1299
38              	6.80686299e-05	(1.96867370e+00 1.21883140e-02 5.00000000e-01)	1299	6.80679907e-05	(1.96867370e+00 1.21883140e-02 5.00000000e-01)	1299
39              	6.87820366e-05	(1.96867370e+00 1.21883140e-02 5.00000000e-01)	1299	6.87814122e-05	(1.96867370e+00 1.21883140e-02 5.00000000e-01)	1299
40              	6.94533189e-05	(1.96867370e+00 1.21883140e-02 5.00000000e-01)	1299	6.94527078e-05	(1.96867370e+00 1.21883140e-02 5.00000000e-01)	1299
41              	7.00803590e-05	(1.96867370e+00 1.21883140e-02 5.00000000e-01)	1299	7.00797601e-05	(1.96867370e+00 1.21883140e-02 5.00000000e-01)	1299
42              	7.06690659e-05	(1.96867370e+00 1.21883140e-02 5.00000000e-01)	1299	7.06684780e-05	(1.96867370e+00 1.21883140e-02 5.00000000e-01)	1299
43              	7.12172014e-05	(1.96867370e+00 1.21883140e-02 5.00000000e-01)	1299	7.12166237e-05	(1.96867370e+00 1.21883140e-02 5.00000000e-01)	1299
44              	7.17306726e-05	(1.96867370e+00 1.21883140e-02 5.00000000e-01)	1299	7.17301039e-05	(1.96867370e+00 1.21883140e-02 5.00000000e-01)	1299
45              	7.22071588e-05	(1.96867370e+00 1.21883140e-02 5.00000000e-01)	1299	7.22065986e-05	(1.96867370e+00 1.21883140e-02 5.00000000e-01)	1299
46              	7.26604196e-05	(1.96867370e+00 1.33966242e-02 5.00000000e-01)	1399	7.26598664e-05	(1.96867370e+00 1.33966242e-02 5.00000000e-01)	1399
47              	7.31030132e-05	(1.96867370e+00 1.33966242e-02 5.00000000e-01)	1399	7.31024676e-05	(1.96867370e+00 1.33966242e-02 5.00000000e-01)	1399
48              	7.35143897e-05	(1.96867370e+00 1.33966242e-02 5.00000000e-01)	1399	7.35138509e-05	(1.96867370e+00 1.33966242e-02 5.00000000e-01)	1399
49              	7.38940257e-05	(1.96867370e+00 1.33966242e-02 5.00000000e-01)	1399	7.38934932e-05	(1.96867370e+00 1.33966242e-02 5.00000000e-01)	1399
50              	7.42460433e-05	(1.96867370e+00 1.33966242e-02 5.00000000e-01)	1399	7.42455164e-05	(1.96867370e+00 1.33966242e-02 5.00000000e-01)	1399
51              	7.45698820e-05	(1.96867370e+00 1.33966242e-02 5.00000000e-01)	1399	7.45693603e-05	(1.96867370e+00 1.33966242e-02 5.00000000e-01)	1399
52              	7.48695638e-05	(1.96867370e+00 1.33966242e-02 5.00000000e-01)	1399	7.48690469e-05	(1.96867370e+00 1.33966242e-02 5.00000000e-01)	1399
53              	7.51443775e-05	(1.96867370e+00 1.33966242e-02 5.00000000e-01)	1399	7.51438648e-05	(1.96867370e+00 1.33966242e-02 5.00000000e-01)	1399
54              	7.53982044e-05	(1.96867370e+00 1.33966242e-02 5.00000000e-01)	1399	7.53976956e-05	(1.96867370e+00 1.33966242e-02 5.00000000e-01)	1399
55              	7.56301662e-05	(1.96867370e+00 1.33966242e-02 5.00000000e-01)	1399	7.56296610e-05	(1.96867370e+00 1.33966242e-02 5.00000000e-01)	1399
56              	7.58439969e-05	(1.96867370e+00 1.33966242e-02 5.00000000e-01)	1399	7.58434949e-05	(1.96867370e+00 1.33966242e-02 5.00000000e-01)	1399
57              	7.60386528e-05	(1.96867370e+00 1.33966242e-02 5.00000000e-01)	1399	7.60381537e-05	(1.96867370e+00 1.33966242e-02 5.00000000e-01)	1399
58              	7.62177246e-05	(1.96867370e+00 1.33966242e-02 5.00000000e-01)	1399	7.62172282e-05	(1.96867370e+00 1.33966242e-02 5.00000000e-01)	1399
59              	7.63800168e-05	(1.96867370e+00 1.33966242e-02 5.00000000e-01)	1399	7.63795229e-05	(1.96867370e+00 1.33966242e-02 5.00000000e-01)	1399
60              	7.65289878e-05	(1.96867370e+00 1.33966242e-02 5.00000000e-01)	1399	7.65284960e-05	(1.96867370e+00 1.33966242e-02 5.00000000e-01)	1399
61              	7.66633073e-05	(1.96867370e+00 1.33966242e-02 5.00000000e-01)	1399	7.66628175e-05	(1.96867370e+00 1.33966242e-02 5.00000000e-01)	1399
62              	7.67863154e-05	(1.96867370e+00 1.33966242e-02 5.00000000e-01)	1399	7.67858275e-05	(1.96867370e+00 1.33966242e-02 5.00000000e-01)	1399
63              	7.68965635e-05	(1.96867370e+00 1.33966242e-02 5.00000000e-01)	1399	7.68960771e-05	(1.96867370e+00 1.33966242e-02 5.00000000e-01)	1399
64              	7.69972871e-05	(1.96867370e+00 1.33966242e-02 5.00000000e-01)	1399	7.69968022e-05	(1.96867370e+00 1.33966242e-02 5.00000000e-01)	1399
65              	7.70869335e-05	(1.96867370e+00 1.33966242e-02 5.00000000e-01)	1399	7.70864499e-05	(1.96867370e+00 1.33966242e-02 5.00000000e-01)	1399
66              	7.71686459e-05	(1.96867370e+00 1.33966242e-02 5.00000000e-01)	1399	7.71681636e-05	(1.96867370e+00 1.33966242e-02 5.00000000e-01)	1399
67              	7.72407787e-05	(1.96867370e+00 1.33966242e-02 5.00000000e-01)	1399	7.72402975e-05	(1.96867370e+00 1.33966242e-02 5.00000000e-01)	1399
68              	7.73063928e-05	(1.96867370e+00 1.33966242e-02 5.00000000e-01)	1399	7.73059125e-05	(1.96867370e+00 1.33966242e-02 5.00000000e-01)	1399
69              	7.73637589e-05	(1.96867370e+00 1.33966242e-02 5.00000000e-01)	1399	7.73632794e-05	(1.96867370e+00 1.33966242e-02 5.00000000e-01)	1399
70              	7.74158629e-05	(1.96867370e+00 1.33966242e-02 5.00000000e-01)	1399	7.74153842e-05	(1.96867370e+00 1.33966242e-02 5.00000000e-01)	1399
71              	7.74608994e-05	(1.96867370e+00 1.33966242e-02 5.00000000e-01)	1399	7.74604214e-05	(1.96867370e+00 1.33966242e-02 5.00000000e-01)	1399
72              	7.75017849e-05	(1.96867370e+00 1.33966242e-02 5.00000000e-01)	1399	7.75013074e-05	(1.96867370e+00 1.33966242e-02 5.00000000e-01)	1399
73              	7.75366430e-05	(1.96867370e+00 1.33966242e-02 5.00000000e-01)	1399	7.75361661e-05	(1.96867370e+00 1.33966242e-02 5.00000000e-01)	1399
74              	7.75683243e-05	(1.96867370e+00 1.33966242e-02 5.00000000e-01)	1399	7.75678479e-05	(1.96867370e+00 1.33966242e-02 5.00000000e-01)	1399
75              	7.75948865e-05	(1.96867370e+00 1.33966242e-02 5.00000000e-01)	1399	7.75944105e-05	(1.96867370e+00 1.33966242e-02 5.00000000e-01)	1399
76              	7.76191158e-05	(1.96867370e+00 1.33966242e-02 5.00000000e-01)	1399	7.76186401e-05	(1.96867370e+00 1.33966242e-02 5.00000000e-01)	1399
77              	7.76390078e-05	(1.96867370e+00 1.33966242e-02 5.00000000e-01)	1399	7.76385324e-05	(1.96867370e+00 1.33966242e-02 5.00000000e-01)	1399
78              	7.76572870e-05	(1.96867370e+00 1.33966242e-02 5.00000000e-01)	1399	7.76568119e-05	(1.96867370e+00 1.33966242e-02 5.00000000e-01)	1399
79              	7.76718916e-05	(1.96867370e+00 1.33966242e-02 5.00000000e-01)	1399	7.76714167e-05	(1.96867370e+00 1.33966242e-02 5.00000000e-01)	1399
80              	7.76854894e-05	(1.96867370e+00 1.33966242e-02 5.00000000e-01)	1399	7.76850147e-05	(1.96867370e+00 1.33966242e-02 5.00000000e-01)	1399
81              	7.76959656e-05	(1.96867370e+00 1.33966242e-02 5.00000000e-01)	1399	7.76954911e-05	(1.96867370e+00 1.33966242e-02 5.00000000e-01)	1399
82              	7.77059375e-05	(1.96867370e+00 1.33966242e-02 5.00000000e-01)	1399	7.77054631e-05	(1.96867370e+00 1.33966242e-02 5.00000000e-01)	1399
83              	7.77132432e-05	(1.96867370e+00 1.33966242e-02 5.00000000e-01)	1399	7.77127690e-05	(1.96867370e+00 1.33966242e-02 5.00000000e-01)	1399
84              	7.77204556e-05	(1.96867370e+00 1.33966242e-02 5.00000000e-01)	1399	7.77199815e-05	(1.96867370e+00 1.33966242e-02 5.00000000e-01)	1399
85              	7.77253713e-05	(1.96867370e+00 1.33966242e-02 5.00000000e-01)	1399	7.77248972e-05	(1.96867370e+00 1.33966242e-02 5.00000000e-01)	1399
86              	7.77305245e-05	(1.96867370e+00 1.33966242e-02 5.00000000e-01)	1399	7.77300505e-05	(1.96867370e+00 1.33966242e-02 5.00000000e-01)	1399
87              	7.77336763e-05	(1.96867370e+00 1.33966242e-02 5.00000000e-01)	1399	7.77332023e-05	(1.96867370e+00 1.33966242e-02 5.00000000e-01)	1399
88              	7.77373280e-05	(1.96867370e+00 1.33966242e-02 5.00000000e-01)	1399	7.77368542e-05	(1.96867370e+00 1.33966242e-02 5.00000000e-01)	1399
89              	7.77392108e-05	(1.96867370e+00 1.33966242e-02 5.00000000e-01)	1399	7.77387370e-05	(1.96867370e+00 1.33966242e-02 5.00000000e-01)	1399
90              	7.77417979e-05	(1.96867370e+00 1.33966242e-02 5.00000000e-01)	1399	7.77413241e-05	(1.96867370e+00 1.33966242e-02 5.00000000e-01)	1399
91              	7.77427948e-05	(1.96867370e+00 1.33966242e-02 5.00000000e-01)	1399	7.77423211e-05	(1.96867370e+00 1.33966242e-02 5.00000000e-01)	1399
92              	7.77446509e-05	(1.96867370e+00 1.33966242e-02 5.00000000e-01)	1399	7.77441771e-05	(1.96867370e+00 1.33966242e-02 5.00000000e-01)	1399
93              	7.77450497e-05	(1.96867370e+00 1.33966242e-02 5.00000000e-01)	1399	7.77445760e-05	(1.96867370e+00 1.33966242e-02 5.00000000e-01)	1399
94              	7.77464204e-05	(1.96867370e+00 1.33966242e-02 5.00000000e-01)	1399	7.77459467e-05	(1.96867370e+00 1.33966242e-02 5.00000000e-01)	1399
95              	7.77464290e-05	(1.96867370e+00 1.33966242e-02 5.00000000e-01)	1399	7.77459553e-05	(1.96867370e+00 1.33966242e-02 5.00000000e-01)	1399
96              	7.77474875e-05	(1.96867370e+00 1.33966242e-02 5.00000000e-01)	1399	7.77470138e-05	(1.96867370e+00 1.33966242e-02 5.00000000e-01)	1399
97              	7.77472488e-05	(1.96867370e+00 1.33966242e-02 5.00000000e-01)	1399	7.77467751e-05	(1.96867370e+00 1.33966242e-02 5.00000000e-01)	1399
98              	7.77481101e-05	(1.96867370e+00 1.33966242e-02 5.00000000e-01)	1399	7.77476364e-05	(1.96867370e+00 1.33966242e-02 5.00000000e-01)	1399
99              	7.77477152e-05	(1.96867370e+00 1.33966242e-02 5.00000000e-01)	1399	7.77472416e-05	(1.96867370e+00 1.33966242e-02 5.00000000e-01)	1399
100             	7.77484510e-05	(1.96867370e+00 1.33966242e-02 5.00000000e-01)	1399	7.77479773e-05	(1.96867370e+00 1.33966242e-02 5.00000000e-01)	1399
101             	7.77479552e-05	(1.96867370e+00 1.33966242e-02 5.00000000e-01)	1399	7.77474815e-05	(1.96867370e+00 1.33966242e-02 5.00000000e-01)	1399
102             	7.77486084e-05	(1.96867370e+00 1.33966242e-02 5.00000000e-01)	1399	7.77481347e-05	(1.96867370e+00 1.33966242e-02 5.00000000e-01)	1399
103             	7.77480452e-05	(1.96867370e+00 1.33966242e-02 5.00000000e-01)	1399	7.77475715e-05	(1.96867370e+00 1.33966242e-02 5.00000000e-01)	1399
104             	7.77486430e-05	(1.96867370e+00 1.33966242e-02 5.00000000e-01)	1399	7.77481693e-05	(1.96867370e+00 1.33966242e-02 5.00000000e-01)	1399
105             	7.77480346e-05	(1.96867370e+00 1.33966242e-02 5.00000000e-01)	1399	7.77475609e-05	(1.96867370e+00 1.33966242e-02 5.00000000e-01)	1399
106             	7.77485963e-05	(1.96867370e+00 1.33966242e-02 5.00000000e-01)	1399	7.77481226e-05	(1.96867370e+00 1.33966242e-02 5.00000000e-01)	1399
107             	7.77479606e-05	(1.96867370e+00 1.33966242e-02 5.00000000e-01)	1399	7.77474869e-05	(1.96867370e+00 1.33966242e-02 5.00000000e-01)	1399
108             	7.77485036e-05	(1.96867370e+00 1.33966242e-02 5.00000000e-01)	1399	7.77480300e-05	(1.96867370e+00 1.33966242e-02 5.00000000e-01)	1399
109             	7.77478583e-05	(1.96867370e+00 1.33966242e-02 5.00000000e-01)	1399	7.77473846e-05	(1.96867370e+00 1.33966242e-02 5.00000000e-01)	1399
110             	7.77484006e-05	(1.96867370e+00 1.33966242e-02 5.00000000e-01)	1399	7.77479269e-05	(1.96867370e+00 1.33966242e-02 5.00000000e-01)	1399
111             	7.77477631e-05	(1.96867370e+00 1.33966242e-02 5.00000000e-01)	1399	7.77472895e-05	(1.96867370e+00 1.33966242e-02 5.00000000e-01)	1399
112             	7.77483207e-05	(1.96867370e+00 1.33966242e-02 5.00000000e-01)	1399	7.77478470e-05	(1.96867370e+00 1.33966242e-02 5.00000000e-01)	1399
113             	7.77477042e-05	(1.96867370e+00 1.33966242e-02 5.00000000e-01)	1399	7.77472306e-05	(1.96867370e+00 1.33966242e-02 5.00000000e-01)	1399
114             	7.77482863e-05	(1.96867370e+00 1.33966242e-02 5.00000000e-01)	1399	7.77478126e-05	(1.96867370e+00 1.33966242e-02 5.00000000e-01)	1399
115             	7.77476958e-05	(1.96867370e+00 1.33966242e-02 5.00000000e-01)	1399	7.77472221e-05	(1.96867370e+00 1.33966242e-02 5.00000000e-01)	1399
116             	7.77483032e-05	(1.96867370e+00 1.33966242e-02 5.00000000e-01)	1399	7.77478295e-05	(1.96867370e+00 1.33966242e-02 5.00000000e-01)	1399
117             	7.77477359e-05	(1.96867370e+00 1.33966242e-02 5.00000000e-01)	1399	7.77472622e-05	(1.96867370e+00 1.33966242e-02 5.00000000e-01)	1399
118             	7.77483631e-05	(1.96867370e+00 1.33966242e-02 5.00000000e-01)	1399	7.77478894e-05	(1.96867370e+00 1.33966242e-02 5.00000000e-01)	1399
119             	7.77478119e-05	(1.96867370e+00 1.33966242e-02 5.00000000e-01)	1399	7.77473382e-05	(1.96867370e+00 1.33966242e-02 5.00000000e-01)	1399
120             	7.77484507e-05	(1.96867370e+00 1.33966242e-02 5.00000000e-01)	1399	7.77479771e-05	(1.96867370e+00 1.33966242e-02 5.00000000e-01)	1399
121             	7.77479070e-05	(1.96867370e+00 1.33966242e-02 5.00000000e-01)	1399	7.77474333e-05	(1.96867370e+00 1.33966242e-02 5.00000000e-01)	1399
122             	7.77485485e-05	(1.96867370e+00 1.33966242e-02 5.00000000e-01)	1399	7.77480749e-05	(1.96867370e+00 1.33966242e-02 5.00000000e-01)	1399
123             	7.77480034e-05	(1.96867370e+00 1.33966242e-02 5.00000000e-01)	1399	7.77475297e-05	(1.96867370e+00 1.33966242e-02 5.00000000e-01)	1399
124             	7.77486379e-05	(1.96867370e+00 1.33966242e-02 5.00000000e-01)	1399	7.77481642e-05	(1.96867370e+00 1.33966242e-02 5.00000000e-01)	1399
125             	7.77480816e-05	(1.96867370e+00 1.33966242e-02 5.00000000e-01)	1399	7.77476079e-05	(1.96867370e+00 1.33966242e-02 5.00000000e-01)	1399
126             	7.77486972e-05	(1.96867370e+00 1.33966242e-02 5.00000000e-01)	1399	7.77482236e-05	(1.96867370e+00 1.33966242e-02 5.00000000e-01)	1399
127             	7.77481171e-05	(1.96867370e+00 1.33966242e-02 5.00000000e-01)	1399	7.77476434e-05	(1.96867370e+00 1.33966242e-02 5.00000000e-01)	1399
128             	7.77487020e-05	(1.96867370e+00 1.33966242e-02 5.00000000e-01)	1399	7.77482284e-05	(1.96867370e+00 1.33966242e-02 5.00000000e-01)	1399
129             	7.77480868e-05	(1.96867370e+00 1.33966242e-02 5.00000000e-01)	1399	7.77476132e-05	(1.96867370e+00 1.33966242e-02 5.00000000e-01)	1399
130             	7.77486337e-05	(1.96867370e+00 1.33966242e-02 5.00000000e-01)	1399	7.77481600e-05	(1.96867370e+00 1.33966242e-02 5.00000000e-01)	1399
131             	7.77479802e-05	(1.96867370e+00 1.33966242e-02 5.00000000e-01)	1399	7.77475065e-05	(1.96867370e+00 1.33966242e-02 5.00000000e-01)	1399
132             	7.77484910e-05	(1.96867370e+00 1.33966242e-02 5.00000000e-01)	1399	7.77480173e-05	(1.96867370e+00 1.33966242e-02 5.00000000e-01)	1399
133             	7.77478065e-05	(1.96867370e+00 1.33966242e-02 5.00000000e-01)	1399	7.77473328e-05	(1.96867370e+00 1.33966242e-02 5.00000000e-01)	1399
134             	7.77482933e-05	(1.96867370e+00 1.33966242e-02 5.00000000e-01)	1399	7.77478196e-05	(1.96867370e+00 1.33966242e-02 5.00000000e-01)	1399
135             	7.77475941e-05	(1.96867370e+00 1.33966242e-02 5.00000000e-01)	1399	7.77471204e-05	(1.96867370e+00 1.33966242e-02 5.00000000e-01)	1399
136             	7.77480772e-05	(1.96867370e+00 1.33966242e-02 5.00000000e-01)	1399	7.77476035e-05	(1.96867370e+00 1.33966242e-02 5.00000000e-01)	1399
137             	7.77473864e-05	(1.96867370e+00 1.33966242e-02 5.00000000e-01)	1399	7.77469127e-05	(1.96867370e+00 1.33966242e-02 5.00000000e-01)	1399
138             	7.77478899e-05	(1.96867370e+00 1.33966242e-02 5.00000000e-01)	1399	7.77474162e-05	(1.96867370e+00 1.33966242e-02 5.00000000e-01)	1399
139             	7.77472303e-05	(1.96867370e+00 1.33966242e-02 5.00000000e-01)	1399	7.77467566e-05	(1.96867370e+00 1.33966242e-02 5.00000000e-01)	1399
140             	7.77477738e-05	(1.96867370e+00 1.33966242e-02 5.00000000e-01)	1399	7.77473001e-05	(1.96867370e+00 1.33966242e-02 5.00000000e-01)	1399
141             	7.77471601e-05	(1.96867370e+00 1.33966242e-02 5.00000000e-01)	1399	7.77466865e-05	(1.96867370e+00 1.33966242e-02 5.00000000e-01)	1399
142             	7.77477524e-05	(1.96867370e+00 1.33966242e-02 5.00000000e-01)	1399	7.77472787e-05	(1.96867370e+00 1.33966242e-02 5.00000000e-01)	1399
143             	7.77471872e-05	(1.96867370e+00 1.33966242e-02 5.00000000e-01)	1399	7.77467135e-05	(1.96867370e+00 1.33966242e-02 5.00000000e-01)	1399
144             	7.77478250e-05	(1.96867370e+00 1.33966242e-02 5.00000000e-01)	1399	7.77473513e-05	(1.96867370e+00 1.33966242e-02 5.00000000e-01)	1399
145             	7.77473004e-05	(1.96867370e+00 1.33966242e-02 5.00000000e-01)	1399	7.77468267e-05	(1.96867370e+00 1.33966242e-02 5.00000000e-01)	1399
146             	7.77479724e-05	(1.96867370e+00 1.33966242e-02 5.00000000e-01)	1399	7.77474987e-05	(1.96867370e+00 1.33966242e-02 5.00000000e-01)	1399
147             	7.77474750e-05	(1.96867370e+00 1.33966242e-02 5.00000000e-01)	1399	7.77470013e-05	(1.96867370e+00 1.33966242e-02 5.00000000e-01)	1399
148             	7.77481669e-05	(1.96867370e+00 1.33966242e-02 5.00000000e-01)	1399	7.77476932e-05	(1.96867370e+00 1.33966242e-02 5.00000000e-01)	1399
149             	7.77476824e-05	(1.96867370e+00 1.33966242e-02 5.00000000e-01)	1399	7.77472088e-05	(1.96867370e+00 1.33966242e-02 5.00000000e-01)	1399
150             	7.77483805e-05	(1.96867370e+00 1.33966242e-02 5.00000000e-01)	1399	7.77479068e-05	(1.96867370e+00 1.33966242e-02 5.00000000e-01)	1399
151             	7.77478961e-05	(1.96867370e+00 1.33966242e-02 5.00000000e-01)	1399	7.77474224e-05	(1.96867370e+00 1.33966242e-02 5.00000000e-01)	1399
152             	7.77485886e-05	(1.96867370e+00 1.33966242e-02 5.00000000e-01)	1399	7.77481150e-05	(1.96867370e+00 1.33966242e-02 5.00000000e-01)	1399
153             	7.77480939e-05	(1.96867370e+00 1.33966242e-02 5.00000000e-01)	1399	7.77476202e-05	(1.96867370e+00 1.33966242e-02 5.00000000e-01)	1399
154             	7.77487721e-05	(1.96867370e+00 1.33966242e-02 5.00000000e-01)	1399	7.77482984e-05	(1.96867370e+00 1.33966242e-02 5.00000000e-01)	1399
155             	7.77482599e-05	(1.96867370e+00 1.33966242e-02 5.00000000e-01)	1399	7.77477862e-05	(1.96867370e+00 1.33966242e-02 5.00000000e-01)	1399
156             	7.77489183e-05	(1.96867370e+00 1.33966242e-02 5.00000000e-01)	1399	7.77484446e-05	(1.96867370e+00 1.33966242e-02 5.00000000e-01)	1399
157             	7.77483849e-05	(1.96867370e+00 1.33966242e-02 5.00000000e-01)	1399	7.77479112e-05	(1.96867370e+00 1.33966242e-02 5.00000000e-01)	1399
158             	7.77490214e-05	(1.96867370e+00 1.33966242e-02 5.00000000e-01)	1399	7.77485477e-05	(1.96867370e+00 1.33966242e-02 5.00000000e-01)	1399
159             	7.77484662e-05	(1.96867370e+00 1.33966242e-02 5.00000000e-01)	1399	7.77479926e-05	(1.96867370e+00 1.33966242e-02 5.00000000e-01)	1399
160             	7.77490817e-05	(1.96867370e+00 1.33966242e-02 5.00000000e-01)	1399	7.77486080e-05	(1.96867370e+00 1.33966242e-02 5.00000000e-01)	1399
161             	7.77485067e-05	(1.96867370e+00 1.33966242e-02 5.00000000e-01)	1399	7.77480331e-05	(1.96867370e+00 1.33966242e-02 5.00000000e-01)	1399
162             	7.77491039e-05	(1.96867370e+00 1.33966242e-02 5.00000000e-01)	1399	7.77486303e-05	(1.96867370e+00 1.33966242e-02 5.00000000e-01)	1399
163             	7.77485126e-05	(1.96867370e+00 1.33966242e-02 5.00000000e-01)	1399	7.77480389e-05	(1.96867370e+00 1.33966242e-02 5.00000000e-01)	1399
164             	7.77490950e-05	(1.96867370e+00 1.33966242e-02 5.00000000e-01)	1399	7.77486213e-05	(1.96867370e+00 1.33966242e-02 5.00000000e-01)	1399
165             	7.77484907e-05	(1.96867370e+00 1.33966242e-02 5.00000000e-01)	1399	7.77480170e-05	(1.96867370e+00 1.33966242e-02 5.00000000e-01)	1399
166             	7.77490615e-05	(1.96867370e+00 1.33966242e-02 5.00000000e-01)	1399	7.77485878e-05	(1.96867370e+00 1.33966242e-02 5.00000000e-01)	1399
167             	7.77484468e-05	(1.96867370e+00 1.33966242e-02 5.00000000e-01)	1399	7.77479731e-05	(1.96867370e+00 1.33966242e-02 5.00000000e-01)	1399
168             	7.77490078e-05	(1.96867370e+00 1.33966242e-02 5.00000000e-01)	1399	7.77485342e-05	(1.96867370e+00 1.33966242e-02 5.00000000e-01)	1399
169             	7.77483843e-05	(1.96867370e+00 1.33966242e-02 5.00000000e-01)	1399	7.77479106e-05	(1.96867370e+00 1.33966242e-02 5.00000000e-01)	1399
170             	7.77489363e-05	(1.96867370e+00 1.33966242e-02 5.00000000e-01)	1399	7.77484627e-05	(1.96867370e+00 1.33966242e-02 5.00000000e-01)	1399
171             	7.77483043e-05	(1.96867370e+00 1.33966242e-02 5.00000000e-01)	1399	7.77478307e-05	(1.96867370e+00 1.33966242e-02 5.00000000e-01)	1399
172             	7.77488464e-05	(1.96867370e+00 1.33966242e-02 5.00000000e-01)	1399	7.77483727e-05	(1.96867370e+00 1.33966242e-02 5.00000000e-01)	1399
173             	7.77482043e-05	(1.96867370e+00 1.33966242e-02 5.00000000e-01)	1399	7.77477306e-05	(1.96867370e+00 1.33966242e-02 5.00000000e-01)	1399
174             	7.77487308e-05	(1.96867370e+00 1.33966242e-02 5.00000000e-01)	1399	7.77482571e-05	(1.96867370e+00 1.33966242e-02 5.00000000e-01)	1399
175             	7.77480710e-05	(1.96867370e+00 1.33966242e-02 5.00000000e-01)	1399	7.77475973e-05	(1.96867370e+00 1.33966242e-02 5.00000000e-01)	1399
176             	7.77485740e-05	(1.96867370e+00 1.33966242e-02 5.00000000e-01)	1399	7.77481003e-05	(1.96867370e+00 1.33966242e-02 5.00000000e-01)	1399
177             	7.77478878e-05	(1.96867370e+00 1.33966242e-02 5.00000000e-01)	1399	7.77474141e-05	(1.96867370e+00 1.33966242e-02 5.00000000e-01)	1399
178             	7.77483621e-05	(1.96867370e+00 1.33966242e-02 5.00000000e-01)	1399	7.77478884e-05	(1.96867370e+00 1.33966242e-02 5.00000000e-01)	1399
179             	7.77476484e-05	(1.96867370e+00 1.33966242e-02 5.00000000e-01)	1399	7.77471747e-05	(1.96867370e+00 1.33966242e-02 5.00000000e-01)	1399
180             	7.77480988e-05	(1.96867370e+00 1.33966242e-02 5.00000000e-01)	1399	7.77476251e-05	(1.96867370e+00 1.33966242e-02 5.00000000e-01)	1399
181             	7.77473681e-05	(1.96867370e+00 1.33966242e-02 5.00000000e-01)	1399	7.77468944e-05	(1.96867370e+00 1.33966242e-02 5.00000000e-01)	1399
182             	7.77478108e-05	(1.96867370e+00 1.33966242e-02 5.00000000e-01)	1399	7.77473372e-05	(1.96867370e+00 1.33966242e-02 5.00000000e-01)	1399
183             	7.77470840e-05	(1.96867370e+00 1.33966242e-02 5.00000000e-01)	1399	7.77466103e-05	(1.96867370e+00 1.33966242e-02 5.00000000e-01)	1399
184             	7.77475433e-05	(1.96867370e+00 1.33966242e-02 5.00000000e-01)	1399	7.77470697e-05	(1.96867370e+00 1.33966242e-02 5.00000000e-01)	1399
185             	7.77468462e-05	(1.96867370e+00 1.33966242e-02 5.00000000e-01)	1399	7.77463725e-05	(1.96867370e+00 1.33966242e-02 5.00000000e-01)	1399
186             	7.77473472e-05	(1.96867370e+00 1.33966242e-02 5.00000000e-01)	1399	7.77468736e-05	(1.96867370e+00 1.33966242e-02 5.00000000e-01)	1399
187             	7.77467016e-05	(1.96867370e+00 1.33966242e-02 5.00000000e-01)	1399	7.77462279e-05	(1.96867370e+00 1.33966242e-02 5.00000000e-01)	1399
188             	7.77472608e-05	(1.96867370e+00 1.33966242e-02 5.00000000e-01)	1399	7.77467871e-05	(1.96867370e+00 1.33966242e-02 5.00000000e-01)	1399
189             	7.77466761e-05	(1.96867370e+00 1.33966242e-02 5.00000000e-01)	1399	7.77462024e-05	(1.96867370e+00 1.33966242e-02 5.00000000e-01)	1399
190             	7.77472953e-05	(1.96867370e+00 1.33966242e-02 5.00000000e-01)	1399	7.77468216e-05	(1.96867370e+00 1.33966242e-02 5.00000000e-01)	1399
191             	7.77467666e-05	(1.96867370e+00 1.33966242e-02 5.00000000e-01)	1399	7.77462929e-05	(1.96867370e+00 1.33966242e-02 5.00000000e-01)	1399
192             	7.77474351e-05	(1.96867370e+00 1.33966242e-02 5.00000000e-01)	1399	7.77469614e-05	(1.96867370e+00 1.33966242e-02 5.00000000e-01)	1399
193             	7.77469472e-05	(1.96867370e+00 1.33966242e-02 5.00000000e-01)	1399	7.77464735e-05	(1.96867370e+00 1.33966242e-02 5.00000000e-01)	1399
194             	7.77476472e-05	(1.96867370e+00 1.33966242e-02 5.00000000e-01)	1399	7.77471735e-05	(1.96867370e+00 1.33966242e-02 5.00000000e-01)	1399
195             	7.77471816e-05	(1.96867370e+00 1.33966242e-02 5.00000000e-01)	1399	7.77467079e-05	(1.96867370e+00 1.33966242e-02 5.00000000e-01)	1399
196             	7.77478949e-05	(1.96867370e+00 1.33966242e-02 5.00000000e-01)	1399	7.77474212e-05	(1.96867370e+00 1.33966242e-02 5.00000000e-01)	1399
197             	7.77474342e-05	(1.96867370e+00 1.33966242e-02 5.00000000e-01)	1399	7.77469605e-05	(1.96867370e+00 1.33966242e-02 5.00000000e-01)	1399