#      distance             U_x             U_y             U_z wallShearStr... wallShearStr... wallShearStr...               p             nut         nuTilda
  3.0219182e-06     0.018923242   2.5964335e-09  -3.5057963e-23               0               0               0   0.00023618317   3.2081151e-12   4.3910897e-08
  5.0865428e-06      0.03185425   6.5877103e-09  -1.4912463e-23               0               0               0   0.00023618338   1.5900268e-11   7.3911652e-08
  7.2269684e-06     0.045257819   1.2974049e-08  -3.8406001e-23               0               0               0   0.00023618359   5.4321647e-11   1.0500871e-07
  9.4750924e-06     0.059330484   2.2113615e-08  -5.7602841e-23               0               0               0   0.00023618381   1.4792426e-10   1.3766315e-07
  1.1864417e-05     0.074275136   3.4513119e-08  -2.4420305e-23               0               0               0   0.00023618404   3.4786955e-10   1.7235861e-07
  1.4430548e-05     0.090300685   5.0901871e-08   7.9581699e-23               0               0               0   0.00023618429   7.4069944e-10    2.096082e-07
  1.7211727e-05        0.107619   7.2240069e-08   1.2980504e-22               0               0               0   0.00023618457   1.4705435e-09     2.49962e-07
  2.0249401e-05      0.12643694   9.9751848e-08   2.7327046e-23               0               0               0   0.00023618487    2.774523e-09   2.9401549e-07
  2.3588836e-05       0.1469401   1.3496499e-07  -3.5345652e-23               0               0               0   0.00023618522   5.0382185e-09    3.424197e-07
  2.7279799e-05       0.1692635   1.7973618e-07  -1.7672826e-23               0               0               0   0.00023618563   8.8808047e-09   3.9589445e-07
  3.1377293e-05      0.19344429    2.362364e-07               0               0               0               0   0.00023618612   1.5282226e-08   4.5524649e-07
  3.5942381e-05      0.21935575    3.068623e-07   8.6360619e-23               0               0               0   0.00023618674   2.5765736e-08   5.2139403e-07
  4.1043091e-05      0.24663436   3.9404098e-07   1.2952707e-22               0               0               0   0.00023618756   4.2642772e-08   5.9539469e-07
  4.6755437e-05      0.27463515   4.9993682e-07    1.506146e-22               0               0               0   0.00023618867   6.9300087e-08   6.7846453e-07
  5.3164546e-05       0.3024699   6.2616657e-07   1.6115497e-22               0               0               0   0.00023619023   1.1044179e-07   7.7196566e-07
  6.0365928e-05      0.32916426   7.7372748e-07  -2.2660251e-22               0               0               0   0.00023619246   1.7209629e-07   8.7735397e-07
    6.84669e-05      0.35389352   9.4330107e-07  -4.9200324e-22               0               0               0   0.00023619561   2.6114729e-07   9.9612674e-07
  7.7588184e-05      0.37617836   1.1358525e-06  -2.5944702e-22               0               0               0   0.00023619997   3.8428621e-07   1.1298393e-06
   8.786571e-05      0.39593607   1.3532145e-06   4.4309471e-23               0               0               0    0.0002362058   5.4661881e-07   1.2802068e-06
  9.9452634e-05      0.41338922    1.598394e-06     2.43269e-22               0               0               0   0.00023621329   7.5048938e-07   1.4492283e-06
  0.00011252163       0.4289177   1.8755903e-06   6.7526915e-23               0               0               0    0.0002362225   9.9514351e-07   1.6392691e-06
  0.00012726745      0.44293467   2.1900857e-06  -1.0541337e-22               0               0               0   0.00023623344   1.2775025e-06   1.8530929e-06
  0.00014390985       0.4558148   2.5481501e-06  -2.1733883e-23               0               0               0   0.00023624604   1.5937352e-06   2.0938696e-06
  0.00016269684      0.46786653   2.9570208e-06    5.972469e-23               0               0               0   0.00023626026   1.9409145e-06   2.3651837e-06
  0.00018390838      0.47932956   3.4249618e-06   4.3898067e-22               0               0               0   0.00023627616   2.3181355e-06    2.671054e-06
  0.00020786057      0.49038356   3.9613867e-06   5.3897036e-22               0               0               0   0.00023629384   2.7268932e-06   3.0159664e-06
  0.00023491035      0.50115996   4.5770325e-06   1.5971438e-22               0               0               0   0.00023631355   3.1709001e-06   3.4049191e-06
  0.00026546084      0.51175333   5.2841716e-06               0               0               0               0    0.0002363356    3.655657e-06   3.8434757e-06
   0.0002999673      0.52223082   6.0968621e-06               0               0               0               0   0.00023636039   4.1880173e-06    4.337824e-06
  0.00033894396      0.53263974   7.0312389e-06  -1.7212741e-22               0               0               0   0.00023638839   4.7758624e-06   4.8948345e-06
  0.00038297165      0.54301324   8.1058551e-06  -3.4425483e-22               0               0               0   0.00023642014   5.4279066e-06   5.5221169e-06
  0.00043270649      0.55337458   9.3420823e-06   6.9010656e-22               0               0               0   0.00023645626   6.1536032e-06   6.2280691e-06
  0.00048888965      0.56374026   1.0764586e-05   1.3665562e-21               0               0               0   0.00023649745   6.9631138e-06   7.0219137e-06
  0.00055235838      0.57412232   1.2401891e-05   5.0432227e-22               0               0               0   0.00023654449   7.8673026e-06    7.913715e-06
   0.0006240585      0.58452999   1.4287062e-05               0               0               0               0   0.00023659828   8.8777277e-06   8.9143675e-06
  0.00070505852      0.59497098   1.6458522e-05    2.421456e-22               0               0               0   0.00023665984   1.0006604e-05   1.0035546e-05
  0.00079656552      0.60545238   1.8961048e-05    4.842912e-22               0               0               0   0.00023673034   1.1266716e-05   1.1289601e-05
  0.00089994316      0.61598145   2.1846991e-05    2.421456e-22               0               0               0   0.00023681107   1.2671269e-05   1.2689389e-05
    0.001016732      0.62656616   2.5177765e-05               0               0               0               0   0.00023690352   1.4233646e-05    1.424802e-05
   0.0011486725      0.63721569   2.9025687e-05    9.883415e-22               0               0               0   0.00023700938   1.5967075e-05   1.5978503e-05
   0.0012977308      0.64794091   3.3476249e-05  -7.7170167e-22               0               0               0   0.00023713054   1.7884182e-05   1.7893292e-05
   0.0014661282      0.65875471   3.8630916e-05  -3.4135816e-21               0               0               0   0.00023726912   1.9996435e-05   2.0003722e-05
   0.0016563743      0.66967235   4.4610577e-05  -2.7829472e-21               0               0               0   0.00023742746   2.2313485e-05   2.2319334e-05
   0.0018713042      0.68071176   5.1559783e-05  -1.7319451e-21               0               0               0   0.00023760814   2.4842414e-05   2.4847131e-05
   0.0021141207      0.69189372   5.9651932e-05  -6.0253635e-22               0               0               0   0.00023781394   2.7586929e-05   2.7590752e-05
   0.0023884425      0.70324206   6.9095573e-05  -4.5592378e-22               0               0               0   0.00023804778   3.0546495e-05   3.0549611e-05
   0.0026983575      0.71478376   8.0142057e-05   1.1382976e-21               0               0               0   0.00023831263   3.3715429e-05   3.3717984e-05
   0.0030484842       0.7265489   9.3094743e-05  -2.3908093e-21               0               0               0   0.00023861138   3.7081916e-05   3.7084026e-05
   0.0034440402      0.73857064   0.00010832006  -5.7496646e-21               0               0               0   0.00023894662   4.0626895e-05   4.0628651e-05
   0.0038909203      0.75088503   0.00012626063  -1.7646338e-21               0               0               0    0.0002393203   4.4322712e-05   4.4324186e-05
    0.004395784      0.76353083   0.00014745067   3.8105072e-21               0               0               0   0.00023973327   4.8131461e-05   4.8132709e-05
   0.0049661549      0.77654913   0.00017253411  -4.4967526e-21               0               0               0   0.00024018471    5.200289e-05   5.2003958e-05
   0.0056105328      0.78998284   0.00020228848  -1.4920137e-20               0               0               0   0.00024067183   5.5871818e-05   5.5872742e-05
   0.0063385204      0.80387588   0.00023765923   5.5595461e-21               0               0               0   0.00024118916   5.9654997e-05   5.9655807e-05
   0.0071609664      0.81827183   0.00027978812   2.0299438e-20               0               0               0   0.00024172162   6.3247382e-05   6.3248102e-05
   0.0080901272      0.83321183   0.00032983043   4.7619635e-20               0               0               0   0.00024224457   6.6517766e-05   6.6518416e-05
   0.0091398493      0.84873102   0.00038940711   6.0245106e-20               0               0               0   0.00024272762   6.9303727e-05   6.9304325e-05
    0.010325776      0.86485285   0.00046048929   2.5634665e-20               0               0               0   0.00024312428   7.1405842e-05   7.1406404e-05
     0.01166558      0.88157979    0.0005448987   4.8821835e-21               0               0               0   0.00024336833   7.2581127e-05   7.2581671e-05
    0.013179228      0.89887841   0.00064464415   1.6167668e-20               0               0               0   0.00024336845   7.2535825e-05    7.253637e-05
    0.014889277      0.91665474   0.00076169932   1.3774092e-20               0               0               0   0.00024299543   7.0917904e-05   7.0918475e-05
    0.016821209      0.93471334   0.00089736207    4.088603e-20               0               0               0   0.00024207735   6.7310077e-05   6.7310714e-05
    0.019003816      0.95268759     0.001051115   6.4242391e-20               0               0               0   0.00024039318   6.1224291e-05   6.1225072e-05
    0.021469624       0.9699185    0.0012186003   3.2701644e-20               0               0               0   0.00023769844   5.2091163e-05   5.2092291e-05
    0.024255377      0.98528172    0.0013909072    1.310257e-20               0               0               0   0.00023386297   3.9062039e-05   3.9064527e-05
    0.027402591      0.99668131    0.0015273783   1.3636733e-21               0               0               0   0.00022838829   2.2352243e-05   2.2382432e-05
    0.030958166        1.002352    0.0015888811               0               0               0               0   0.00022123018      8.1252e-06   8.3198517e-06
    0.034975088       1.0037572    0.0015981148               0               0               0               0    0.0002137154   2.2188567e-06    2.651024e-06
    0.039513219       1.0038512    0.0015895676   1.9564147e-20               0               0               0   0.00020659361   1.4432631e-06   1.9776021e-06
    0.044640187       1.0038529     0.001579202   2.7523616e-20               0               0               0   0.00019953341   1.4373114e-06   1.9730849e-06
    0.050432395       1.0038582    0.0015690834   6.1398868e-21               0               0               0   0.00019236008   1.4454173e-06   1.9792184e-06
    0.056976161       1.0038629    0.0015571343  -1.8195462e-21               0               0               0    0.0001851506   1.4518247e-06   1.9840687e-06
    0.064369002       1.0038651    0.0015446628               0               0               0               0   0.00017803364   1.4568973e-06   1.9879105e-06
    0.072721087       1.0038632    0.0015304595               0               0               0               0   0.00017113797    1.461028e-06   1.9910401e-06
    0.082156882       1.0038584     0.001515589               0               0               0               0   0.00016456126   1.4643986e-06   1.9935945e-06
    0.092817002       1.0038509    0.0014994433               0               0               0               0   0.00015838951   1.4679106e-06   1.9962567e-06
