#      distance             U_x             U_y             U_z wallShearStr... wallShearStr... wallShearStr...               p         epsilon               k             nut
    0.001215373       0.6404438   3.8101476e-05  -2.4325257e-20               0               0               0    0.0002471186      0.13704931    0.0042647169   1.5757438e-05
   0.0020572852      0.69662086   6.0750412e-05  -5.5920113e-22               0               0               0   0.00024793264     0.067930725    0.0041767049   2.5505897e-05
   0.0029273097      0.73279288   9.1418814e-05   2.9762596e-21               0               0               0   0.00024875049     0.043794411    0.0040265554   3.4971089e-05
   0.0038263852      0.76028899   0.00012583899   1.2479905e-20               0               0               0   0.00024959435     0.031985495    0.0038978806   4.3964401e-05
   0.0047554818      0.78289387   0.00016364988   2.5381323e-20               0               0               0   0.00025048762      0.02498582    0.0037753163   5.2271922e-05
   0.0057156019      0.80239498   0.00020505867   1.8907002e-20               0               0               0   0.00025141914     0.020331344     0.003651689   5.9768233e-05
   0.0067077814      0.81977402   0.00025027385   9.5856141e-21               0               0               0   0.00025237378     0.016987634    0.0035232898   6.6368046e-05
   0.0077330908      0.83562651   0.00029949743   1.0353385e-20               0               0               0   0.00025334091     0.014446069    0.0033878896   7.2006188e-05
   0.0087926364      0.85033966   0.00035296285  -8.1818584e-21               0               0               0   0.00025431267     0.012427644    0.0032439465   7.6628755e-05
   0.0098875613      0.86417804   0.00041094436  -4.7919268e-20               0               0               0   0.00025527973     0.010766517    0.0030902662   8.0188966e-05
    0.011019047       0.8773286   0.00047358511  -5.8800499e-20               0               0               0   0.00025622679    0.0093578944    0.0029258537   8.2645268e-05
    0.012188314      0.88992588   0.00054110886  -1.5666788e-20               0               0               0   0.00025713786    0.0081323755    0.0027498557   8.3960716e-05
    0.013396624      0.90206661   0.00061391572   2.1489766e-20               0               0               0   0.00025800178    0.0070423739    0.0025615576   8.4103321e-05
    0.014645281      0.91381794    0.0006921221   1.3981982e-20               0               0               0   0.00025880906    0.0060545715    0.0023604246   8.3047409e-05
    0.015935632      0.92522163   0.00077572657  -5.5303786e-22               0               0               0   0.00025954681      0.00514562    0.0021461908   8.0776391e-05
    0.017269069      0.93629487   0.00086473374  -2.6281746e-21               0               0               0   0.00026019677    0.0042997595    0.0019190164   7.7287888e-05
    0.018647031      0.94702759   0.00095889532               0               0               0               0   0.00026073921    0.0035077123    0.0016797548   7.2603204e-05
    0.020071004       0.9573752     0.001057583  -3.6987175e-21               0               0               0   0.00026115576    0.0027665833    0.0014304078   6.6785537e-05
    0.021542526      0.96724414     0.001159547  -3.6987178e-21               0               0               0   0.00026142948    0.0020806961    0.0011749141   5.9976912e-05
    0.023063183      0.97646515    0.0012624797   3.7460709e-21               0               0               0   0.00026154726    0.0014632445   0.00092050684   5.2477385e-05
    0.024634616      0.98475084    0.0013622152   2.7536586e-20               0               0               0   0.00026149806   0.00093762662   0.00067976635    4.491762e-05
    0.026258521      0.99166643    0.0014516685   4.7977163e-20               0               0               0   0.00026125822    0.0005333947   0.00047191722   3.8583445e-05
     0.02793665      0.99675416    0.0015212057   3.1358974e-20               0               0               0   0.00026076604   0.00026827051   0.00031742427   3.5681627e-05
    0.029670814      0.99990439    0.0015657458   7.1723257e-21               0               0               0   0.00025995555   0.00012588338   0.00022326343   3.8714227e-05
    0.031462883       1.0015553    0.0015895478   5.9250219e-21               0               0               0   0.00025885014   6.1927745e-05    0.0001759894   4.8816432e-05
    0.033314791        1.002353    0.0016010689  -4.0799921e-22               0               0               0   0.00025755138   3.5136314e-05    0.0001547119   6.4921112e-05
    0.035228536       1.0027522    0.0016067281  -6.3330225e-21               0               0               0    0.0002561425   2.3136503e-05   0.00014505173    8.480893e-05
    0.037206184       1.0029715    0.0016095567  -2.2851865e-21               0               0               0   0.00025466795   1.7018455e-05   0.00014034999   0.00010647148
    0.039249867       1.0031036     0.001610931  -2.0552743e-20               0               0               0   0.00025314966   1.3499864e-05   0.00013791115   0.00012855291
     0.04136179       1.0031891     0.001611484  -3.6433607e-20               0               0               0   0.00025158801   1.1280116e-05   0.00013660907   0.00015023414
    0.043544233       1.0032472    0.0016115428  -1.8166051e-20               0               0               0   0.00024997473   9.7801158e-06   0.00013592917   0.00017105149
     0.04579955       1.0032882    0.0016112799               0               0               0               0   0.00024830437   8.7124832e-06   0.00013561371   0.00019076784
    0.048130175       1.0033176    0.0016107869  -1.5069544e-20               0               0               0    0.0002465752   7.9212555e-06   0.00013552282   0.00020928994
    0.050538621       1.0033388    0.0016101192  -2.8202945e-20               0               0               0   0.00024478624   7.3154543e-06   0.00013557525    0.0002266157
    0.053027488       1.0033541    0.0016093147    -1.31334e-20               0               0               0   0.00024293656     6.83881e-06   0.00013572133   0.00024280128
    0.055599461       1.0033648    0.0016084016  -1.2322822e-20               0               0               0   0.00024102563   6.4548119e-06   0.00013592937   0.00025793846
    0.058257315       1.0033723    0.0016074013  -3.6814199e-20               0               0               0   0.00023905365    6.138812e-06   0.00013617824   0.00027213889
    0.061003917       1.0033772     0.001606329  -2.8846448e-20               0               0               0    0.0002370224   5.8736161e-06   0.00013645348   0.00028552409
    0.063842231       1.0033802    0.0016051922   7.6956232e-21               0               0               0   0.00023493413      5.6469e-06   0.00013674502   0.00029821838
     0.06677532       1.0033817    0.0016039924   2.8458619e-20               0               0               0   0.00023278852    5.449634e-06   0.00013704571   0.00031034406
    0.069806347       1.0033821    0.0016027313   2.8290086e-20               0               0               0   0.00023058201   5.2750851e-06   0.00013735046   0.00032201824
    0.072938584       1.0033816    0.0016014009   1.6745458e-20               0               0               0   0.00022830844    5.118166e-06   0.00013765565   0.00033335076
    0.076175409       1.0033802    0.0015999856   4.8632985e-21               0               0               0   0.00022596069   4.9749958e-06   0.00013795873   0.00034444303
    0.079520315       1.0033782    0.0015985014               0               0               0               0   0.00022354241   4.8425963e-06   0.00013825794   0.00035538748
    0.082976911       1.0033757    0.0015969519   5.7875253e-21               0               0               0   0.00022107406   4.7186753e-06   0.00013855213   0.00036626747
    0.086548926        1.003373    0.0015953245  -2.7715564e-21               0               0               0   0.00021857853   4.6014682e-06   0.00013884059   0.00037715754
    0.090240215       1.0033708    0.0015935745  -2.7424235e-21               0               0               0   0.00021606121   4.4896192e-06   0.00013912294   0.00038812397
     0.09405476       1.0033697    0.0015916569    2.421685e-20               0               0               0   0.00021350511   4.3820908e-06   0.00013939904   0.00039922553
