#             y             U_x             U_y             U_z             nut               k         epsilon
   3.113662e-05     0.064789539   1.8954388e-06               0   9.6487299e-17   2.5590003e-10   4.0206615e-06
  5.3394177e-05       0.1106821   5.0649844e-06               0   5.7932553e-16    8.268758e-10     4.35406e-06
  7.7022295e-05      0.15938605   1.0275026e-05               0   2.1645251e-15   2.0485969e-09   6.2839034e-06
  0.00010210537      0.21107219   1.7880709e-05               0   6.1352212e-15   4.3245647e-09   9.4955178e-06
  0.00012873299      0.26592128   2.8267112e-05               0    1.471346e-14   8.2661305e-09    1.425281e-05
  0.00015700027      0.32412446   4.1898564e-05               0     3.17635e-14   1.4814763e-08   2.1062748e-05
  0.00018700818      0.38588364   5.9306271e-05               0   6.3987714e-14   2.5426157e-08   3.0686145e-05
  0.00021886389      0.45141182   8.1093857e-05               0   1.2296216e-13   4.2354992e-08   4.4216161e-05
  0.00025268119      0.52093341   0.00010794766               0   2.2862604e-13   6.9098257e-08   6.3205809e-05
  0.00028858087      0.59468436   0.00014064759               0   4.1527666e-13   1.1108711e-07    8.985474e-05
  0.00032669115      0.67291212   0.00018007873               0   7.4188178e-13   1.7676783e-07   0.00012727677
  0.00036714817      0.75587549   0.00022724392               0   1.3098352e-12    2.792911e-07   0.00017988007
  0.00041009642      0.84384401   0.00028327748               0    2.293543e-12   4.3915076e-07   0.00025390474
  0.00045568931       0.9370971   0.00034945991               0   3.9931077e-12   6.8829946e-07   0.00035817904
  0.00050408968       1.0359226    0.0004272335               0   6.9249934e-12   1.0765504e-06    0.0005051758
  0.00055547043       1.1406145   0.00051821844               0   1.1977755e-11   1.6814937e-06   0.00071247514
  0.00061001506       1.2514703    0.0006242289               0   2.0678668e-11   2.6237624e-06    0.0010047642
   0.0006679184       1.3687863    0.0007472885               0   3.5648063e-11   4.0903361e-06    0.0014165252
  0.00072938728       1.4928523   0.00088964365               0   6.1368314e-11   6.3696992e-06    0.0019955644
  0.00079464125       1.6239442    0.0010537738               0   1.0547366e-10   9.9040529e-06    0.0028074903
  0.00086391338       1.7623138    0.0012423951               0   1.8088809e-10   1.5365206e-05    0.0039411192
   0.0009374511       1.9081762    0.0014584559               0   3.0931512e-10   2.3761685e-05     0.005514491
   0.0010155171       2.0616939    0.0017051184               0   5.2682602e-10   3.6583771e-05    0.0076806193
   0.0010983902       2.2229559    0.0019857219               0   8.9259698e-10   5.5988259e-05     0.010631136
   0.0011863663       2.3919525    0.0023037191               0   1.5021745e-09   8.5011801e-05     0.014594506
   0.0012797599       2.5685444    0.0026625781               0   2.5068987e-09   0.00012777492     0.019823491
   0.0013789043       2.7524254    0.0030656386               0   4.1410374e-09   0.00018959141     0.026564451
   0.0014841538       2.9430795    0.0035159102               0   6.7571261e-09   0.00027682565     0.035000555
   0.0015958843       3.1397322    0.0040158009               0   1.0865956e-08   0.00039625084     0.045165784
   0.0017144948       3.3412996     0.004566768               0   1.7164797e-08   0.00055359748     0.056843592
    0.001840409       3.5463386     0.005168887               0   2.6504258e-08   0.00075106439     0.069495257
   0.0019740768       3.7530075    0.0058203536               0   3.9693562e-08   0.00098404268      0.08227909
   0.0021159754       3.9590482    0.0065169553               0   5.7073357e-08    0.0012384098     0.094155898
   0.0022666117       4.1618047    0.0072515769               0   7.8061531e-08    0.0014909784      0.10398403
   0.0024265239       4.3582847    0.0080138137               0   1.0119193e-07    0.0017151365      0.11061688
    0.002596283         4.54527    0.0087897778               0   1.2488832e-07    0.0018901688       0.1131869
   0.0027764954       4.7194785    0.0095622241               0   1.4854618e-07    0.0020091792       0.1115272
   0.0029678048       4.8777857     0.010311164               0   1.7343322e-07    0.0020810252       0.1062916
   0.0031708945       5.0175019     0.011015126               0   2.0310498e-07    0.0021255248     0.098664645
     0.00338649       5.1366851     0.011653143               0   2.4355347e-07      0.00216525     0.089915139
   0.0036153613       5.2344326     0.012207275               0   3.0362751e-07    0.0022182254     0.081036156
   0.0038583258       5.3110744     0.012665231               0   3.9560282e-07    0.0022937173     0.072644133
   0.0041162514       5.3681925     0.013022415               0   5.3431989e-07    0.0023912272     0.065089679
   0.0043900594       5.4084295     0.013282735               0   7.3116569e-07    0.0025021034     0.058633243
   0.0046807278        5.435095     0.013457685               0   9.8066557e-07    0.0026131754     0.053522887
   0.0049892948       5.4516567     0.013563618               0   1.2494164e-06    0.0027114277     0.049908258
   0.0053168625       5.4612605     0.013618231               0   1.4870376e-06    0.0027880969     0.047701674
   0.0056646009       5.4664279     0.013637449               0   1.6571893e-06     0.002840644     0.046571719
   0.0060337521       5.4689767     0.013633822               0   1.7564171e-06    0.0028720599     0.046098578
   0.0064256347        5.470101     0.013616423               0   1.8043067e-06     0.002888302     0.045942181
   0.0068416484        5.470517     0.013590999               0   1.8237153e-06    0.0028954808     0.045904336
    0.007283279       5.4706121     0.013560764               0   1.8303434e-06    0.0028981424     0.045898935
   0.0077521041       5.4705726     0.013527218               0    1.832224e-06    0.0028989322     0.045898582
   0.0082497982       5.4704776     0.013491085               0   1.8326442e-06    0.0028990841     0.045897732
    0.008778139       5.4703576     0.013452576               0   1.8327001e-06    0.0028990606     0.045896234
   0.0093390136       5.4702236     0.013411575               0    1.832687e-06    0.0028989989     0.045894458
   0.0099344254       5.4700786     0.013368009               0   1.8326665e-06    0.0028989301     0.045892555
    0.010566501       5.4699231     0.013321696               0   1.8326472e-06    0.0028988588     0.045890556
    0.011237498       5.4697573     0.013272474               0   1.8326293e-06    0.0028987849     0.045888457
    0.011949813       5.4695806      0.01322016               0   1.8326124e-06    0.0028987078     0.045886245
    0.012705991       5.4693913     0.013164558               0   1.8325961e-06    0.0028986265     0.045883891
    0.013508733       5.4691864     0.013105457               0   1.8325802e-06    0.0028985393     0.045881345
    0.014360904        5.468962     0.013042621               0   1.8325644e-06    0.0028984441     0.045878542
    0.015265551       5.4687138       0.0129758               0   1.8325481e-06    0.0028983384     0.045875415
    0.016225903        5.468438     0.012904725               0   1.8325312e-06    0.0028982202     0.045871901
    0.017245391       5.4681314     0.012829116               0   1.8325134e-06    0.0028980877     0.045867948
    0.018327656        5.467791     0.012748674               0   1.8324945e-06    0.0028979394     0.045863509
    0.019476565       5.4674139     0.012663083               0   1.8324742e-06    0.0028977737     0.045858538
     0.02069622       5.4669972     0.012572003               0   1.8324525e-06    0.0028975892     0.045852991
    0.021990978       5.4665383     0.012475075               0   1.8324291e-06    0.0028973843     0.045846823
    0.023365464       5.4660343     0.012371912               0   1.8324038e-06    0.0028971577     0.045839993
    0.024824587       5.4654828     0.012262106               0   1.8323765e-06    0.0028969081     0.045832463
    0.026373559       5.4648815     0.012145215               0   1.8323471e-06    0.0028966343     0.045824196
    0.028017912       5.4642284     0.012020775               0   1.8323155e-06    0.0028963354     0.045815164
     0.02976352        5.463522     0.011888282               0   1.8322817e-06    0.0028960107     0.045805345
    0.031616619       5.4627613     0.011747209               0   1.8322457e-06    0.0028956596     0.045794725
    0.033583826       5.4619458     0.011596979               0   1.8322073e-06     0.002895282     0.045783299
    0.035672168       5.4610759     0.011436994               0   1.8321666e-06    0.0028948781     0.045771074
    0.037889105       5.4601525     0.011266591               0   1.8321236e-06    0.0028944485     0.045758068
    0.040242556       5.4591773     0.011085092               0   1.8320786e-06    0.0028939942      0.04574431
    0.042740925       5.4581529     0.010891735               0   1.8320315e-06    0.0028935166     0.045729845
    0.045393137       5.4570826     0.010685745               0   1.8319826e-06    0.0028930175     0.045714728
    0.048208665       5.4559707     0.010466246               0   1.8319321e-06    0.0028924992     0.045699026
    0.051197566       5.4548219     0.010232358               0   1.8318802e-06    0.0028919643     0.045682821
    0.054370516       5.4536419     0.009983069               0   1.8318272e-06    0.0028914157     0.045666202
    0.057738847       5.4524368     0.009717377               0   1.8317734e-06    0.0028908567     0.045649267
    0.061314592       5.4512134    0.0094341169               0   1.8317191e-06    0.0028902908     0.045632124
     0.06511052       5.4499789    0.0091321458               0   1.8316647e-06    0.0028897217     0.045614884
    0.069140193       5.4487406    0.0088101267               0   1.8316105e-06    0.0028891532     0.045597663
    0.073418001       5.4475065    0.0084667569               0   1.8315568e-06    0.0028885892     0.045580577
    0.077959226       5.4462844    0.0081005127               0    1.831504e-06    0.0028880335     0.045563747
    0.082780087       5.4450824    0.0077099094               0   1.8314524e-06      0.00288749     0.045547288
    0.087897803       5.4439087    0.0072932309               0   1.8314024e-06    0.0028869626     0.045531318
    0.093330656       5.4427718    0.0068487857               0   1.8313543e-06    0.0028864551     0.045515952
