#             y             U_x             U_y             U_z             nut               k         epsilon
   3.113662e-05      0.16264367   3.2223417e-05               0   5.8848271e-14   1.4828004e-07    0.0022611607
  5.3394177e-05       0.2778157    8.604928e-05               0   3.5815746e-13   4.7510777e-07     0.002360625
  7.7022295e-05       0.4000424   0.00017449437               0   1.3457473e-12   1.1648904e-06    0.0032915434
  0.00010210537      0.52973418   0.00030355603               0   3.8086393e-12   2.4280541e-06    0.0048379969
  0.00012873299      0.66731157   0.00047970797               0   9.0623782e-12   4.5705925e-06    0.0070873341
  0.00015700027       0.8131993   0.00071070073               0   1.9304275e-11    8.043301e-06      0.01022691
  0.00018700818      0.96781785    0.0010052998               0   3.8179571e-11   1.3508961e-05     0.014529114
  0.00021886389       1.1315714    0.0013733007               0   7.1670896e-11   2.1935769e-05     0.020361892
  0.00025268119       1.3048316    0.0018255832               0   1.2948895e-10   3.4725513e-05     0.028206996
  0.00028858087       1.4879151    0.0023741155               0   2.2721748e-10   5.3884768e-05     0.038680539
  0.00032669115       1.6810547     0.003031881               0    3.895608e-10   8.2244693e-05     0.052550876
  0.00036714817        1.884361    0.0038127053               0   6.5515031e-10   0.00012372731     0.070746271
  0.00041009642       2.0977745    0.0047309381               0   1.0834674e-09   0.00018363998     0.094340636
  0.00045568931       2.3210057    0.0058009355               0   1.7645023e-09   0.00026895093      0.12450038
  0.00050408968       2.5534633    0.0070362774               0   2.8317488e-09   0.00038845539       0.1623708
  0.00055547043       2.7941712    0.0084486489               0   4.4789985e-09    0.0005526857      0.20887987
  0.00061001506       3.0416781     0.010046321               0   6.9810854e-09   0.00077336695      0.26444859
   0.0006679184       3.2939661     0.011832193               0   1.0718019e-08    0.0010622065      0.32863106
  0.00072938728       3.5483737     0.013801432               0   1.6199958e-08    0.0014288944      0.39977781
  0.00079464125        3.801551      0.01593884               0   2.4085389e-08    0.0018784596      0.47490953
  0.00086391338       4.0494772     0.018216286               0   3.5177968e-08    0.0024086352      0.55001254
   0.0009374511        4.287571     0.020590753               0   5.0399558e-08    0.0030085176      0.62072204
   0.0010155171       4.5109261     0.023003793               0   7.0816805e-08    0.0036600284       0.6828584
   0.0010983902       4.7146846     0.025383313               0   9.7927321e-08    0.0043425349      0.73227808
   0.0011863663       4.8945308     0.027648418               0   1.3440151e-07    0.0050383624      0.76454229
   0.0012797599       5.0472486     0.029717574               0   1.8526968e-07    0.0057352349      0.77553825
   0.0013789043       5.1712364     0.031519504               0   2.5943112e-07    0.0064234778      0.76306249
   0.0014841538       5.2668426     0.033004748               0   3.7115594e-07    0.0070899768      0.72835758
   0.0015958843       5.3363857     0.034154585               0   5.3987397e-07    0.0077137116      0.67683554
   0.0017144948       5.3837975     0.034984164               0   7.8325827e-07    0.0082670989      0.61757967
    0.001840409       5.4139322     0.035537703               0    1.098853e-06    0.0087237784      0.56116975
   0.0019740768        5.431722     0.035876416               0    1.445723e-06    0.0090686468      0.51607913
   0.0021159754       5.4414448     0.036063596               0   1.7558175e-06     0.009303709      0.48572935
   0.0022666117       5.4463356       0.0361532               0   1.9773056e-06    0.0094464109      0.46847231
   0.0024265239       5.4485687     0.036185138               0   2.1039961e-06    0.0095223922      0.46013362
    0.002596283       5.4494647     0.036185579               0   2.1627851e-06    0.0095571553      0.45668503
   0.0027764954       5.4497503     0.036170069               0   2.1851214e-06    0.0095703741      0.45545336
   0.0029678048       5.4497829     0.036146637               0   2.1920134e-06    0.0095742284      0.45506117
   0.0031708945        5.449718     0.036118645               0    2.193657e-06    0.0095748018      0.45493548
     0.00338649       5.4496163     0.036087532               0   2.1938826e-06     0.009574522       0.4548842
   0.0036153613       5.4494991     0.036053662               0   2.1938215e-06    0.0095741412      0.45485469
   0.0038583258       5.4493718     0.036016889               0   2.1937296e-06    0.0095738239      0.45483459
   0.0041162514       5.4492349     0.035977001               0    2.193647e-06    0.0095735825       0.4548207
   0.0043900594       5.4490878     0.035933688               0    2.193576e-06     0.009573405       0.4548116
   0.0046807278       5.4489295     0.035886624               0   2.1935152e-06    0.0095732793      0.45480631
   0.0049892948       5.4487592     0.035835448               0   2.1934633e-06    0.0095731961      0.45480408
   0.0053168625        5.448576      0.03577976               0   2.1934193e-06    0.0095731482      0.45480435
   0.0056646009       5.4483788     0.035719122               0   2.1933818e-06    0.0095731293      0.45480666
   0.0060337521       5.4481666      0.03565305               0   2.1933499e-06    0.0095731347      0.45481066
   0.0064256347       5.4479382     0.035581014               0    2.193323e-06    0.0095731601      0.45481603
   0.0068416484       5.4476926     0.035502428               0   2.1933002e-06    0.0095732023      0.45482253
    0.007283279       5.4474289     0.035416654               0    2.193281e-06    0.0095732585      0.45482997
   0.0077521041       5.4471466     0.035322987               0   2.1932648e-06     0.009573327      0.45483826
   0.0082497982       5.4468463     0.035220665               0   2.1932512e-06    0.0095734077       0.4548474
    0.008778139       5.4465288      0.03510887               0     2.19324e-06    0.0095735009      0.45485749
   0.0093390136       5.4461932     0.034986708               0   2.1932306e-06    0.0095736053      0.45486844
   0.0099344254       5.4458379     0.034853165               0    2.193223e-06    0.0095737191      0.45488009
    0.010566501       5.4454635     0.034707158               0   2.1932168e-06    0.0095738431      0.45489255
    0.011237498       5.4450716     0.034547556               0   2.1932118e-06    0.0095739792      0.45490603
    0.011949813       5.4446596     0.034373118               0   2.1932078e-06    0.0095741248       0.4549203
    0.012705991       5.4442222     0.034182469               0   2.1932046e-06    0.0095742733      0.45493476
    0.013508733       5.4437546     0.033974141               0   2.1932019e-06    0.0095744182      0.45494883
    0.014360904       5.4432536     0.033746591               0   2.1931995e-06    0.0095745554      0.45496214
    0.015265551       5.4427172     0.033498217               0   2.1931971e-06    0.0095746817      0.45497441
    0.016225903       5.4421433     0.033227346               0   2.1931946e-06    0.0095747944      0.45498539
    0.017245391         5.44153     0.032932249               0   2.1931919e-06    0.0095748904      0.45499481
    0.018327656       5.4408757      0.03261116               0   2.1931888e-06    0.0095749664      0.45500238
    0.019476565       5.4401785       0.0322623               0   2.1931851e-06    0.0095750192       0.4550078
     0.02069622       5.4394373     0.031883903               0   2.1931807e-06    0.0095750456      0.45501079
    0.021990978       5.4386508     0.031474246               0   2.1931756e-06    0.0095750422      0.45501103
    0.023365464       5.4378184     0.031031695               0   2.1931695e-06     0.009575006      0.45500825
    0.024824587       5.4369398     0.030554737               0   2.1931625e-06     0.009574934      0.45500218
    0.026373559        5.436015     0.030042029               0   2.1931543e-06    0.0095748234      0.45499257
    0.028017912        5.435045     0.029492441               0    2.193145e-06     0.009574672       0.4549792
     0.02976352       5.4340309     0.028905101               0   2.1931344e-06    0.0095744776      0.45496189
    0.031616619       5.4329748     0.028279437               0   2.1931226e-06    0.0095742391      0.45494051
    0.033583826       5.4318792     0.027615215               0   2.1931096e-06    0.0095739556        0.454915
    0.035672168       5.4307476     0.026912566               0   2.1930953e-06    0.0095736271      0.45488535
    0.037889106       5.4295838     0.026171998               0   2.1930797e-06    0.0095732542      0.45485162
    0.040242556       5.4283925      0.02539441               0    2.193063e-06    0.0095728386      0.45481396
    0.042740925        5.427179     0.024581079               0   2.1930452e-06    0.0095723826      0.45477258
    0.045393137       5.4259491     0.023733642               0   2.1930264e-06    0.0095718894      0.45472778
    0.048208665        5.424709     0.022854054               0   2.1930069e-06    0.0095713631      0.45467992
    0.051197566       5.4234655     0.021944554               0   2.1929866e-06    0.0095708084      0.45462943
    0.054370516       5.4222253     0.021007586               0   2.1929658e-06    0.0095702305      0.45457682
    0.057738847       5.4209955     0.020045764               0   2.1929446e-06    0.0095696353      0.45452259
    0.061314592       5.4197831     0.019061768               0   2.1929232e-06    0.0095690288      0.45446733
     0.06511052        5.418595      0.01805831               0   2.1929018e-06    0.0095684175       0.4544116
    0.069140193       5.4174381     0.017038019               0   2.1928807e-06    0.0095678077      0.45435599
    0.073418001       5.4163187     0.016003406               0     2.19286e-06    0.0095672056      0.45430107
    0.077959226       5.4152429     0.014956763               0   2.1928398e-06    0.0095666171      0.45424739
    0.082780087       5.4142166     0.013900115               0   2.1928204e-06    0.0095660479      0.45419546
    0.087897803        5.413245     0.012835076               0   2.1928019e-06    0.0095655029      0.45414574
    0.093330656       5.4123332     0.011762916               0   2.1927844e-06     0.009564987      0.45409866
