#             y             U_x             U_y             U_z             nut               k         epsilon
   3.113662e-05      0.11248327   1.0482139e-05               0   7.6407178e-15   1.8986443e-08   0.00028745694
  5.3394177e-05       0.1921209   2.7982278e-05               0    4.671254e-14   6.0727102e-08   0.00029701342
  7.7022295e-05      0.27664117   5.6736627e-05               0   1.7596806e-13   1.4859766e-07   0.00041041702
  0.00010210537      0.36633771   9.8701181e-05               0   4.9851758e-13   3.0912515e-07   0.00059955991
  0.00012873299      0.46151862   0.00015599569               0   1.1862565e-12   5.8094682e-07    0.0008749481
  0.00015700027      0.56250587   0.00023117081               0   2.5263861e-12   1.0213424e-06    0.0012600135
  0.00018700818       0.6696341   0.00032713539               0   4.9975358e-12   1.7154759e-06    0.0017896706
  0.00021886389       0.7832487   0.00044717968               0   9.3924672e-12   2.7898766e-06     0.002512529
  0.00025268119       0.9037029   0.00059502124               0   1.7016663e-11   4.4321466e-06    0.0034947987
  0.00028858087       1.0313534   0.00077484814               0   3.0008794e-11   6.9196075e-06    0.0048256706
  0.00032669115       1.1665544   0.00099135711               0   5.1854849e-11   1.0660546e-05    0.0066242512
  0.00036714817        1.309649    0.0012497857               0   8.8206442e-11   1.6252803e-05    0.0090481116
  0.00041009642       1.4609586    0.0015559338               0   1.4817012e-10    2.456548e-05     0.012303304
  0.00045568931       1.6207669    0.0019161669               0   2.4631265e-10   3.6850047e-05     0.016655228
  0.00050408968       1.7893012    0.0023373916               0   4.0572977e-10   5.4886256e-05     0.022438911
  0.00055547043       1.9667071    0.0028269902               0   6.6264876e-10   8.1164369e-05     0.030065871
  0.00061001506       2.1530165     0.003392695               0   1.0731637e-09    0.0001190959     0.040022777
   0.0006679184        2.348108    0.0040423824               0   1.7228032e-09   0.00017322705     0.052854412
  0.00072938728       2.5516595    0.0047837579               0   2.7396445e-09   0.00024939883     0.069120698
  0.00079464125       2.7630915    0.0056239015               0    4.311522e-09   0.00035475448     0.089315877
  0.00086391338        2.981504    0.0065686411               0   6.7073173e-09   0.00049744302      0.11374082
   0.0009374511       3.2056076    0.0076217276               0   1.0300818e-08   0.00068582792      0.14233267
   0.0010155171       3.4336575    0.0087838008               0   1.5591625e-08   0.00092702579      0.17448753
   0.0010983902        3.663398     0.010051167               0   2.3208147e-08    0.0012247531      0.20896128
   0.0011863663       3.8920333     0.011414467               0   3.3863413e-08    0.0015768538      0.24396127
   0.0012797599        4.116244     0.012857401               0   4.8240044e-08    0.0019735472      0.27745065
   0.0013789043       4.3322721     0.014355763               0    6.686654e-08    0.0023980191      0.30746142
   0.0014841538       4.5360919     0.015877146               0   9.0195836e-08    0.0028304869      0.33217132
   0.0015958843       4.7236758     0.017381711               0   1.1908947e-07    0.0032546424      0.34987887
   0.0017144948       4.8913464     0.018824371               0   1.5565495e-07    0.0036629244       0.3592237
    0.001840409       5.0361849     0.020158593               0   2.0422969e-07    0.0040571949      0.35958701
   0.0019740768       5.1564382     0.021341739               0   2.7244085e-07     0.004444305      0.35130374
   0.0021159754       5.2518327      0.02234117               0   3.7220665e-07     0.004829056      0.33562491
   0.0022666117       5.3236929     0.023139662               0   5.1949721e-07    0.0052082191       0.3146626
   0.0024265239        5.374789     0.023738494               0   7.2941454e-07    0.0055686883      0.29135453
    0.002596283       5.4089052      0.02415675               0   1.0029263e-06    0.0058910025      0.26912013
   0.0027764954       5.4302103     0.024426353               0   1.3115792e-06    0.0061566939      0.25095029
   0.0029678048        5.442614     0.024584301               0    1.601192e-06    0.0063555431      0.23834286
   0.0031708945       5.4493163     0.024665271               0   1.8225664e-06    0.0064889374      0.23096516
     0.00338649       5.4526485     0.024697254               0   1.9602432e-06    0.0065681482      0.22733336
   0.0036153613       5.4541488     0.024700551               0   2.0306789e-06    0.0066092223      0.22582956
   0.0038583258       5.4547385     0.024688243               0   2.0606905e-06    0.0066275175       0.2253052
   0.0041162514       5.4549155     0.024667726               0   2.0713624e-06     0.006634347      0.22514983
   0.0043900594       5.4549242     0.024642671               0   2.0744711e-06    0.0066363718      0.22510794
   0.0046807278       5.4548692     0.024614618               0   2.0751624e-06    0.0066367583      0.22509436
   0.0049892948       5.4547886     0.024584323               0   2.0752364e-06    0.0066367141       0.2250871
   0.0053168625       5.4546953     0.024551904               0   2.0751957e-06    0.0066366002      0.22508172
   0.0056646009       5.4545923     0.024517185               0   2.0751469e-06    0.0066364949      0.22507738
   0.0060337521       5.4544794     0.024480055               0   2.0751046e-06    0.0066364059      0.22507378
   0.0064256347       5.4543558     0.024440316               0   2.0750688e-06    0.0066363297      0.22507067
   0.0068416484       5.4542206     0.024397768               0   2.0750381e-06    0.0066362626      0.22506788
    0.007283279        5.454073     0.024352194               0   2.0750116e-06    0.0066362014      0.22506526
   0.0077521041       5.4539126     0.024303358               0   2.0749885e-06    0.0066361441      0.22506271
   0.0082497982       5.4537394     0.024251006               0   2.0749683e-06    0.0066360895      0.22506016
    0.008778139        5.453554      0.02419487               0   2.0749504e-06     0.006636037      0.22505763
   0.0093390136       5.4533561      0.02413466               0   2.0749343e-06    0.0066359859      0.22505509
   0.0099344254       5.4531454     0.024070053               0   2.0749198e-06    0.0066359353       0.2250525
    0.010566501       5.4529218     0.024000692               0   2.0749067e-06    0.0066358849      0.22504983
    0.011237498       5.4526856     0.023926203               0   2.0748945e-06    0.0066358348      0.22504713
    0.011949813       5.4524357      0.02384618               0    2.074883e-06    0.0066357838      0.22504434
    0.012705991        5.452168     0.023760164               0   2.0748721e-06    0.0066357283       0.2250412
    0.013508733       5.4518775     0.023667637               0   2.0748614e-06    0.0066356632       0.2250374
    0.014360904       5.4515597     0.023568039               0   2.0748506e-06    0.0066355838      0.22503264
    0.015265551       5.4512115     0.023460773               0   2.0748394e-06    0.0066354872      0.22502673
    0.016225903       5.4508298     0.023345198               0   2.0748277e-06    0.0066353705      0.22501949
    0.017245391        5.450412      0.02322062               0   2.0748153e-06    0.0066352313      0.22501076
    0.018327656       5.4499551     0.023086287               0    2.074802e-06    0.0066350668      0.22500037
    0.019476565       5.4494564     0.022941385               0   2.0747876e-06    0.0066348745      0.22498815
     0.02069622       5.4489129     0.022785037               0   2.0747721e-06    0.0066346517      0.22497394
    0.021990978       5.4483219     0.022616298               0   2.0747552e-06    0.0066343958      0.22495756
    0.023365464       5.4476808     0.022434153               0   2.0747369e-06    0.0066341045      0.22493886
    0.024824587       5.4469871     0.022237516               0   2.0747169e-06    0.0066337755      0.22491769
    0.026373559       5.4462388     0.022025226               0   2.0746954e-06     0.006633407      0.22489394
    0.028017912       5.4454341     0.021796052               0   2.0746722e-06    0.0066329973       0.2248675
     0.02976352       5.4445719     0.021548689               0   2.0746472e-06    0.0066325455       0.2248383
    0.031616619       5.4436514     0.021281766               0   2.0746204e-06    0.0066320507       0.2248063
    0.033583826       5.4426728     0.020993847               0   2.0745919e-06    0.0066315131       0.2247715
    0.035672168       5.4416369     0.020683448               0   2.0745616e-06    0.0066309334      0.22473394
    0.037889105       5.4405453     0.020349029               0   2.0745297e-06    0.0066303129      0.22469372
    0.040242556       5.4394002     0.019989029               0   2.0744963e-06    0.0066296538      0.22465096
    0.042740925       5.4382053     0.019601858               0   2.0744615e-06    0.0066289588      0.22460587
    0.045393137       5.4369648      0.01918595               0   2.0744254e-06    0.0066282317      0.22455867
    0.048208665        5.435684     0.018739739               0   2.0743884e-06    0.0066274768      0.22450965
    0.051197566       5.4343689     0.018261745               0   2.0743504e-06     0.006626699      0.22445914
    0.054370516       5.4330264     0.017750518               0    2.074312e-06     0.006625904      0.22440749
    0.057738847       5.4316641      0.01720477               0   2.0742732e-06    0.0066250976      0.22435509
    0.061314592       5.4302903     0.016623269               0   2.0742344e-06     0.006624286      0.22430236
     0.06511052       5.4289135     0.016005025               0   2.0741959e-06    0.0066234757       0.2242497
    0.069140193        5.427543     0.015349101               0   2.0741578e-06    0.0066226733      0.22419755
    0.073418001       5.4261878     0.014654891               0   2.0741206e-06     0.006621885      0.22414632
    0.077959226       5.4248574     0.013921767               0   2.0740844e-06    0.0066211171      0.22409641
    0.082780087       5.4235611     0.013149525               0   2.0740495e-06    0.0066203753       0.2240482
    0.087897803       5.4223082     0.012337804               0   2.0740163e-06    0.0066196653      0.22400205
    0.093330656       5.4211077     0.011486689               0   2.0739848e-06    0.0066189921      0.22395829
