#             y      gradU_xx      gradU_xy      gradU_xz      gradU_yx      gradU_yy      gradU_yz      gradU_zx      gradU_zy      gradU_zz             U_x             U_y             U_z             nut               k         epsilon
   3.113662e-05    -0.023797671  -8.1800931e-07               0       1286.0944     0.021940826               0               0               0               0     0.040451541    4.283007e-07               0   2.1445096e-19   7.6533547e-13   1.3675943e-08
  5.3394177e-05    -0.040663337  -2.1992416e-06               0       1285.7043     0.040405338               0               0               0               0     0.069096981   1.1439223e-06               0   1.2026508e-18   2.5811649e-12   1.8894172e-08
  7.7022295e-05    -0.058561702  -4.4597616e-06               0       1285.2881     0.058499905               0               0               0               0     0.099496791   2.3199615e-06               0   4.4293463e-18   6.7909211e-12   3.2778861e-08
  0.00010210537    -0.077555387  -7.7613784e-06               0       1284.8431     0.077581562               0               0               0               0      0.13175773   4.0364519e-06               0   1.2925586e-17   1.5443456e-11   5.6838237e-08
  0.00012873299    -0.097710648  -1.2271333e-05               0        1284.366     0.097719858               0               0               0               0      0.16599292   6.3802399e-06               0   3.2945993e-17   3.2161716e-11    9.590946e-08
  0.00015700027      -0.1190978  -1.8187259e-05               0       1283.8529      0.11909829               0               0               0               0      0.20232222   9.4560586e-06               0   7.7273265e-17   6.3355841e-11   1.5804395e-07
  0.00018700818     -0.14179079   -2.574107e-05               0        1283.299      0.14179102               0               0               0               0      0.24087256   1.3383731e-05               0   1.7174239e-16   1.2033362e-10   2.5594682e-07
  0.00021886389     -0.16586785  -3.5197726e-05               0       1282.6989      0.16586885               0               0               0               0      0.28177833   1.8299494e-05               0   3.6815859e-16   2.2299159e-10    4.094458e-07
  0.00025268119     -0.19141147  -4.6851862e-05               0       1282.0458      0.19141251               0               0               0               0      0.32518177   2.4358418e-05               0   7.6983839e-16   4.0627302e-10   6.4938828e-07
  0.00028858087     -0.21850797  -6.1041536e-05               0       1281.3316      0.21850825               0               0               0               0      0.37123333    3.173691e-05               0   1.5820372e-15   7.3146373e-10   1.0237143e-06
  0.00032669115     -0.24724824  -7.8156924e-05               0       1280.5466      0.24724756               0               0               0               0      0.42009205   4.0635498e-05               0   3.2114054e-15   1.3059425e-09   1.6068911e-06
  0.00036714817     -0.27772735  -9.8636348e-05               0       1279.6792      0.27772675               0               0               0               0      0.47192594   5.1281985e-05               0   6.4619725e-15      2.3177e-09   2.5145512e-06
  0.00041009642     -0.31004424  -0.00012297177               0       1278.7153       0.3100447               0               0               0               0      0.52691231   6.3934915e-05               0    1.292106e-14   4.0956388e-09   3.9261855e-06
  0.00045568931     -0.34430142  -0.00015172525               0       1277.6378      0.34430268               0               0               0               0      0.58523807   7.8887327e-05               0   2.5718632e-14   7.2148436e-09    6.120286e-06
  0.00050408968     -0.38060488  -0.00018553179               0       1276.4261      0.38060585               0               0               0               0          0.6471   9.6471057e-05               0   5.1020305e-14   1.2680212e-08   9.5287045e-06
  0.00055547043     -0.41906313  -0.00022510443               0       1275.0556      0.41906298               0               0               0               0      0.71270495   0.00011706156               0   1.0096025e-13   2.2246444e-08   1.4820595e-05
  0.00061001506     -0.45978553  -0.00027125557               0       1273.4962      0.45978477               0               0               0               0      0.78226985   0.00014108323               0   1.9939654e-13   3.8974892e-08   2.3031778e-05
   0.0006679184     -0.50288112  -0.00032489792               0       1271.7119      0.50288059               0               0               0               0      0.85602166    0.0001690152               0   3.9318993e-13   6.8200923e-08    3.576355e-05
  0.00072938728     -0.54845655  -0.00038705049               0        1269.659      0.54845668               0               0               0               0      0.93419713   0.00020139751               0   7.7427039e-13   1.1921067e-07   5.5487186e-05
  0.00079464125     -0.59661522  -0.00045885406               0       1267.2852      0.59661469               0               0               0               0       1.0170422   0.00023883793               0   1.5227173e-12   2.0813902e-07   8.6008191e-05
  0.00086391338     -0.64745021  -0.00054158415               0       1264.5271      0.64744808               0               0               0               0       1.1048112    0.0002820192               0   2.9906389e-12    3.629598e-07   0.00013316999
   0.0009374511     -0.70103946  -0.00063666076               0        1261.309      0.70103714               0               0               0               0       1.1977653    0.0003317067               0   5.8649333e-12   6.3203807e-07   0.00020591251
   0.0010155171     -0.75744446  -0.00074565788               0       1257.5402      0.75744171               0               0               0               0        1.296171   0.00038875623               0   1.1481753e-11   1.0986979e-06   0.00031784876
   0.0010983902     -0.81669733  -0.00087029616               0       1253.1116      0.81669309               0               0               0               0       1.4002972   0.00045412163               0   2.2430779e-11   1.9058434e-06   0.00048958246
   0.0011863663     -0.87878912   -0.0010124567               0        1247.893      0.87878521               0               0               0               0       1.5104116   0.00052886203               0   4.3708514e-11   3.2971494e-06   0.00075205527
   0.0012797599     -0.94366338   -0.0011741792               0       1241.7293         0.94366               0               0               0               0       1.6267759   0.00061414824               0   8.4900875e-11   5.6850725e-06    0.0011512665
   0.0013789043      -1.0111959   -0.0013576336               0       1234.4366       1.0111903               0               0               0               0       1.7496397   0.00071126698               0     1.64271e-10   9.7612123e-06    0.0017547058
   0.0014841538      -1.0811694   -0.0015651061               0       1225.7966       1.0811613               0               0               0               0        1.879232   0.00082162246               0   3.1631988e-10     1.66713e-05    0.0026596902
   0.0015958843      -1.1532526   -0.0017989466               0       1215.5517        1.153243               0               0               0               0       2.0157508   0.00094673365               0   6.0556511e-10   2.8284018e-05    0.0040033287
   0.0017144948      -1.2269689   -0.0020614957               0       1203.3986       1.2269581               0               0               0               0       2.1593498    0.0010882248               0   1.1512362e-09   4.7585794e-05    0.0059727567
    0.001840409      -1.3016579   -0.0023549611               0       1188.9813       1.3016446               0               0               0               0       2.3101208     0.001247807               0   2.1707467e-09   7.9222297e-05    0.0088121605
   0.0019740768      -1.3764325   -0.0026812899               0       1171.8835       1.3764144               0               0               0               0       2.4680723     0.001427247               0    4.054776e-09   0.00013015927     0.012819564
   0.0021159754       -1.450128   -0.0030419577               0         1151.62       1.4501042               0               0               0               0       2.6331024    0.0016283205               0   7.4937839e-09   0.00021030745     0.018322017
   0.0022666117      -1.5212541   -0.0034376572               0       1127.6275       1.5212271               0               0               0               0       2.8049648     0.001852743               0   1.3679491e-08   0.00033267871     0.025617823
   0.0024265239      -1.5879603   -0.0038679577               0       1099.2644       1.5879369               0               0               0               0       2.9832271    0.0021020752               0   2.4568158e-08    0.0005121445     0.034894447
    0.002596283      -1.6480247   -0.0043308607               0       1065.8371       1.6480178               0               0               0               0       3.1672217    0.0023776004               0   4.2990364e-08   0.00076129621     0.046172398
   0.0027764954       -1.698909   -0.0048222787               0       1026.6834       1.6989324               0               0               0               0       3.3559979    0.0026801735               0   7.2025211e-08    0.0010822293     0.059243682
   0.0029678048      -1.7378835   -0.0053355457               0       981.31408       1.7379446               0               0               0               0       3.5482882     0.003010054               0   1.1326248e-07    0.0014559698     0.073330473
   0.0031708945      -1.7621534   -0.0058610012               0       929.56217       1.7622394               0               0               0               0       3.7425085    0.0033667376               0   1.6438774e-07    0.0018357247      0.08656424
     0.00338649       -1.768855   -0.0063852776               0       871.64861       1.7689218               0               0               0               0       3.9367947    0.0037487752               0   2.1728901e-07    0.0021522228     0.096116656
   0.0036153613      -1.7548309   -0.0068903322               0       808.07151       1.7548273               0               0               0               0       4.1290584    0.0041535434               0   2.5909369e-07    0.0023350328     0.099308957
   0.0038583258      -1.7164314   -0.0073532626               0       739.36942       1.7163614               0               0               0               0       4.3170116    0.0045769049               0   2.7890487e-07    0.0023459528     0.095029671
   0.0041162514      -1.6499511   -0.0077485155               0       666.02674       1.6498877               0               0               0               0       4.4981385     0.005012801               0   2.7516069e-07     0.002200158     0.084429219
   0.0043900594      -1.5528399   -0.0080512977               0       588.69944       1.5528355               0               0               0               0       4.6696834    0.0054529979               0   2.5550263e-07    0.0019541844     0.070296902
   0.0046807278      -1.4249505   -0.0082401324               0       508.57759       1.4249895               0               0               0               0       4.8287517    0.0058872279               0    2.314049e-07    0.0016770493     0.055682663
   0.0049892948      -1.2692591   -0.0082993306               0        427.5849       1.2693077               0               0               0               0       4.9725492     0.006303798               0   2.1286985e-07    0.0014243622     0.042769452
   0.0053168625      -1.0920148   -0.0082225868               0       348.28611       1.0920523               0               0               0               0       5.0987099    0.0066905868               0   2.0635707e-07     0.001226093     0.032511844
   0.0056646009     -0.90229469   -0.0080164075               0       273.55453      0.90231565               0               0               0               0       5.2056282    0.0070363026               0   2.1643828e-07    0.0010902259     0.024915682
   0.0060337521     -0.71104805   -0.0077017547               0       206.13819      0.71105551               0               0               0               0       5.2927138    0.0073318385               0   2.4843109e-07    0.0010117271     0.019508362
   0.0064256347     -0.52972357   -0.0073128162               0       148.23979      0.52971222               0               0               0               0       5.3605191    0.0075715161               0   3.1071026e-07    0.0009799153     0.015705845
   0.0068416484     -0.36859961   -0.0068933265               0        101.1788      0.36859268               0               0               0               0       5.4107004    0.0077539447               0   4.1576313e-07   0.00098267245     0.013010824
    0.007283279     -0.23510287   -0.0064890858               0       65.199488      0.23509398               0               0               0               0       5.4458018    0.0078822671               0   5.7632957e-07    0.0010077708      0.01108155
   0.0077521041     -0.13252832   -0.0061339821               0       39.479792      0.13250197               0               0               0               0       5.4688886    0.0079634114               0   7.9287417e-07    0.0010435067    0.0097213987
   0.0082497982    -0.059693098   -0.0058530585               0       22.366068     0.059705441               0               0               0               0       5.4831026    0.0080067396               0   1.0388085e-06    0.0010800437    0.0088213747
    0.008778139    -0.011919447    -0.005650753               0       11.789238     0.011908431               0               0               0               0       5.4912564    0.0080220679               0   1.2650191e-06    0.0011106948     0.008291353
   0.0093390136      0.01705452   -0.0055082313               0       5.7203539    -0.017077056               0               0               0               0       5.4955792    0.0080179544               0   1.4305665e-06    0.0011325146    0.0080256702
   0.0099344254     0.033283748   -0.0054142413               0       2.4929167    -0.033281571               0               0               0               0       5.4976587    0.0080012332               0   1.5273883e-06     0.001145795    0.0079162608
    0.010566501      0.04161777   -0.0053565008               0      0.91259974    -0.041643476               0               0               0               0       5.4985253    0.0079764564               0   1.5735038e-06    0.0011526916    0.0078806716
    0.011237498     0.045484386   -0.0053173076               0      0.20726066    -0.045447279               0               0               0               0        5.498792     0.007946613               0   1.5917549e-06    0.0011557226     0.007872156
    0.011949813     0.047101173    -0.005286431               0    -0.079672559    -0.047084375               0               0               0               0       5.4987872    0.0079134021               0   1.5978157e-06    0.0011568284    0.0078708603
    0.012705991     0.047729407   -0.0052605666               0      -0.1883283     -0.04777726               0               0               0               0       5.4986647    0.0078773405               0   1.5994911e-06    0.0011571428    0.0078706362
    0.013508733     0.047946398    -0.005235456               0     -0.22751432    -0.047941788               0               0               0               0       5.4984894    0.0078388375               0   1.5998606e-06    0.0011571893    0.0078702779
    0.014360904     0.048006421   -0.0052093381               0      -0.2430384     -0.04799295               0               0               0               0       5.4982863    0.0077979307               0   1.5999129e-06    0.0011571611    0.0078697537
    0.015265551     0.048028688    -0.005182514               0     -0.25354482    -0.048032612               0               0               0               0       5.4980612    0.0077544448               0    1.599905e-06    0.0011571141    0.0078691357
    0.016225903     0.048048245   -0.0051534702               0     -0.26470969    -0.048047422               0               0               0               0       5.4978122    0.0077082725               0   1.5998889e-06    0.0011570602    0.0078684465
    0.017245391     0.048071926   -0.0051228328               0     -0.27735448    -0.048072089               0               0               0               0       5.4975356    0.0076592353               0   1.5998721e-06    0.0011570007    0.0078676815
    0.018327656      0.04809937   -0.0050901781               0     -0.29104186    -0.048100756               0               0               0               0       5.4972275    0.0076071476               0   1.5998547e-06    0.0011569346    0.0078668295
    0.019476565     0.048130566   -0.0050554348               0     -0.30515826    -0.048131281               0               0               0               0       5.4968842    0.0075518193               0   1.5998363e-06    0.0011568611    0.0078658796
     0.02069622     0.048163669   -0.0050184867               0     -0.31919449    -0.048163314               0               0               0               0       5.4965025    0.0074930445               0   1.5998167e-06    0.0011567794    0.0078648215
    0.021990978     0.048196028    -0.004979178               0     -0.33280708    -0.048195572               0               0               0               0       5.4960794    0.0074306096               0   1.5997956e-06    0.0011566888    0.0078636461
    0.023365464     0.048228377   -0.0049373651               0     -0.34573569    -0.048227425               0               0               0               0       5.4956118    0.0073642847               0   1.5997727e-06    0.0011565886    0.0078623448
    0.024824587     0.048259623   -0.0048928847               0     -0.35773661    -0.048258767               0               0               0               0       5.4950972    0.0072938311               0    1.599748e-06    0.0011564781    0.0078609096
    0.026373559     0.048289314    -0.004845563               0     -0.36858938    -0.048288934               0               0               0               0       5.4945332    0.0072189892               0   1.5997211e-06    0.0011563569    0.0078593334
    0.028017912     0.048317894   -0.0047952147               0     -0.37807566     -0.04831805               0               0               0               0       5.4939177    0.0071394928               0   1.5996921e-06    0.0011562244      0.00785761
     0.02976352     0.048344633   -0.0047416415               0     -0.38599346    -0.048345371               0               0               0               0       5.4932491    0.0070550482               0   1.5996607e-06    0.0011560802    0.0078557346
    0.031616619     0.048370174   -0.0046846373               0     -0.39216283    -0.048371128               0               0               0               0       5.4925262    0.0069653592               0   1.5996269e-06    0.0011559241    0.0078537038
    0.033583826     0.048394248   -0.0046239735               0     -0.39641622    -0.048394605               0               0               0               0       5.4917487     0.006870093               0   1.5995906e-06    0.0011557559    0.0078515161
    0.035672168     0.048416466   -0.0045594151               0     -0.39861645     -0.04841619               0               0               0               0       5.4909165     0.006768921               0   1.5995519e-06    0.0011555757    0.0078491721
    0.037889105      0.04843603   -0.0044907068               0     -0.39862113    -0.048435201               0               0               0               0       5.4900308    0.0066614651               0   1.5995107e-06    0.0011553837    0.0078466745
    0.040242556     0.048453343   -0.0044175801               0     -0.39634244    -0.048452012               0               0               0               0       5.4890933    0.0065473613               0   1.5994671e-06    0.0011551803    0.0078440288
    0.042740925     0.048467999   -0.0043397384               0     -0.39180894    -0.048466483               0               0               0               0       5.4881068    0.0064261796               0   1.5994212e-06    0.0011549661    0.0078412429
    0.045393137     0.048478892   -0.0042568765               0     -0.38507472    -0.048479181               0               0               0               0       5.4870748    0.0062975154               0   1.5993733e-06    0.0011547419    0.0078383269
    0.048208665     0.048489034   -0.0041686551               0     -0.37620714    -0.048489878               0               0               0               0       5.4860014    0.0061608777               0   1.5993235e-06    0.0011545087    0.0078352935
    0.051197566     0.048498816   -0.0040747236               0     -0.36532505    -0.048499021               0               0               0               0       5.4848917    0.0060158179               0    1.599272e-06    0.0011542675    0.0078321576
    0.054370516     0.048507086   -0.0039746969               0     -0.35258759    -0.048506781               0               0               0               0       5.4837516    0.0058617753               0   1.5992193e-06    0.0011540198    0.0078289364
    0.057738847     0.048513858   -0.0038681748               0      -0.3381859    -0.048513482               0               0               0               0       5.4825873    0.0056982505               0   1.5991656e-06    0.0011537668    0.0078256484
    0.061314592     0.048519134    -0.003754709               0     -0.32233633    -0.048519632               0               0               0               0       5.4814058    0.0055246033               0   1.5991112e-06    0.0011535103     0.007822314
     0.06511052     0.048525869    -0.003633848               0     -0.30527625    -0.048525267               0               0               0               0       5.4802145     0.005340275               0   1.5990565e-06    0.0011532518    0.0078189545
    0.069140193     0.048533757   -0.0035050739               0     -0.28725271     -0.04853118               0               0               0               0       5.4790209    0.0051445367               0   1.5990019e-06    0.0011529931    0.0078155921
    0.073418001     0.048539416   -0.0033678779               0     -0.26849951    -0.048537051               0               0               0               0       5.4778329    0.0049367604               0   1.5989477e-06    0.0011527359    0.0078122494
    0.077959226      0.04854468   -0.0032216605               0     -0.24924407    -0.048543906               0               0               0               0       5.4766585    0.0047161185               0   1.5988943e-06    0.0011524819    0.0078089493
    0.082780087     0.048552555   -0.0030658526               0     -0.22969416    -0.048551039               0               0               0               0       5.4755056    0.0044819017               0   1.5988421e-06    0.0011522329    0.0078057145
    0.087897803     0.048560841   -0.0028997587               0     -0.21003116    -0.048559579               0               0               0               0       5.4743824    0.0042331755               0   1.5987915e-06    0.0011519907     0.007802568
    0.093330656     0.048570229   -0.0027227427               0     -0.19039974    -0.048568462               0               0               0               0        5.473297    0.0039691346               0   1.5987427e-06     0.001151757    0.0077995325
