#             x      gradU_xx      gradU_xy      gradU_xz      gradU_yx      gradU_yy      gradU_yz      gradU_zx      gradU_zy      gradU_zz             U_x             U_y             U_z             nut               k         epsilon
   -0.046805254     0.011698733      0.16216476               0    -0.000475076    -0.014478076               0               0               0               0        5.400034   0.00048245152               0   2.6899418e-06     0.043255696       8.4371872
   -0.040820451      0.02568868      0.16106876               0   -0.0016596638     -0.02769082               0               0               0               0       5.4001389     0.001439373               0   2.5969866e-06     0.035838982       5.9078209
   -0.035593767     0.043435282      0.15891284               0   -0.0038545319    -0.043882041               0               0               0               0       5.4003167    0.0022837664               0    2.554113e-06     0.030775326       4.3749581
   -0.031029167     0.058334927      0.15602741               0   -0.0067253636    -0.057854422               0               0               0               0       5.4005501    0.0030092957               0   2.5325426e-06     0.027348691        3.459278
   -0.027042782     0.070197303      0.15281157               0   -0.0099276248    -0.069866958               0               0               0               0       5.4008072    0.0036304327               0    2.514019e-06     0.024930473       2.8801439
   -0.023561368     0.080177398       0.1494855               0     -0.01323393     -0.08016276               0               0               0               0       5.4010695    0.0041613361               0   2.4956825e-06     0.023151412       2.4905238
   -0.020520958     0.088933816      0.14616246               0    -0.016520864    -0.088967323               0               0               0               0       5.4013272     0.004614731               0   2.4782817e-06     0.021797484       2.2143694
   -0.017865688     0.096528646      0.14293205               0    -0.019700019    -0.096485541               0               0               0               0       5.4015745    0.0050018583               0   2.4625506e-06     0.020739926       2.0105652
   -0.015546772      0.10297036      0.13986109               0    -0.022706069     -0.10290083               0               0               0               0       5.4018069    0.0053325285               0   2.4487301e-06     0.019897245       1.8554574
   -0.013521602      0.10841688        0.136992               0    -0.025502544     -0.10837485               0               0               0               0       5.4020221    0.0056152072               0   2.4367567e-06     0.019215302       1.7345807
   -0.011752967      0.11307401      0.13434667               0    -0.028074013     -0.11304804               0               0               0               0       5.4022189    0.0058571309               0   2.4264445e-06     0.018656615       1.6386096
   -0.010208373      0.11706906      0.13193275               0    -0.030411986     -0.11704116               0               0               0               0       5.4023977    0.0060644464               0   2.4175792e-06     0.018194347       1.5612659
  -0.0088594378      0.12047597      0.12974869               0    -0.032520432     -0.12045717               0               0               0               0       5.4025588    0.0062423557               0   2.4099571e-06     0.017808739       1.4981706
  -0.0076813777      0.12338773      0.12778687               0    -0.034415253     -0.12338342               0               0               0               0       5.4027033    0.0063952524               0   2.4033977e-06     0.017484905       1.4461788
   -0.006652547      0.12589763      0.12603555               0    -0.036109566     -0.12589373               0               0               0               0       5.4028322    0.0065268445               0   2.3977457e-06     0.017211417       1.4029759
  -0.0057540422      0.12806907      0.12448043               0    -0.037617453      -0.1280504               0               0               0               0        5.402947    0.0066402616               0    2.392869e-06     0.016979354       1.3668226
  -0.0049693545      0.12992799      0.12310591               0    -0.038953244     -0.12990593               0               0               0               0       5.4030488    0.0067381466               0   2.3886555e-06      0.01678165       1.3363881
  -0.0042840662      0.13151764      0.12189598               0       -0.040135     -0.13150462               0               0               0               0        5.403139    0.0068227345               0   2.3850107e-06     0.016612644       1.3106379
   -0.003685586      0.13288221      0.12083502               0    -0.041179173     -0.13288386               0               0               0               0       5.4032186    0.0068959186               0   2.3818542e-06     0.016467751        1.288757
  -0.0031629175      0.13406224      0.11990838               0    -0.042099129     -0.13407525               0               0               0               0       5.4032888    0.0069593055               0   2.3791178e-06      0.01634322       1.2700952
  -0.0027064575       0.1351078      0.11910289               0    -0.042908431     -0.13510556               0               0               0               0       5.4033506    0.0070142621               0   2.3767435e-06     0.016235962       1.2541285
  -0.0023078191      0.13600704      0.11840736               0    -0.043619321     -0.13599749               0               0               0               0        5.403405    0.0070619536               0   2.3746817e-06      0.01614341       1.2404304
  -0.0019596776      0.13677905      0.11781308               0    -0.044243407     -0.13677037               0               0               0               0       5.4034527    0.0071033756               0     2.37289e-06     0.016063422       1.2286509
  -0.0016556366      0.13747552       0.1173143               0    -0.044792874     -0.13744064               0               0               0               0       5.4034947    0.0071393813               0   2.3713321e-06     0.015994198       1.2185007
  -0.0013901097      0.13805722       0.1169087               0    -0.045276364     -0.13802234               0               0               0               0       5.4035315    0.0071707033               0   2.3699766e-06     0.015934217       1.2097392
   -0.001158218      0.13852429      0.11659756               0    -0.045699503     -0.13852748               0               0               0               0       5.4035638    0.0071979721               0   2.3687968e-06     0.015882193       1.2021649
   -0.000955701      0.13893117      0.11638616               0    -0.046068537     -0.13896634               0               0               0               0       5.4035921    0.0072217314               0   2.3677695e-06     0.015837029       1.1956082
 -0.00077883757      0.13924736      0.11628418               0    -0.046390401     -0.13934775               0               0               0               0       5.4036168    0.0072424511               0   2.3668746e-06     0.015797791        1.189926
 -0.00062437811      0.13956571      0.11630545               0    -0.046673217     -0.13967928               0               0               0               0       5.4036385    0.0072605378               0   2.3660948e-06     0.015763679       1.1849968
 -0.00048948463      0.14000227      0.11646762               0    -0.046922293     -0.13996747               0               0               0               0       5.4036575    0.0072763437               0    2.365415e-06     0.015734005        1.180717
 -0.00037167862      0.14039236      0.11679223               0    -0.047140305     -0.14021794               0               0               0               0       5.4036741     0.007290174               0   2.3648224e-06     0.015708179       1.1769983
 -0.00026879555      0.14054999      0.11730272               0    -0.047331296     -0.14043555               0               0               0               0       5.4036886    0.0073022935               0   2.3643057e-06     0.015685692       1.1737651
 -0.00017894507      0.14044913      0.11803045               0    -0.047496893      -0.1406245               0               0               0               0       5.4037013    0.0073129314               0    2.363855e-06     0.015666105       1.1709524
  -0.0001004763      0.14053725      0.11897605               0    -0.047640703     -0.14078845               0               0               0               0       5.4037124    0.0073222868               0   2.3634618e-06     0.015649038       1.1685042
 -3.1947465e-05      0.14107038      0.11998969               0    -0.047769149     -0.14093161               0               0               0               0       5.4037222    0.0073305891               0   2.3631161e-06     0.015634051       1.1663563
  2.9991242e-05       0.1413544      0.12082567               0    -0.047883844     -0.14106092               0               0               0               0       5.4037311    0.0073382074               0   2.3628016e-06     0.015620425       1.1644054
  9.0286504e-05      0.14122062       0.1213861               0    -0.047994616     -0.14118457               0               0               0               0       5.4037397    0.0073455832               0   2.3624987e-06     0.015607322       1.1625308
  0.00015121058      0.14111752      0.12172895               0    -0.048106268     -0.14130763               0               0               0               0       5.4037483    0.0073529906               0   2.3621958e-06     0.015594226       1.1606587
  0.00021277004      0.14117456      0.12190263               0    -0.048218428     -0.14143138               0               0               0               0        5.403757     0.007360491               0   2.3618899e-06     0.015581015       1.1587717
   0.0002749715      0.14145539      0.12191981               0     -0.04833371     -0.14155591               0               0               0               0       5.4037658    0.0073680752               0   2.3615811e-06     0.015567688       1.1568696
  0.00033782165      0.14171822      0.12179324               0     -0.04845056     -0.14168134               0               0               0               0       5.4037747    0.0073757349               0   2.3612695e-06     0.015554244       1.1549524
  0.00040132727      0.14182209      0.12153743               0    -0.048569173     -0.14180782               0               0               0               0       5.4037837     0.007383462               0   2.3609548e-06     0.015540683         1.15302
  0.00046549519      0.14200409      0.12116661               0    -0.048688077     -0.14193542               0               0               0               0       5.4037928    0.0073912493               0   2.3606372e-06     0.015527004       1.1510722
  0.00053033231      0.14219817      0.12069696               0    -0.048805902     -0.14206427               0               0               0               0        5.403802    0.0073990903               0   2.3603166e-06     0.015513206       1.1491091
  0.00059584562      0.14225066      0.12014638               0    -0.048925534     -0.14219444               0               0               0               0       5.4038114    0.0074069793               0    2.359993e-06     0.015499287       1.1471305
  0.00066204216      0.14232148      0.11953353               0    -0.049048377     -0.14232602               0               0               0               0       5.4038208    0.0074149118               0   2.3596663e-06     0.015485248       1.1451364
  0.00072892907      0.14249717      0.11887767               0    -0.049172255     -0.14245909               0               0               0               0       5.4038303    0.0074228842               0   2.3593365e-06     0.015471087       1.1431268
  0.00079651354      0.14265561      0.11819689               0    -0.049297378      -0.1425937               0               0               0               0       5.4038399    0.0074308942               0   2.3590036e-06     0.015456803       1.1411014
  0.00086480285      0.14270444      0.11750749               0    -0.049425433     -0.14272989               0               0               0               0       5.4038497    0.0074389408               0   2.3586676e-06     0.015442396       1.1390603
  0.00093380434      0.14276206      0.11682421               0    -0.049553488      -0.1428677               0               0               0               0       5.4038595    0.0074470237               0   2.3583284e-06     0.015427866       1.1370035
   0.0010035254      0.14298163      0.11615978               0    -0.049681546     -0.14300715               0               0               0               0       5.4038695    0.0074551437               0    2.357986e-06      0.01541321       1.1349308
   0.0010739737       0.1431585      0.11552373               0    -0.049811485     -0.14314826               0               0               0               0       5.4038796    0.0074633024               0   2.3576404e-06     0.015398429       1.1328421
   0.0011451566      0.14328683      0.11492279               0    -0.049944503     -0.14329103               0               0               0               0       5.4038898    0.0074715021               0   2.3572916e-06     0.015383521       1.1307374
   0.0012170819      0.14345035      0.11436203               0    -0.050079532     -0.14343547               0               0               0               0       5.4039001    0.0074797455               0   2.3569396e-06     0.015368486       1.1286166
   0.0012897573      0.14351121      0.11384394               0    -0.050214097     -0.14358156               0               0               0               0       5.4039105    0.0074880356               0   2.3565842e-06     0.015353323       1.1264797
   0.0013631906      0.14367003      0.11336868               0    -0.050351585      -0.1437293               0               0               0               0        5.403921    0.0074963758               0   2.3562255e-06     0.015338031       1.1243266
   0.0014373898      0.14392242      0.11293475               0    -0.050490911     -0.14387867               0               0               0               0       5.4039317    0.0075047692               0   2.3558635e-06     0.015322608       1.1221572
   0.0015123628      0.14409567      0.11253914               0    -0.050630237     -0.14402964               0               0               0               0       5.4039425    0.0075132192               0   2.3554981e-06     0.015307056       1.1199715
   0.0015881177      0.14424998       0.1121774               0    -0.050772288     -0.14418222               0               0               0               0       5.4039534    0.0075217288               0   2.3551293e-06     0.015291372       1.1177694
   0.0016646626       0.1443621      0.11184419               0    -0.050915044     -0.14433638               0               0               0               0       5.4039645    0.0075303006               0    2.354757e-06     0.015275556       1.1155508
   0.0017420058      0.14453432      0.11153392               0    -0.051059343     -0.14449209               0               0               0               0       5.4039756     0.007538937               0   2.3543813e-06     0.015259607       1.1133157
   0.0018201557      0.14471461      0.11124094               0    -0.051205567     -0.14464935               0               0               0               0       5.4039869      0.00754764               0   2.3540022e-06     0.015243524        1.111064
   0.0018991205      0.14477286      0.11095944               0    -0.051353458     -0.14480815               0               0               0               0       5.4039984    0.0075564113               0   2.3536195e-06     0.015227306       1.1087957
   0.0019789089      0.14486717      0.11068381               0    -0.051504268     -0.14496847               0               0               0               0       5.4040099    0.0075652519               0   2.3532332e-06     0.015210953       1.1065107
   0.0020595294      0.14504491      0.11040911               0    -0.051655159     -0.14513032               0               0               0               0       5.4040216    0.0075741626               0   2.3528435e-06     0.015194463       1.1042089
   0.0021409906      0.14522712      0.11013067               0    -0.051807519     -0.14529368               0               0               0               0       5.4040334    0.0075831438               0   2.3524501e-06     0.015177837       1.1018903
   0.0022233015      0.14544244      0.10984472               0    -0.051962213     -0.14545855               0               0               0               0       5.4040454    0.0075921955               0    2.352053e-06     0.015161072       1.0995548
   0.0023064707      0.14563892      0.10954816               0    -0.052119199     -0.14562494               0               0               0               0       5.4040575    0.0076013174               0   2.3516524e-06     0.015144169       1.0972024
   0.0023905073       0.1458148      0.10923825               0    -0.052278358     -0.14579286               0               0               0               0       5.4040697    0.0076105091               0    2.351248e-06     0.015127126       1.0948331
   0.0024754204      0.14604465       0.1089134               0    -0.052439357     -0.14596231               0               0               0               0       5.4040821    0.0076197696               0   2.3508399e-06     0.015109943       1.0924467
   0.0025612189      0.14618409      0.10857284               0    -0.052602401      -0.1461333               0               0               0               0       5.4040947    0.0076290982               0   2.3504281e-06     0.015092619       1.0900432
   0.0026479123      0.14628076      0.10821625               0    -0.052766896     -0.14630584               0               0               0               0       5.4041073    0.0076384939               0   2.3500125e-06     0.015075153       1.0876226
   0.0027355098      0.14642417      0.10784407               0    -0.052932537     -0.14647995               0               0               0               0       5.4041202    0.0076479556               0   2.3495931e-06     0.015057544       1.0851849
   0.0028240209      0.14666822      0.10745724               0    -0.053100477     -0.14665564               0               0               0               0       5.4041331    0.0076574824               0   2.3491699e-06     0.015039791       1.0827299
    0.002913455      0.14690103      0.10705742               0      -0.0532704     -0.14683293               0               0               0               0       5.4041462    0.0076670733               0   2.3487428e-06     0.015021895       1.0802576
   0.0030038219      0.14689961       0.1066468               0    -0.053439827     -0.14701184               0               0               0               0       5.4041595    0.0076767275               0   2.3483118e-06     0.015003852       1.0777681
   0.0030951311      0.14712886      0.10622748               0    -0.053613609     -0.14719237               0               0               0               0       5.4041729    0.0076864445               0   2.3478769e-06     0.014985665       1.0752612
   0.0031873927      0.14752628      0.10580213               0    -0.053791976     -0.14737453               0               0               0               0       5.4041865    0.0076962238               0    2.347438e-06      0.01496733        1.072737
   0.0032806164      0.14760648        0.105374               0    -0.053969168     -0.14755835               0               0               0               0       5.4042003    0.0077060652               0   2.3469952e-06     0.014948848       1.0701952
   0.0033748124      0.14766518      0.10494616               0    -0.054146706     -0.14774382               0               0               0               0       5.4042142    0.0077159689               0   2.3465483e-06     0.014930218       1.0676361
   0.0034699907       0.1478849      0.10452148               0    -0.054326796     -0.14793096               0               0               0               0       5.4042283    0.0077259352               0   2.3460974e-06     0.014911439       1.0650594
   0.0035661616      0.14806641      0.10410315               0     -0.05450946     -0.14811977               0               0               0               0       5.4042425    0.0077359648               0   2.3456424e-06      0.01489251       1.0624652
   0.0036633356      0.14818212      0.10369446               0    -0.054694255     -0.14831025               0               0               0               0       5.4042569    0.0077460588               0   2.3451833e-06      0.01487343       1.0598534
   0.0037615229      0.14846775      0.10329833               0    -0.054882694      -0.1485024               0               0               0               0       5.4042714    0.0077562185               0   2.3447201e-06     0.014854199       1.0572241
   0.0038607342      0.14879818      0.10291733               0    -0.055073425     -0.14869621               0               0               0               0       5.4042862    0.0077664456               0   2.3442527e-06     0.014834816       1.0545771
   0.0039609802      0.14898104      0.10255385               0     -0.05526473     -0.14889168               0               0               0               0       5.4043011    0.0077767419               0   2.3437812e-06     0.014815281       1.0519124
   0.0040622717      0.14918579      0.10221013               0    -0.055460717     -0.14908879               0               0               0               0       5.4043162    0.0077871098               0   2.3433054e-06     0.014795591       1.0492301
   0.0041646195      0.14933022      0.10188768               0    -0.055658992     -0.14928754               0               0               0               0       5.4043315    0.0077975517               0   2.3428253e-06     0.014775748       1.0465301
   0.0042680347      0.14941138       0.1015877               0    -0.055856607     -0.14948791               0               0               0               0       5.4043469    0.0078080703               0   2.3423409e-06     0.014755749       1.0438123
   0.0043725284      0.14963521      0.10131188               0    -0.056056612     -0.14968987               0               0               0               0       5.4043625    0.0078186684               0   2.3418522e-06     0.014735594       1.0410769
   0.0044781119      0.14988199      0.10106147               0    -0.056260651     -0.14989339               0               0               0               0       5.4043784    0.0078293493               0   2.3413591e-06     0.014715283       1.0383236
   0.0045847965      0.15006552      0.10083682               0    -0.056466319     -0.15009845               0               0               0               0       5.4043944    0.0078401163               0   2.3408616e-06     0.014694815       1.0355526
   0.0046925938      0.15028705      0.10063782               0    -0.056674671     -0.15030501               0               0               0               0       5.4044105    0.0078509728               0   2.3403597e-06     0.014674189       1.0327638
   0.0048015152      0.15047219      0.10046419               0    -0.056886103     -0.15051304               0               0               0               0       5.4044269    0.0078619222               0   2.3398534e-06     0.014653404       1.0299571
   0.0049115726      0.15065223      0.10031548               0    -0.057098869     -0.15072251               0               0               0               0       5.4044435    0.0078729681               0   2.3393426e-06      0.01463246       1.0271326
   0.0050227778      0.15094159      0.10019063               0    -0.057314193      -0.1509334               0               0               0               0       5.4044603    0.0078841141               0   2.3388272e-06     0.014611356       1.0242904
   0.0051351427      0.15124898      0.10008793               0    -0.057530894     -0.15114565               0               0               0               0       5.4044772    0.0078953636               0   2.3383074e-06     0.014590091       1.0214303
   0.0052486795       0.1514252       0.1000057               0    -0.057750396     -0.15135923               0               0               0               0       5.4044944      0.00790672               0   2.3377829e-06     0.014568664       1.0185523
   0.0053634003      0.15152587      0.09994236               0    -0.057972231     -0.15157413               0               0               0               0       5.4045118    0.0079181866               0   2.3372537e-06     0.014547075       1.0156565
   0.0054793176      0.15180465     0.099895985               0    -0.058197282     -0.15179029               0               0               0               0       5.4045294    0.0079297664               0     2.33672e-06     0.014525324       1.0127429
   0.0055964437      0.15213425     0.099864096               0    -0.058425132     -0.15200769               0               0               0               0       5.4045472    0.0079414625               0   2.3361815e-06     0.014503409       1.0098114
   0.0057147914      0.15231972     0.099844293               0    -0.058654637     -0.15222629               0               0               0               0       5.4045652    0.0079532777               0   2.3356384e-06      0.01448133       1.0068621
   0.0058343733      0.15243222     0.099834516               0    -0.058888783     -0.15244606               0               0               0               0       5.4045834    0.0079652143               0   2.3350905e-06     0.014459087        1.003895
   0.0059552024      0.15255632     0.099832298               0     -0.05912402       -0.152667               0               0               0               0       5.4046018    0.0079772749               0   2.3345378e-06     0.014436678       1.0009101
   0.0060772915      0.15284888     0.099834984               0    -0.059362101     -0.15288905               0               0               0               0       5.4046205    0.0079894613               0   2.3339803e-06     0.014414102      0.99790731
    0.006200654      0.15320755     0.099840549               0    -0.059603558     -0.15311221               0               0               0               0       5.4046393    0.0080017754               0   2.3334179e-06     0.014391361      0.99488678
   0.0063253029      0.15335911     0.099846891               0    -0.059846344     -0.15333644               0               0               0               0       5.4046585    0.0080142188               0   2.3328506e-06     0.014368452      0.99184846
   0.0064512519      0.15343884      0.09985167               0    -0.060091816     -0.15356175               0               0               0               0       5.4046778    0.0080267927               0   2.3322785e-06     0.014345375      0.98879239
   0.0065785143       0.1537148     0.099852886               0    -0.060342252     -0.15378811               0               0               0               0       5.4046973    0.0080394982               0   2.3317013e-06      0.01432213      0.98571859
    0.006707104      0.15404823     0.099848715               0    -0.060595735     -0.15401549               0               0               0               0       5.4047171    0.0080523361               0   2.3311192e-06     0.014298716      0.98262708
   0.0068370347      0.15429152      0.09983765               0    -0.060848472     -0.15424391               0               0               0               0       5.4047371    0.0080653069               0   2.3305321e-06     0.014275132      0.97951787
   0.0069683205      0.15447114     0.099818237               0    -0.061104335     -0.15447335               0               0               0               0       5.4047574     0.008078411               0   2.3299399e-06     0.014251378      0.97639101
   0.0071009754      0.15461539     0.099788985               0    -0.061364451     -0.15470379               0               0               0               0       5.4047779    0.0080916487               0   2.3293426e-06     0.014227454      0.97324653
   0.0072350138      0.15485936     0.099748922               0    -0.061628168     -0.15493524               0               0               0               0       5.4047986    0.0081050198               0   2.3287403e-06     0.014203358      0.97008445
   0.0073704501      0.15522104     0.099697168               0     -0.06189598     -0.15516769               0               0               0               0       5.4048196    0.0081185241               0   2.3281327e-06     0.014179091      0.96690482
   0.0075072989      0.15550143      0.09963288               0    -0.062165698     -0.15540115               0               0               0               0       5.4048409    0.0081321614               0     2.32752e-06     0.014154651      0.96370767