# Selection     : all 
# Volume        : 2.33333000e+00
# Time          	minMagU	location	cell
0               	1.00000000e+00	-3.13296488e-01 1.00232707e-06 5.00000000e-01	0
1               	5.90328281e-01	1.46301914e+00 1.00232707e-06 5.00000000e-01	123
2               	3.40188341e-01	1.97852077e+00 1.00232707e-06 5.00000000e-01	135
3               	2.31629965e-01	6.03404640e-03 1.00232707e-06 5.00000000e-01	25
4               	1.77027742e-01	6.03404640e-03 1.00232707e-06 5.00000000e-01	25
5               	1.45583823e-01	6.03404640e-03 1.00232707e-06 5.00000000e-01	25
6               	1.25361606e-01	6.03404640e-03 1.00232707e-06 5.00000000e-01	25
7               	1.11206097e-01	6.03404640e-03 1.00232707e-06 5.00000000e-01	25
8               	1.00650717e-01	6.03404640e-03 1.00232707e-06 5.00000000e-01	25
9               	9.24004389e-02	6.03404640e-03 1.00232707e-06 5.00000000e-01	25
10              	8.57200329e-02	6.03404640e-03 1.00232707e-06 5.00000000e-01	25
11              	8.01633858e-02	6.03404640e-03 1.00232707e-06 5.00000000e-01	25
12              	7.54429926e-02	6.03404640e-03 1.00232707e-06 5.00000000e-01	25
13              	7.13648242e-02	6.03404640e-03 1.00232707e-06 5.00000000e-01	25
14              	6.77928214e-02	6.03404640e-03 1.00232707e-06 5.00000000e-01	25
15              	6.46284206e-02	6.03404640e-03 1.00232707e-06 5.00000000e-01	25
16              	6.17982456e-02	6.03404640e-03 1.00232707e-06 5.00000000e-01	25
17              	5.92463738e-02	6.03404640e-03 1.00232707e-06 5.00000000e-01	25
18              	5.69293298e-02	6.03404640e-03 1.00232707e-06 5.00000000e-01	25
19              	5.48127265e-02	6.03404640e-03 1.00232707e-06 5.00000000e-01	25
20              	5.28689540e-02	6.03404640e-03 1.00232707e-06 5.00000000e-01	25
21              	5.10755484e-02	6.03404640e-03 1.00232707e-06 5.00000000e-01	25
22              	4.94140158e-02	6.03404640e-03 1.00232707e-06 5.00000000e-01	25
23              	4.78689707e-02	6.03404640e-03 1.00232707e-06 5.00000000e-01	25
24              	4.64274923e-02	6.03404640e-03 1.00232707e-06 5.00000000e-01	25
25              	4.50786379e-02	6.03404640e-03 1.00232707e-06 5.00000000e-01	25
26              	4.38130683e-02	6.03404640e-03 1.00232707e-06 5.00000000e-01	25
27              	4.26227570e-02	6.03404640e-03 1.00232707e-06 5.00000000e-01	25
28              	4.15007615e-02	6.03404640e-03 1.00232707e-06 5.00000000e-01	25
29              	4.04410424e-02	6.03404640e-03 1.00232707e-06 5.00000000e-01	25
30              	3.94383164e-02	6.03404640e-03 1.00232707e-06 5.00000000e-01	25
31              	3.84879384e-02	6.03404640e-03 1.00232707e-06 5.00000000e-01	25
32              	3.75858037e-02	6.03404640e-03 1.00232707e-06 5.00000000e-01	25
33              	3.67282686e-02	6.03404640e-03 1.00232707e-06 5.00000000e-01	25
34              	3.59120833e-02	6.03404640e-03 1.00232707e-06 5.00000000e-01	25
35              	3.51343368e-02	6.03404640e-03 1.00232707e-06 5.00000000e-01	25
36              	3.43924103e-02	6.03404640e-03 1.00232707e-06 5.00000000e-01	25
37              	3.36839381e-02	6.03404640e-03 1.00232707e-06 5.00000000e-01	25
38              	3.30067753e-02	6.03404640e-03 1.00232707e-06 5.00000000e-01	25
39              	3.23589705e-02	6.03404640e-03 1.00232707e-06 5.00000000e-01	25
40              	3.17387453e-02	6.03404640e-03 1.00232707e-06 5.00000000e-01	25
41              	3.11444745e-02	6.03404640e-03 1.00232707e-06 5.00000000e-01	25
42              	3.05746710e-02	6.03404640e-03 1.00232707e-06 5.00000000e-01	25
43              	3.00279753e-02	6.03404640e-03 1.00232707e-06 5.00000000e-01	25
44              	2.95031454e-02	6.03404640e-03 1.00232707e-06 5.00000000e-01	25
45              	2.89990424e-02	6.03404640e-03 1.00232707e-06 5.00000000e-01	25
46              	2.85146241e-02	6.03404640e-03 1.00232707e-06 5.00000000e-01	25
47              	2.80489402e-02	6.03404640e-03 1.00232707e-06 5.00000000e-01	25
48              	2.75919416e-02	1.00952164e-02 1.00232707e-06 5.00000000e-01	26
49              	2.71389931e-02	1.00952164e-02 1.00232707e-06 5.00000000e-01	26
50              	2.67021189e-02	1.00952164e-02 1.00232707e-06 5.00000000e-01	26
51              	2.62806690e-02	1.00952164e-02 1.00232707e-06 5.00000000e-01	26
52              	2.58740443e-02	1.00952164e-02 1.00232707e-06 5.00000000e-01	26
53              	2.54816937e-02	1.00952164e-02 1.00232707e-06 5.00000000e-01	26
54              	2.51031088e-02	1.00952164e-02 1.00232707e-06 5.00000000e-01	26
55              	2.47378211e-02	1.00952164e-02 1.00232707e-06 5.00000000e-01	26
56              	2.43853986e-02	1.00952164e-02 1.00232707e-06 5.00000000e-01	26
57              	2.40454418e-02	1.00952164e-02 1.00232707e-06 5.00000000e-01	26
58              	2.37175812e-02	1.00952164e-02 1.00232707e-06 5.00000000e-01	26
59              	2.34014752e-02	1.00952164e-02 1.00232707e-06 5.00000000e-01	26
60              	2.30968079e-02	1.00952164e-02 1.00232707e-06 5.00000000e-01	26
61              	2.28032875e-02	1.00952164e-02 1.00232707e-06 5.00000000e-01	26
62              	2.25206436e-02	1.00952164e-02 1.00232707e-06 5.00000000e-01	26
63              	2.22441902e-02	1.07639292e+00 1.00232707e-06 5.00000000e-01	114
64              	2.19704387e-02	1.07639292e+00 1.00232707e-06 5.00000000e-01	114
65              	2.17054618e-02	1.07639292e+00 1.00232707e-06 5.00000000e-01	114
66              	2.14489850e-02	1.07639292e+00 1.00232707e-06 5.00000000e-01	114
67              	2.12007465e-02	1.42006067e+00 1.00232707e-06 5.00000000e-01	122
68              	2.09604968e-02	1.46301914e+00 1.00232707e-06 5.00000000e-01	123
69              	2.07279982e-02	1.97852077e+00 1.00232707e-06 5.00000000e-01	135
70              	2.05030228e-02	1.97852077e+00 1.00232707e-06 5.00000000e-01	135
71              	2.02853518e-02	1.97852077e+00 1.00232707e-06 5.00000000e-01	135
72              	2.00747750e-02	1.97852077e+00 1.00232707e-06 5.00000000e-01	135
73              	1.98710902e-02	1.97852077e+00 1.00232707e-06 5.00000000e-01	135
74              	1.96741021e-02	1.97852077e+00 1.00232707e-06 5.00000000e-01	135
75              	1.94836223e-02	1.97852077e+00 1.00232707e-06 5.00000000e-01	135
76              	1.92994681e-02	1.97852077e+00 1.00232707e-06 5.00000000e-01	135
77              	1.91214628e-02	1.97852077e+00 1.00232707e-06 5.00000000e-01	135
78              	1.89494344e-02	1.97852077e+00 1.00232707e-06 5.00000000e-01	135
79              	1.87832159e-02	1.97852077e+00 1.00232707e-06 5.00000000e-01	135
80              	1.86226444e-02	1.97852077e+00 1.00232707e-06 5.00000000e-01	135
81              	1.84675614e-02	1.97852077e+00 1.00232707e-06 5.00000000e-01	135
82              	1.83178119e-02	1.97852077e+00 1.00232707e-06 5.00000000e-01	135
83              	1.81732443e-02	1.97852077e+00 1.00232707e-06 5.00000000e-01	135
84              	1.80337107e-02	1.97852077e+00 1.00232707e-06 5.00000000e-01	135
85              	1.78990659e-02	1.97852077e+00 1.00232707e-06 5.00000000e-01	135
86              	1.77691679e-02	1.97852077e+00 1.00232707e-06 5.00000000e-01	135
87              	1.76438774e-02	1.97852077e+00 1.00232707e-06 5.00000000e-01	135
88              	1.75230578e-02	1.97852077e+00 1.00232707e-06 5.00000000e-01	135
89              	1.74065752e-02	1.97852077e+00 1.00232707e-06 5.00000000e-01	135
90              	1.72942981e-02	1.97852077e+00 1.00232707e-06 5.00000000e-01	135
91              	1.71860976e-02	1.97852077e+00 1.00232707e-06 5.00000000e-01	135
92              	1.70818471e-02	1.97852077e+00 1.00232707e-06 5.00000000e-01	135
93              	1.69814227e-02	1.97852077e+00 1.00232707e-06 5.00000000e-01	135
94              	1.68847025e-02	1.97852077e+00 1.00232707e-06 5.00000000e-01	135
95              	1.67915673e-02	1.97852077e+00 1.00232707e-06 5.00000000e-01	135
96              	1.67019001e-02	1.97852077e+00 1.00232707e-06 5.00000000e-01	135
97              	1.66155864e-02	1.97852077e+00 1.00232707e-06 5.00000000e-01	135
98              	1.65325141e-02	1.97852077e+00 1.00232707e-06 5.00000000e-01	135
99              	1.64525734e-02	1.97852077e+00 1.00232707e-06 5.00000000e-01	135
100             	1.63756571e-02	1.97852077e+00 1.00232707e-06 5.00000000e-01	135
101             	1.63016603e-02	1.97852077e+00 1.00232707e-06 5.00000000e-01	135
102             	1.62304807e-02	1.97852077e+00 1.00232707e-06 5.00000000e-01	135
103             	1.61620183e-02	1.97852077e+00 1.00232707e-06 5.00000000e-01	135
104             	1.60961758e-02	1.97852077e+00 1.00232707e-06 5.00000000e-01	135
105             	1.60328582e-02	1.97852077e+00 1.00232707e-06 5.00000000e-01	135
106             	1.59719731e-02	1.97852077e+00 1.00232707e-06 5.00000000e-01	135
107             	1.59134306e-02	1.97852077e+00 1.00232707e-06 5.00000000e-01	135
108             	1.58571433e-02	1.97852077e+00 1.00232707e-06 5.00000000e-01	135
109             	1.58030262e-02	1.97852077e+00 1.00232707e-06 5.00000000e-01	135
110             	1.57509970e-02	1.97852077e+00 1.00232707e-06 5.00000000e-01	135
111             	1.57009757e-02	1.97852077e+00 1.00232707e-06 5.00000000e-01	135
112             	1.56528848e-02	1.97852077e+00 1.00232707e-06 5.00000000e-01	135
113             	1.56066492e-02	1.97852077e+00 1.00232707e-06 5.00000000e-01	135
114             	1.55621963e-02	1.97852077e+00 1.00232707e-06 5.00000000e-01	135
115             	1.55194558e-02	1.97852077e+00 1.00232707e-06 5.00000000e-01	135
116             	1.54783598e-02	1.97852077e+00 1.00232707e-06 5.00000000e-01	135
117             	1.54388425e-02	1.97852077e+00 1.00232707e-06 5.00000000e-01	135
118             	1.54008406e-02	1.97852077e+00 1.00232707e-06 5.00000000e-01	135
119             	1.53642929e-02	1.97852077e+00 1.00232707e-06 5.00000000e-01	135
120             	1.53291404e-02	1.97852077e+00 1.00232707e-06 5.00000000e-01	135
121             	1.52953262e-02	1.97852077e+00 1.00232707e-06 5.00000000e-01	135
122             	1.52627954e-02	1.97852077e+00 1.00232707e-06 5.00000000e-01	135
123             	1.52314952e-02	1.97852077e+00 1.00232707e-06 5.00000000e-01	135
124             	1.52013747e-02	1.97852077e+00 1.00232707e-06 5.00000000e-01	135
125             	1.51723849e-02	1.97852077e+00 1.00232707e-06 5.00000000e-01	135
126             	1.51444787e-02	1.97852077e+00 1.00232707e-06 5.00000000e-01	135
127             	1.51176108e-02	1.97852077e+00 1.00232707e-06 5.00000000e-01	135
128             	1.50917374e-02	1.97852077e+00 1.00232707e-06 5.00000000e-01	135
129             	1.50668167e-02	1.97852077e+00 1.00232707e-06 5.00000000e-01	135
130             	1.50428082e-02	1.97852077e+00 1.00232707e-06 5.00000000e-01	135
131             	1.50196732e-02	1.97852077e+00 1.00232707e-06 5.00000000e-01	135
132             	1.49973744e-02	1.97852077e+00 1.00232707e-06 5.00000000e-01	135
133             	1.49758758e-02	1.97852077e+00 1.00232707e-06 5.00000000e-01	135
134             	1.49551431e-02	1.97852077e+00 1.00232707e-06 5.00000000e-01	135
135             	1.49351431e-02	1.97852077e+00 1.00232707e-06 5.00000000e-01	135
136             	1.49158440e-02	1.97852077e+00 1.00232707e-06 5.00000000e-01	135
137             	1.48972150e-02	1.97852077e+00 1.00232707e-06 5.00000000e-01	135
138             	1.48792268e-02	1.97852077e+00 1.00232707e-06 5.00000000e-01	135
139             	1.48618511e-02	1.97852077e+00 1.00232707e-06 5.00000000e-01	135
140             	1.48450606e-02	1.97852077e+00 1.00232707e-06 5.00000000e-01	135
141             	1.48288291e-02	1.97852077e+00 1.00232707e-06 5.00000000e-01	135
142             	1.48131315e-02	1.97852077e+00 1.00232707e-06 5.00000000e-01	135
143             	1.47979436e-02	1.97852077e+00 1.00232707e-06 5.00000000e-01	135
144             	1.47832420e-02	1.97852077e+00 1.00232707e-06 5.00000000e-01	135
145             	1.47690044e-02	1.97852077e+00 1.00232707e-06 5.00000000e-01	135
146             	1.47552091e-02	1.97852077e+00 1.00232707e-06 5.00000000e-01	135
147             	1.47418353e-02	1.97852077e+00 1.00232707e-06 5.00000000e-01	135
148             	1.47288631e-02	1.97852077e+00 1.00232707e-06 5.00000000e-01	135
149             	1.47162732e-02	1.97852077e+00 1.00232707e-06 5.00000000e-01	135
150             	1.47040470e-02	1.97852077e+00 1.00232707e-06 5.00000000e-01	135
151             	1.46921668e-02	1.97852077e+00 1.00232707e-06 5.00000000e-01	135
152             	1.46806151e-02	1.97852077e+00 1.00232707e-06 5.00000000e-01	135
153             	1.46693756e-02	1.97852077e+00 1.00232707e-06 5.00000000e-01	135
154             	1.46584322e-02	1.97852077e+00 1.00232707e-06 5.00000000e-01	135
155             	1.46477694e-02	1.97852077e+00 1.00232707e-06 5.00000000e-01	135
156             	1.46373725e-02	1.97852077e+00 1.00232707e-06 5.00000000e-01	135
157             	1.46272272e-02	1.97852077e+00 1.00232707e-06 5.00000000e-01	135
158             	1.46173195e-02	1.97852077e+00 1.00232707e-06 5.00000000e-01	135
159             	1.46076363e-02	1.97852077e+00 1.00232707e-06 5.00000000e-01	135
160             	1.45981647e-02	1.97852077e+00 1.00232707e-06 5.00000000e-01	135
161             	1.45888924e-02	1.97852077e+00 1.00232707e-06 5.00000000e-01	135
162             	1.45798074e-02	1.97852077e+00 1.00232707e-06 5.00000000e-01	135
163             	1.45708981e-02	1.97852077e+00 1.00232707e-06 5.00000000e-01	135
164             	1.45621537e-02	1.97852077e+00 1.00232707e-06 5.00000000e-01	135
165             	1.45535633e-02	1.97852077e+00 1.00232707e-06 5.00000000e-01	135
166             	1.45451166e-02	1.97852077e+00 1.00232707e-06 5.00000000e-01	135
167             	1.45368039e-02	1.97852077e+00 1.00232707e-06 5.00000000e-01	135
168             	1.45286154e-02	1.97852077e+00 1.00232707e-06 5.00000000e-01	135
169             	1.45205419e-02	1.97852077e+00 1.00232707e-06 5.00000000e-01	135
170             	1.45125747e-02	1.97852077e+00 1.00232707e-06 5.00000000e-01	135
171             	1.45047051e-02	1.97852077e+00 1.00232707e-06 5.00000000e-01	135
172             	1.44969250e-02	1.97852077e+00 1.00232707e-06 5.00000000e-01	135
173             	1.44892264e-02	1.97852077e+00 1.00232707e-06 5.00000000e-01	135
174             	1.44816016e-02	1.97852077e+00 1.00232707e-06 5.00000000e-01	135
175             	1.44740434e-02	1.97852077e+00 1.00232707e-06 5.00000000e-01	135
176             	1.44665448e-02	1.97852077e+00 1.00232707e-06 5.00000000e-01	135
177             	1.44590989e-02	1.97852077e+00 1.00232707e-06 5.00000000e-01	135
178             	1.44516992e-02	1.97852077e+00 1.00232707e-06 5.00000000e-01	135
179             	1.44443396e-02	1.97852077e+00 1.00232707e-06 5.00000000e-01	135
180             	1.44370140e-02	1.97852077e+00 1.00232707e-06 5.00000000e-01	135
181             	1.44297166e-02	1.97852077e+00 1.00232707e-06 5.00000000e-01	135
182             	1.44224420e-02	1.97852077e+00 1.00232707e-06 5.00000000e-01	135
183             	1.44151848e-02	1.97852077e+00 1.00232707e-06 5.00000000e-01	135
184             	1.44079401e-02	1.97852077e+00 1.00232707e-06 5.00000000e-01	135
185             	1.44007029e-02	1.97852077e+00 1.00232707e-06 5.00000000e-01	135
186             	1.43934688e-02	1.97852077e+00 1.00232707e-06 5.00000000e-01	135
187             	1.43862331e-02	1.97852077e+00 1.00232707e-06 5.00000000e-01	135
188             	1.43789918e-02	1.97852077e+00 1.00232707e-06 5.00000000e-01	135
189             	1.43717409e-02	1.97852077e+00 1.00232707e-06 5.00000000e-01	135
190             	1.43644765e-02	1.97852077e+00 1.00232707e-06 5.00000000e-01	135
191             	1.43571949e-02	1.97852077e+00 1.00232707e-06 5.00000000e-01	135
192             	1.43498927e-02	1.97852077e+00 1.00232707e-06 5.00000000e-01	135
193             	1.43425667e-02	1.97852077e+00 1.00232707e-06 5.00000000e-01	135
194             	1.43352137e-02	1.97852077e+00 1.00232707e-06 5.00000000e-01	135
195             	1.43278308e-02	1.97852077e+00 1.00232707e-06 5.00000000e-01	135
196             	1.43204153e-02	1.97852077e+00 1.00232707e-06 5.00000000e-01	135
197             	1.43129644e-02	1.97852077e+00 1.00232707e-06 5.00000000e-01	135
198             	1.43054757e-02	1.97852077e+00 1.00232707e-06 5.00000000e-01	135
199             	1.42979469e-02	1.97852077e+00 1.00232707e-06 5.00000000e-01	135
200             	1.42903758e-02	1.97852077e+00 1.00232707e-06 5.00000000e-01	135
201             	1.42827605e-02	1.97852077e+00 1.00232707e-06 5.00000000e-01	135
202             	1.42750989e-02	1.97852077e+00 1.00232707e-06 5.00000000e-01	135
203             	1.42673893e-02	1.97852077e+00 1.00232707e-06 5.00000000e-01	135
204             	1.42596302e-02	1.97852077e+00 1.00232707e-06 5.00000000e-01	135
205             	1.42518199e-02	1.97852077e+00 1.00232707e-06 5.00000000e-01	135
206             	1.42439572e-02	1.97852077e+00 1.00232707e-06 5.00000000e-01	135
207             	1.42360406e-02	1.97852077e+00 1.00232707e-06 5.00000000e-01	135
208             	1.42280691e-02	1.97852077e+00 1.00232707e-06 5.00000000e-01	135
209             	1.42200417e-02	1.97852077e+00 1.00232707e-06 5.00000000e-01	135
210             	1.42119573e-02	1.97852077e+00 1.00232707e-06 5.00000000e-01	135
211             	1.42038152e-02	1.97852077e+00 1.00232707e-06 5.00000000e-01	135
212             	1.41956146e-02	1.97852077e+00 1.00232707e-06 5.00000000e-01	135
213             	1.41873548e-02	1.97852077e+00 1.00232707e-06 5.00000000e-01	135
214             	1.41790354e-02	1.97852077e+00 1.00232707e-06 5.00000000e-01	135
215             	1.41706558e-02	1.97852077e+00 1.00232707e-06 5.00000000e-01	135
216             	1.41622158e-02	1.97852077e+00 1.00232707e-06 5.00000000e-01	135
217             	1.41537150e-02	1.97852077e+00 1.00232707e-06 5.00000000e-01	135
218             	1.41451532e-02	1.97852077e+00 1.00232707e-06 5.00000000e-01	135
219             	1.41365303e-02	1.97852077e+00 1.00232707e-06 5.00000000e-01	135
220             	1.41278463e-02	1.97852077e+00 1.00232707e-06 5.00000000e-01	135
221             	1.41191011e-02	1.97852077e+00 1.00232707e-06 5.00000000e-01	135
222             	1.41102950e-02	1.97852077e+00 1.00232707e-06 5.00000000e-01	135
223             	1.41014280e-02	1.97852077e+00 1.00232707e-06 5.00000000e-01	135
224             	1.40925003e-02	1.97852077e+00 1.00232707e-06 5.00000000e-01	135
225             	1.40835123e-02	1.97852077e+00 1.00232707e-06 5.00000000e-01	135
226             	1.40744643e-02	1.97852077e+00 1.00232707e-06 5.00000000e-01	135
227             	1.40653567e-02	1.97852077e+00 1.00232707e-06 5.00000000e-01	135
228             	1.40561900e-02	1.97852077e+00 1.00232707e-06 5.00000000e-01	135
229             	1.40469646e-02	1.97852077e+00 1.00232707e-06 5.00000000e-01	135
230             	1.40376812e-02	1.97852077e+00 1.00232707e-06 5.00000000e-01	135
231             	1.40283403e-02	1.97852077e+00 1.00232707e-06 5.00000000e-01	135
232             	1.40189426e-02	1.97852077e+00 1.00232707e-06 5.00000000e-01	135
233             	1.40094887e-02	1.97852077e+00 1.00232707e-06 5.00000000e-01	135
234             	1.39999794e-02	1.97852077e+00 1.00232707e-06 5.00000000e-01	135
235             	1.39904155e-02	1.97852077e+00 1.00232707e-06 5.00000000e-01	135
236             	1.39807977e-02	1.97852077e+00 1.00232707e-06 5.00000000e-01	135
237             	1.39711268e-02	1.97852077e+00 1.00232707e-06 5.00000000e-01	135
238             	1.39614038e-02	1.97852077e+00 1.00232707e-06 5.00000000e-01	135
239             	1.39516295e-02	1.97852077e+00 1.00232707e-06 5.00000000e-01	135
240             	1.39418049e-02	1.97852077e+00 1.00232707e-06 5.00000000e-01	135
241             	1.39319308e-02	1.97852077e+00 1.00232707e-06 5.00000000e-01	135
242             	1.39220082e-02	1.97852077e+00 1.00232707e-06 5.00000000e-01	135
243             	1.39120382e-02	1.97852077e+00 1.00232707e-06 5.00000000e-01	135
244             	1.39020216e-02	1.97852077e+00 1.00232707e-06 5.00000000e-01	135
245             	1.38919595e-02	1.97852077e+00 1.00232707e-06 5.00000000e-01	135
246             	1.38818530e-02	1.97852077e+00 1.00232707e-06 5.00000000e-01	135
247             	1.38717031e-02	1.97852077e+00 1.00232707e-06 5.00000000e-01	135
248             	1.38615109e-02	1.97852077e+00 1.00232707e-06 5.00000000e-01	135
249             	1.38512773e-02	1.97852077e+00 1.00232707e-06 5.00000000e-01	135
250             	1.38410035e-02	1.97852077e+00 1.00232707e-06 5.00000000e-01	135
251             	1.38306906e-02	1.97852077e+00 1.00232707e-06 5.00000000e-01	135
252             	1.38203396e-02	1.97852077e+00 1.00232707e-06 5.00000000e-01	135
253             	1.38099517e-02	1.97852077e+00 1.00232707e-06 5.00000000e-01	135
254             	1.37995279e-02	1.97852077e+00 1.00232707e-06 5.00000000e-01	135
255             	1.37890693e-02	1.97852077e+00 1.00232707e-06 5.00000000e-01	135
256             	1.37785771e-02	1.97852077e+00 1.00232707e-06 5.00000000e-01	135
257             	1.37680523e-02	1.97852077e+00 1.00232707e-06 5.00000000e-01	135
258             	1.37574960e-02	1.97852077e+00 1.00232707e-06 5.00000000e-01	135
259             	1.37469094e-02	1.97852077e+00 1.00232707e-06 5.00000000e-01	135
260             	1.37362935e-02	1.97852077e+00 1.00232707e-06 5.00000000e-01	135
261             	1.37256493e-02	1.97852077e+00 1.00232707e-06 5.00000000e-01	135
262             	1.37149781e-02	1.97852077e+00 1.00232707e-06 5.00000000e-01	135
263             	1.37042808e-02	1.97852077e+00 1.00232707e-06 5.00000000e-01	135
264             	1.36935586e-02	1.97852077e+00 1.00232707e-06 5.00000000e-01	135
265             	1.36828125e-02	1.97852077e+00 1.00232707e-06 5.00000000e-01	135
266             	1.36720435e-02	1.97852077e+00 1.00232707e-06 5.00000000e-01	135
267             	1.36612527e-02	1.97852077e+00 1.00232707e-06 5.00000000e-01	135
268             	1.36504412e-02	1.97852077e+00 1.00232707e-06 5.00000000e-01	135
269             	1.36396099e-02	1.97852077e+00 1.00232707e-06 5.00000000e-01	135
270             	1.36287600e-02	1.97852077e+00 1.00232707e-06 5.00000000e-01	135
271             	1.36178923e-02	1.97852077e+00 1.00232707e-06 5.00000000e-01	135
272             	1.36070079e-02	1.97852077e+00 1.00232707e-06 5.00000000e-01	135
273             	1.35961078e-02	1.97852077e+00 1.00232707e-06 5.00000000e-01	135
274             	1.35851930e-02	1.97852077e+00 1.00232707e-06 5.00000000e-01	135
275             	1.35742644e-02	1.97852077e+00 1.00232707e-06 5.00000000e-01	135
276             	1.35633230e-02	1.97852077e+00 1.00232707e-06 5.00000000e-01	135
277             	1.35523696e-02	1.97852077e+00 1.00232707e-06 5.00000000e-01	135
278             	1.35414053e-02	1.97852077e+00 1.00232707e-06 5.00000000e-01	135
279             	1.35304310e-02	1.97852077e+00 1.00232707e-06 5.00000000e-01	135
280             	1.35194475e-02	1.97852077e+00 1.00232707e-06 5.00000000e-01	135
281             	1.35084557e-02	1.97852077e+00 1.00232707e-06 5.00000000e-01	135
282             	1.34974565e-02	1.97852077e+00 1.00232707e-06 5.00000000e-01	135
283             	1.34864507e-02	1.97852077e+00 1.00232707e-06 5.00000000e-01	135
284             	1.34754393e-02	1.97852077e+00 1.00232707e-06 5.00000000e-01	135
285             	1.34644230e-02	1.97852077e+00 1.00232707e-06 5.00000000e-01	135
286             	1.34534026e-02	1.97852077e+00 1.00232707e-06 5.00000000e-01	135
287             	1.34423790e-02	1.97852077e+00 1.00232707e-06 5.00000000e-01	135
288             	1.34313529e-02	1.97852077e+00 1.00232707e-06 5.00000000e-01	135
289             	1.34203251e-02	1.97852077e+00 1.00232707e-06 5.00000000e-01	135
290             	1.34092964e-02	1.97852077e+00 1.00232707e-06 5.00000000e-01	135
291             	1.33982675e-02	1.97852077e+00 1.00232707e-06 5.00000000e-01	135
292             	1.33872391e-02	1.97852077e+00 1.00232707e-06 5.00000000e-01	135
293             	1.33762120e-02	1.97852077e+00 1.00232707e-06 5.00000000e-01	135
294             	1.33651869e-02	1.97852077e+00 1.00232707e-06 5.00000000e-01	135
295             	1.33541645e-02	1.97852077e+00 1.00232707e-06 5.00000000e-01	135
296             	1.33431454e-02	1.97852077e+00 1.00232707e-06 5.00000000e-01	135
297             	1.33321304e-02	1.97852077e+00 1.00232707e-06 5.00000000e-01	135
298             	1.33211200e-02	1.97852077e+00 1.00232707e-06 5.00000000e-01	135
299             	1.33101149e-02	1.97852077e+00 1.00232707e-06 5.00000000e-01	135
300             	1.32991158e-02	1.97852077e+00 1.00232707e-06 5.00000000e-01	135
301             	1.32881232e-02	1.97852077e+00 1.00232707e-06 5.00000000e-01	135
302             	1.32771378e-02	1.97852077e+00 1.00232707e-06 5.00000000e-01	135
303             	1.32661601e-02	1.97852077e+00 1.00232707e-06 5.00000000e-01	135
304             	1.32551907e-02	1.97852077e+00 1.00232707e-06 5.00000000e-01	135
305             	1.32442303e-02	1.97852077e+00 1.00232707e-06 5.00000000e-01	135
306             	1.32332793e-02	1.97852077e+00 1.00232707e-06 5.00000000e-01	135
307             	1.32223383e-02	1.97852077e+00 1.00232707e-06 5.00000000e-01	135
308             	1.32114078e-02	1.97852077e+00 1.00232707e-06 5.00000000e-01	135
309             	1.32004884e-02	1.97852077e+00 1.00232707e-06 5.00000000e-01	135
310             	1.31895805e-02	1.97852077e+00 1.00232707e-06 5.00000000e-01	135
311             	1.31786847e-02	1.97852077e+00 1.00232707e-06 5.00000000e-01	135
312             	1.31678014e-02	1.97852077e+00 1.00232707e-06 5.00000000e-01	135
313             	1.31569311e-02	1.97852077e+00 1.00232707e-06 5.00000000e-01	135
314             	1.31460744e-02	1.97852077e+00 1.00232707e-06 5.00000000e-01	135
315             	1.31352315e-02	1.97852077e+00 1.00232707e-06 5.00000000e-01	135
316             	1.31244031e-02	1.97852077e+00 1.00232707e-06 5.00000000e-01	135
317             	1.31135895e-02	1.97852077e+00 1.00232707e-06 5.00000000e-01	135
318             	1.31027912e-02	1.97852077e+00 1.00232707e-06 5.00000000e-01	135
319             	1.30920086e-02	1.97852077e+00 1.00232707e-06 5.00000000e-01	135
320             	1.30812420e-02	1.97852077e+00 1.00232707e-06 5.00000000e-01	135
321             	1.30704920e-02	1.97852077e+00 1.00232707e-06 5.00000000e-01	135
322             	1.30597588e-02	1.97852077e+00 1.00232707e-06 5.00000000e-01	135
323             	1.30490429e-02	1.97852077e+00 1.00232707e-06 5.00000000e-01	135
324             	1.30383447e-02	1.97852077e+00 1.00232707e-06 5.00000000e-01	135
325             	1.30276644e-02	1.97852077e+00 1.00232707e-06 5.00000000e-01	135
326             	1.30170026e-02	1.97852077e+00 1.00232707e-06 5.00000000e-01	135
327             	1.30063594e-02	1.97852077e+00 1.00232707e-06 5.00000000e-01	135
328             	1.29957354e-02	1.97852077e+00 1.00232707e-06 5.00000000e-01	135
329             	1.29851307e-02	1.97852077e+00 1.00232707e-06 5.00000000e-01	135
330             	1.29745458e-02	1.97852077e+00 1.00232707e-06 5.00000000e-01	135
331             	1.29639809e-02	1.97852077e+00 1.00232707e-06 5.00000000e-01	135
332             	1.29534364e-02	1.97852077e+00 1.00232707e-06 5.00000000e-01	135
333             	1.29429126e-02	1.97852077e+00 1.00232707e-06 5.00000000e-01	135
334             	1.29324098e-02	1.97852077e+00 1.00232707e-06 5.00000000e-01	135
335             	1.29219282e-02	1.97852077e+00 1.00232707e-06 5.00000000e-01	135
336             	1.29114682e-02	1.97852077e+00 1.00232707e-06 5.00000000e-01	135
337             	1.29010301e-02	1.97852077e+00 1.00232707e-06 5.00000000e-01	135
338             	1.28906140e-02	1.97852077e+00 1.00232707e-06 5.00000000e-01	135
339             	1.28802204e-02	1.97852077e+00 1.00232707e-06 5.00000000e-01	135
340             	1.28698494e-02	1.97852077e+00 1.00232707e-06 5.00000000e-01	135
341             	1.28595013e-02	1.97852077e+00 1.00232707e-06 5.00000000e-01	135
342             	1.28491763e-02	1.97852077e+00 1.00232707e-06 5.00000000e-01	135
343             	1.28388748e-02	1.97852077e+00 1.00232707e-06 5.00000000e-01	135
344             	1.28285969e-02	1.97852077e+00 1.00232707e-06 5.00000000e-01	135
345             	1.28183429e-02	1.97852077e+00 1.00232707e-06 5.00000000e-01	135
346             	1.28081130e-02	1.97852077e+00 1.00232707e-06 5.00000000e-01	135
347             	1.27979075e-02	1.97852077e+00 1.00232707e-06 5.00000000e-01	135
348             	1.27877265e-02	1.97852077e+00 1.00232707e-06 5.00000000e-01	135
349             	1.27775702e-02	1.97852077e+00 1.00232707e-06 5.00000000e-01	135
350             	1.27674390e-02	1.97852077e+00 1.00232707e-06 5.00000000e-01	135
351             	1.27573329e-02	1.97852077e+00 1.00232707e-06 5.00000000e-01	135
352             	1.27472522e-02	1.97852077e+00 1.00232707e-06 5.00000000e-01	135
353             	1.27371971e-02	1.97852077e+00 1.00232707e-06 5.00000000e-01	135
354             	1.27271678e-02	1.97852077e+00 1.00232707e-06 5.00000000e-01	135
355             	1.27171645e-02	1.97852077e+00 1.00232707e-06 5.00000000e-01	135
356             	1.27071873e-02	1.97852077e+00 1.00232707e-06 5.00000000e-01	135
357             	1.26972364e-02	1.97852077e+00 1.00232707e-06 5.00000000e-01	135
358             	1.26873120e-02	1.97852077e+00 1.00232707e-06 5.00000000e-01	135
359             	1.26774143e-02	1.97852077e+00 1.00232707e-06 5.00000000e-01	135
360             	1.26675434e-02	1.97852077e+00 1.00232707e-06 5.00000000e-01	135
361             	1.26576995e-02	1.97852077e+00 1.00232707e-06 5.00000000e-01	135
362             	1.26478827e-02	1.97852077e+00 1.00232707e-06 5.00000000e-01	135
363             	1.26380933e-02	1.97852077e+00 1.00232707e-06 5.00000000e-01	135
364             	1.26283314e-02	1.97852077e+00 1.00232707e-06 5.00000000e-01	135
365             	1.26185970e-02	1.97852077e+00 1.00232707e-06 5.00000000e-01	135
366             	1.26088904e-02	1.97852077e+00 1.00232707e-06 5.00000000e-01	135
367             	1.25992118e-02	1.97852077e+00 1.00232707e-06 5.00000000e-01	135
368             	1.25895611e-02	1.97852077e+00 1.00232707e-06 5.00000000e-01	135