#      distance             U_x             U_y             U_z wallShearStr... wallShearStr... wallShearStr...               p         epsilon               k             nut
  3.0219182e-06      0.03188678   5.3194254e-09   -5.143199e-23               0               0               0     0.000422783       9.6611061   0.00048434146   4.8185411e-09
  5.0865428e-06     0.052683928   1.3404144e-08  -2.1977473e-23               0               0               0   0.00042278354       6.4270142    0.0010207089   1.9252151e-08
  7.2269684e-06     0.072300121   2.5600322e-08  -3.9651186e-23               0               0               0   0.00042278419       5.3816392     0.001619026   4.9078727e-08
  9.4750924e-06     0.090142076   4.1526083e-08  -5.9470418e-23               0               0               0   0.00042278502       4.8854842    0.0022032479   9.4267444e-08
  1.1864417e-05      0.10612162   6.0948874e-08  -2.3427612e-23               0               0               0   0.00042278605       4.5658761    0.0027311593   1.5132501e-07
  1.4430548e-05      0.12052419   8.3989648e-08   4.9117146e-23               0               0               0    0.0004227873        4.305856    0.0031926742   2.1696796e-07
  1.7211727e-05      0.13372886   1.1101954e-07   8.0883442e-23               0               0               0   0.00042278877        4.067736    0.0035938124    2.894854e-07
  2.0249401e-05      0.14606518   1.4258435e-07   2.0210836e-23               0               0               0   0.00042279046       3.8394163    0.0039444828   3.6841382e-07
  2.3588836e-05      0.15778573   1.7938433e-07   -1.589416e-23               0               0               0   0.00042279241       3.6171013     0.004253767   4.5401433e-07
  2.7279799e-05      0.16907755   2.2227595e-07    -7.94708e-24               0               0               0   0.00042279463       3.3998008    0.0045289026   5.4695817e-07
  3.1377293e-05      0.18007878   2.7228167e-07               0               0               0               0   0.00042279717       3.1875289    0.0047754233   6.4817574e-07
  3.5942381e-05      0.19089225   3.3060657e-07   2.9343828e-23               0               0               0   0.00042280008        2.980678    0.0049975327   7.5879215e-07
  4.1043091e-05      0.20159526   3.9866148e-07   4.4011034e-23               0               0               0   0.00042280341       2.7797809     0.005198452   8.8010562e-07
  4.6755437e-05      0.21224637   4.7809192e-07   5.1556393e-23               0               0               0   0.00042280723       2.5854076    0.0053806915   1.0135877e-06
  5.3164546e-05      0.22289019   5.7081281e-07   5.5327862e-23               0               0               0   0.00042281161       2.3981123    0.0055462496   1.1608956e-06
  6.0365928e-05      0.23356075   6.7904931e-07  -9.4125753e-23               0               0               0   0.00042281663       2.2184025     0.005696756   1.3238912e-06
    6.84669e-05       0.2442839   8.0538437e-07  -1.9870435e-22               0               0               0   0.00042282242       2.0467164    0.0058335735   1.5046665e-06
  7.7588184e-05      0.25507915   9.5281392e-07   -1.068767e-22               0               0               0   0.00042282907       1.8834094    0.0059578699   1.7055727e-06
   8.786571e-05      0.26596094   1.1248108e-06   3.5084955e-23               0               0               0   0.00042283673       1.7287452    0.0060706686   1.9292535e-06
  9.9452634e-05      0.27693973   1.3253987e-06   1.5589004e-22               0               0               0   0.00042284556       1.5828915     0.006172884   2.1786826e-06
  0.00011252163      0.28802273   1.5592376e-06   2.9364937e-23               0               0               0   0.00042285573       1.4459203    0.0062653455   2.4572064e-06
  0.00012726745       0.2992146   1.8317222e-06  -9.0898002e-23               0               0               0   0.00042286747       1.3178117    0.0063488141   2.7685903e-06
  0.00014390985      0.31051791   2.1490968e-06  -2.0194631e-23               0               0               0   0.00042288101       1.1984606    0.0064239932   3.1170712e-06
  0.00016269684      0.32193356   2.5185864e-06   5.1648852e-23               0               0               0   0.00042289664        1.087685    0.0064915359   3.5074153e-06
  0.00018390838      0.33346117   2.9485497e-06     4.07231e-22               0               0               0   0.00042291469      0.98523651    0.0065520492   3.9449818e-06
  0.00020786057      0.34509935   3.4486557e-06   5.0750004e-22               0               0               0   0.00042293552      0.89081086    0.0066060969    4.435794e-06
  0.00023491035      0.35684595   4.0300878e-06   1.5191789e-22               0               0               0   0.00042295958      0.80405928    0.0066542012   4.9866168e-06
  0.00026546084      0.36869828   4.7057807e-06               0               0               0               0   0.00042298737      0.72459914    0.0066968435   5.6050419e-06
   0.0002999673      0.38065331   5.4906949e-06               0               0               0               0   0.00042301947      0.65202414    0.0067344652   6.2995806e-06
  0.00033894396      0.39270782   6.4021348e-06    -1.69514e-22               0               0               0   0.00042305655      0.58591362     0.006767468   7.0797647e-06
  0.00038297165      0.40485854   7.4601188e-06    -3.39028e-22               0               0               0   0.00042309937      0.52584075    0.0067962139   7.9562542e-06
  0.00043270649      0.41710232   8.6878082e-06   7.3267534e-22               0               0               0   0.00042314882      0.47137968    0.0068210257    8.940953e-06
  0.00048888965      0.42943619   1.0112008e-05   1.4263547e-21               0               0               0   0.00042320591      0.42211141     0.006842187    1.004713e-05
  0.00055235838      0.44185749   1.1763748e-05    5.241654e-22               0               0               0   0.00042327183      0.37762864    0.0068599421   1.1289545e-05
   0.0006240585      0.45436398   1.3678964e-05               0               0               0               0   0.00042334789      0.33753955    0.0068744961   1.2684573e-05
  0.00070505852      0.46695392   1.5899293e-05   2.4499811e-22               0               0               0   0.00042343565      0.30147053    0.0068860143   1.4250334e-05
  0.00079656552      0.47962613   1.8472999e-05   4.8999623e-22               0               0               0   0.00042353685      0.26906824     0.006894622   1.6006802e-05
  0.00089994316      0.49238013   2.1456072e-05   2.4499811e-22               0               0               0   0.00042365351      0.24000077    0.0069004027   1.7975916e-05
    0.001016732       0.5052162   2.4913509e-05               0               0               0               0   0.00042378789      0.21395826    0.0069033974   2.0181648e-05
   0.0011486725      0.51813547   2.8920836e-05    1.058787e-21               0               0               0    0.0004239426      0.19065307    0.0069036019   2.2650043e-05
   0.0012977308      0.53114004   3.3565902e-05  -8.2147529e-22               0               0               0   0.00042412058      0.16981944    0.0069009644     2.54092e-05
   0.0014661282      0.54423304   3.8951022e-05  -3.6150289e-21               0               0               0   0.00042432514      0.15121291    0.0068953811   2.8489175e-05
   0.0016563743      0.55741881   4.5195524e-05  -2.8689984e-21               0               0               0   0.00042456001      0.13460946     0.006886692   3.1921767e-05
   0.0018713042      0.57070301   5.2438815e-05  -1.7380536e-21               0               0               0   0.00042482938      0.11980451    0.0068746746   3.5740171e-05
   0.0021141207      0.58409277   6.0844061e-05  -6.0382175e-22               0               0               0   0.00042513789      0.10661181    0.0068590357   3.9978427e-05
   0.0023884425      0.59759685   7.0602654e-05  -4.4694366e-22               0               0               0   0.00042549068     0.094862239    0.0068394023   4.4670623e-05
   0.0026983575      0.61122586   8.1939634e-05   1.2394331e-21               0               0               0   0.00042589337     0.084402563    0.0068153095   4.9849774e-05
   0.0030484842      0.62499251   9.5120315e-05  -2.3816305e-21               0               0               0   0.00042635206     0.075094245    0.0067861848   5.5546291e-05
   0.0034440402      0.63891181   0.00011045843  -5.9237464e-21               0               0               0   0.00042687322     0.066812213    0.0067513303   6.1785937e-05
   0.0038909203      0.65300144   0.00012832613  -1.8557391e-21               0               0               0   0.00042746361     0.059443691    0.0067098986   6.8587153e-05
    0.004395784      0.66728207   0.00014916646   3.5022886e-21               0               0               0   0.00042813006     0.052887069    0.0066608638   7.5957598e-05
   0.0049661549      0.68177776   0.00017350868  -4.4839488e-21               0               0               0   0.00042887914     0.047050816    0.0066029854   8.3889767e-05
   0.0056105328      0.69651641   0.00020198753  -1.4231624e-20               0               0               0   0.00042971663     0.041852442    0.0065347614   9.2355496e-05
   0.0063385204       0.7115303   0.00023536713   5.0567562e-21               0               0               0   0.00043064676     0.037217515    0.0064543709   0.00010129918
   0.0071609664      0.72685662   0.00027457066   1.8695832e-20               0               0               0   0.00043167104     0.033078709    0.0063596006   0.00011062951
   0.0080901272      0.74253814   0.00032071694   2.5720222e-20               0               0               0   0.00043278658     0.029374894     0.006247752   0.00012020958
   0.0091398493       0.7586238   0.00037516869   2.8291909e-20               0               0               0   0.00043398474     0.026050248    0.0061155234   0.00012984515
    0.010325776      0.77516932   0.00043960377   1.4089311e-20               0               0               0   0.00043524988     0.023053378    0.0059588613   0.00013927112
     0.01166558      0.79223773   0.00051610119   4.1239363e-21               0               0               0   0.00043654666     0.020336448     0.005772773   0.00014813598
    0.013179228      0.80989943   0.00060694197   2.0889761e-20               0               0               0   0.00043781039       0.0178543    0.0055510945   0.00015598453
    0.014889277       0.8282316   0.00071526965   2.2219487e-20               0               0               0   0.00043895232     0.015563591    0.0052862095   0.00016223917
    0.016821209       0.8473158   0.00084502906   4.2316086e-20               0               0               0   0.00043985149      0.01342202    0.0049687327   0.00016618028
    0.019003816      0.86723265    0.0010004765   6.0217563e-20               0               0               0    0.0004403335     0.011387845    0.0045872008   0.00016692732
    0.021469624      0.88804955    0.0011868207   2.9910968e-20               0               0               0   0.00044014052    0.0094202072    0.0041279119   0.00016342418
    0.024255377      0.90979361    0.0014099902   9.9497832e-21               0               0               0   0.00043889385    0.0074816448    0.0035753257   0.00015443842
    0.027402591      0.93238703    0.0016750473  -7.3002021e-22               0               0               0   0.00043606018    0.0055465641    0.0029142976   0.00013861092
    0.030958166      0.95546248    0.0019871726               0               0               0               0    0.0004312327    0.0036282866    0.0021393598   0.00011476196
    0.034975088      0.97762304    0.0023383823               0               0               0               0    0.0004238894    0.0018822859    0.0013023788   8.3538161e-05
    0.039513219      0.99489836    0.0026368797   3.5426711e-20               0               0               0   0.00041182411   0.00066630112   0.00060624687    5.663523e-05
    0.044640187       1.0037915    0.0027797989   3.0025097e-20               0               0               0   0.00039499063   0.00014408075   0.00024681914   5.9129645e-05
    0.050432395        1.006372    0.0028046122  -3.2258479e-20               0               0               0    0.0003774378   2.7748863e-05   0.00014953412   9.9688036e-05
    0.056976161        1.006844    0.0027948618    -3.06041e-20               0               0               0    0.0003612426   1.1524826e-05   0.00013512491   0.00015470943
    0.064369002       1.0069592    0.0027778785  -3.7472998e-21               0               0               0   0.00034554096   8.1383447e-06   0.00013323425     0.000200077
    0.072721087       1.0070031    0.0027568913               0               0               0               0   0.00032957926   6.9645191e-06   0.00013355508    0.0002318799
    0.082156882       1.0070162    0.0027317485               0               0               0               0   0.00031354021   6.3832697e-06   0.00013436739   0.00025526027
    0.092817002       1.0070087    0.0027027889               0               0               0               0   0.00029802941   6.0143632e-06   0.00013520591   0.00027398776
