#      distance             U_x             U_y             U_z wallShearStr... wallShearStr... wallShearStr...               p             nut         nuTilda
  3.0219182e-06     0.020026933   1.7997829e-09  -2.9140713e-23               0               0               0   0.00018658946   3.5820699e-12   4.5127209e-08
  5.0865428e-06     0.033706928   4.5701113e-09  -1.2299053e-23               0               0               0    0.0001865896    1.773723e-11   7.5943361e-08
  7.2269684e-06     0.047880867    9.007654e-09  -3.1672756e-23               0               0               0   0.00018658974   6.0528596e-11   1.0786714e-07
  9.4750924e-06     0.062753553   1.5363086e-08  -4.7504053e-23               0               0               0    0.0001865899   1.6460173e-10   1.4136577e-07
  1.1864417e-05      0.07853567   2.3997111e-08  -2.0321853e-23               0               0               0   0.00018659006   3.8647033e-10   1.7692908e-07
  1.4430548e-05     0.095442964   3.5426635e-08   6.5212481e-23               0               0               0   0.00018659023   8.2137499e-10   2.1507632e-07
  1.7211727e-05      0.11369229   5.0333389e-08   1.0678793e-22               0               0               0   0.00018659042   1.6273022e-09   2.5636349e-07
  2.0249401e-05      0.13349213   6.9588301e-08   2.1922838e-23               0               0               0   0.00018659064   3.0630491e-09   3.0139161e-07
  2.3588836e-05       0.1550239   9.4279236e-08  -3.0324112e-23               0               0               0   0.00018659089     5.54742e-09   3.5081672e-07
  2.7279799e-05      0.17840905   1.2572687e-07  -1.5162056e-23               0               0               0   0.00018659118   9.7492372e-09   4.0536272e-07
  3.1377293e-05      0.20365769   1.6546941e-07               0               0               0               0   0.00018659153   1.6720109e-08   4.6583878e-07
  3.5942381e-05      0.23059959   2.1519039e-07   7.0171543e-23               0               0               0   0.00018659197   2.8081493e-08   5.3316182e-07
  4.1043091e-05      0.25881358   2.7656759e-07   1.0524606e-22               0               0               0   0.00018659256   4.6267999e-08   6.0837945e-07
  4.6755437e-05      0.28759532   3.5105539e-07   1.2142978e-22               0               0               0   0.00018659336   7.4796064e-08   6.9267902e-07
  5.3164546e-05      0.31601778   4.3968702e-07   1.2951904e-22               0               0               0   0.00018659448   1.1845532e-07   7.8736292e-07
  6.0365928e-05      0.34310902   5.4304719e-07  -1.8239568e-22               0               0               0   0.00018659606   1.8322877e-07   8.9379222e-07
    6.84669e-05      0.36808939    6.615155e-07  -3.9800286e-22               0               0               0   0.00018659826   2.7573483e-07   1.0133483e-06
  7.7588184e-05      0.39054481   7.9569911e-07  -2.1228035e-22               0               0               0   0.00018660126   4.0215858e-07   1.1474731e-06
   8.786571e-05      0.41044894   9.4683095e-07    3.351318e-23               0               0               0   0.00018660522   5.6695645e-07    1.297782e-06
  9.9452634e-05      0.42805649   1.1169698e-06   1.9484999e-22               0               0               0   0.00018661024   7.7187329e-07   1.4661792e-06
  0.00011252163      0.44375691   1.3090143e-06   5.6608239e-23               0               0               0   0.00018661635   1.0157918e-06    1.654925e-06
  0.00012726745      0.45795957   1.5266402e-06  -7.9108269e-23               0               0               0   0.00018662354   1.2955765e-06   1.8666559e-06
  0.00014390985      0.47103047   1.7742527e-06   -1.421664e-23               0               0               0   0.00018663178   1.6075623e-06   2.1043865e-06
  0.00016269684      0.48326911   2.0569884e-06    5.133868e-23               0               0               0   0.00018664106   1.9490422e-06   2.3715135e-06
  0.00018390838      0.49490799   2.3807709e-06   3.6679283e-22               0               0               0   0.00018665142   2.3192334e-06   2.6718316e-06
  0.00020786057      0.50612157   2.7524111e-06   4.4746952e-22               0               0               0   0.00018666294   2.7195798e-06   3.0095616e-06
  0.00023491035      0.51703784   3.1797452e-06   1.3201537e-22               0               0               0    0.0001866758   3.1535673e-06     3.38939e-06
  0.00026546084      0.52774922   3.6718058e-06               0               0               0               0    0.0001866902   3.6263261e-06   3.8165154e-06
   0.0002999673      0.53832166   4.2390262e-06               0               0               0               0   0.00018670643   4.1442314e-06   4.2966995e-06
  0.00033894396      0.54880188    4.893483e-06   -1.502512e-22               0               0               0    0.0001867248   4.7146021e-06    4.836317e-06
  0.00038297165      0.55922284   5.6491842e-06   -3.005024e-22               0               0               0   0.00018674569   5.3455137e-06    5.442403e-06
  0.00043270649      0.56960789   6.5224125e-06   5.8024139e-22               0               0               0   0.00018676955    6.045704e-06   6.1226928e-06
  0.00048888965      0.57997376   7.5321379e-06   1.1599535e-21               0               0               0   0.00018679685   6.8245335e-06   6.8856481e-06
  0.00055235838      0.59033283    8.700514e-06   4.2946095e-22               0               0               0    0.0001868282   7.6919707e-06   7.7404661e-06
   0.0006240585      0.60069474    1.005348e-05               0               0               0               0   0.00018686424   8.6585731e-06   8.6970604e-06
  0.00070505852      0.61106765   1.1621497e-05   2.1451367e-22               0               0               0   0.00018690573   9.7354445e-06   9.7660068e-06
  0.00079656552      0.62145914   1.3440443e-05   4.2902735e-22               0               0               0   0.00018695358   1.0934148e-05   1.0958441e-05
  0.00089994316      0.63187695   1.5552724e-05   2.1451368e-22               0               0               0   0.00018700879   1.2266561e-05   1.2285898e-05
    0.001016732      0.64232953   1.8008638e-05               0               0               0               0   0.00018707254   1.3744656e-05   1.3760076e-05
   0.0011486725      0.65282651   2.0868068e-05   8.4808297e-22               0               0               0   0.00018714621   1.5380196e-05   1.5392519e-05
   0.0012977308      0.66337914    2.420258e-05  -6.6687171e-22               0               0               0   0.00018723134   1.7184338e-05   1.7194213e-05
   0.0014661282      0.67400061   2.8098016e-05  -2.9577091e-21               0               0               0   0.00018732974   1.9167141e-05   1.9175079e-05
   0.0016563743      0.68470638   3.2657707e-05  -2.4592497e-21               0               0               0   0.00018744342   2.1336986e-05    2.134339e-05
   0.0018713042      0.69551439   3.8006435e-05   -1.559355e-21               0               0               0   0.00018757464   2.3699914e-05   2.3705103e-05
   0.0021141207      0.70644531   4.4295291e-05   -5.428598e-22               0               0               0   0.00018772589     2.62589e-05   2.6263126e-05
   0.0023884425      0.71752266   5.1707624e-05   -4.131882e-22               0               0               0   0.00018789989   2.9013066e-05   2.9016525e-05
   0.0026983575       0.7287729   6.0466287e-05   9.3959256e-22               0               0               0   0.00018809945   3.1956817e-05   3.1959667e-05
   0.0030484842      0.74022544   7.0842426e-05  -2.0983801e-21               0               0               0   0.00018832743   3.5078891e-05   3.5081254e-05
   0.0034440402      0.75191262   8.3166097e-05  -4.9453867e-21               0               0               0   0.00018858658   3.8361233e-05   3.8363207e-05
   0.0038909203      0.76386958   9.7838993e-05  -1.4942257e-21               0               0               0   0.00018887921   4.1777656e-05   4.1779318e-05
    0.004395784      0.77613408   0.00011534947   3.4740779e-21               0               0               0   0.00018920684   4.5292167e-05    4.529358e-05
   0.0049661549      0.78874619   0.00013629037  -3.7032143e-21               0               0               0   0.00018956974   4.8856906e-05   4.8858119e-05
   0.0056105328      0.80174779   0.00016138162  -1.3008378e-20               0               0               0   0.00018996649   5.2409612e-05   5.2410666e-05
   0.0063385204      0.81518172   0.00019150048   4.7251453e-21               0               0               0    0.0001903933   5.5870573e-05   5.5871499e-05
   0.0071609664      0.82909044   0.00022770289   1.7694781e-20               0               0               0   0.00019083904   5.9139005e-05    5.913983e-05
   0.0080901272      0.84351376   0.00027113272    3.779433e-20               0               0               0   0.00019128492   6.2088812e-05    6.208956e-05
   0.0091398493      0.85848511   0.00032330757   4.6894904e-20               0               0               0   0.00019170631   6.4563664e-05   6.4564356e-05
    0.010325776      0.87402556   0.00038602723   2.0682491e-20               0               0               0   0.00019206469    6.637133e-05   6.6371984e-05
     0.01166558      0.89013396   0.00046106004   4.4433689e-21               0               0               0   0.00019230413   6.7277248e-05   6.7277884e-05
    0.013179228      0.90677112   0.00055032062   1.3959514e-20               0               0               0   0.00019234646   6.6997477e-05   6.6998118e-05
    0.014889277      0.92383363   0.00065562839   1.1513583e-20               0               0               0   0.00019208103   6.5191477e-05   6.5192156e-05
    0.016821209      0.94111049   0.00077806497   3.4590981e-20               0               0               0   0.00019135822   6.1455552e-05   6.1456321e-05
    0.019003816      0.95820919   0.00091669482   5.4883894e-20               0               0               0   0.00018998596   5.5318108e-05   5.5319076e-05
    0.021469624      0.97442435    0.0010675912   2.6984198e-20               0               0               0   0.00018779733   4.6231401e-05   4.6232871e-05
    0.024255377      0.98853188    0.0012189833   9.7592643e-21               0               0               0   0.00018461255    3.328229e-05   3.3286281e-05
    0.027402591      0.99837868    0.0013305657   6.2201549e-22               0               0               0   0.00018001174    1.764194e-05   1.7703799e-05
    0.030958166       1.0027398     0.001373803               0               0               0               0   0.00017433949   5.9009594e-06   6.1599201e-06
    0.034975088       1.0036299    0.0013757663               0               0               0               0    0.0001687455   1.8197834e-06   2.2882815e-06
    0.039513219       1.0036698    0.0013681085   1.5971356e-20               0               0               0   0.00016351742   1.4332304e-06    1.970035e-06
    0.044640187       1.0036693    0.0013596611   2.2401464e-20               0               0               0   0.00015828768   1.4369516e-06   1.9728104e-06
    0.050432395       1.0036724    0.0013514741   4.8770066e-21               0               0               0   0.00015292693    1.445017e-06   1.9789142e-06
    0.056976161       1.0036752    0.0013420653  -1.5530727e-21               0               0               0   0.00014750828    1.451293e-06   1.9836656e-06
    0.064369002       1.0036754    0.0013314861               0               0               0               0   0.00014215605   1.4562492e-06   1.9874192e-06
    0.072721087       1.0036716    0.0013203159               0               0               0               0   0.00013699714   1.4602427e-06   1.9904448e-06
    0.082156882       1.0036651    0.0013082032               0               0               0               0   0.00013211477   1.4634719e-06   1.9928919e-06
    0.092817002        1.003656    0.0012950779               0               0               0               0   0.00012756695   1.4668511e-06   1.9954533e-06
