#      distance             U_x             U_y             U_z wallShearStr... wallShearStr... wallShearStr...               p             nut         nuTilda
              0      0.99990737               0               0               0               0               0    0.0044613673   1.4741669e-06   2.0010019e-06
   0.0021021021       0.9999045               0               0               0               0               0    0.0044793209   1.4742069e-06   2.0010323e-06
   0.0042042042      0.99990163               0               0               0               0               0    0.0044972746   1.4742468e-06   2.0010627e-06
   0.0063063063      0.99989877               0               0               0               0               0    0.0045152283   1.4742868e-06   2.0010931e-06
   0.0084084084       0.9998959               0               0               0               0               0    0.0045331819   1.4743268e-06   2.0011235e-06
    0.010510511      0.99989252               0               0               0               0               0    0.0045535301   1.4743725e-06   2.0011583e-06
    0.012612613      0.99988883               0               0               0               0               0    0.0045753656   1.4744217e-06   2.0011957e-06
    0.014714715      0.99988513               0               0               0               0               0    0.0045972011   1.4744709e-06   2.0012332e-06
    0.016816817      0.99988144               0               0               0               0               0    0.0046190366   1.4745201e-06   2.0012706e-06
    0.018918919      0.99987774               0               0               0               0               0     0.004640872   1.4745693e-06   2.0013081e-06
    0.021021021      0.99987391               0               0               0               0               0    0.0046633163   1.4746199e-06   2.0013466e-06
    0.023123123      0.99986912               0               0               0               0               0    0.0046898537   1.4746805e-06   2.0013927e-06
    0.025225225      0.99986434               0               0               0               0               0     0.004716391   1.4747411e-06   2.0014388e-06
    0.027327327      0.99985955               0               0               0               0               0    0.0047429283   1.4748016e-06   2.0014849e-06
    0.029429429      0.99985477               0               0               0               0               0    0.0047694656   1.4748622e-06    2.001531e-06
    0.031531532      0.99984962               0               0               0               0               0    0.0047974714   1.4749263e-06   2.0015798e-06
    0.033633634      0.99984338               0               0               0               0               0    0.0048297663    1.475001e-06   2.0016366e-06
    0.035735736      0.99983715               0               0               0               0               0    0.0048620611   1.4750756e-06   2.0016934e-06
    0.037837838      0.99983092               0               0               0               0               0     0.004894356   1.4751503e-06   2.0017502e-06
     0.03993994      0.99982468               0               0               0               0               0    0.0049266509    1.475225e-06    2.001807e-06
    0.042042042      0.99981666               0               0               0               0               0    0.0049654788   1.4753158e-06   2.0018761e-06
    0.044144144      0.99980847               0               0               0               0               0     0.005004919   1.4754081e-06   2.0019464e-06
    0.046246246      0.99980028               0               0               0               0               0    0.0050443592   1.4755005e-06   2.0020166e-06
    0.048348348      0.99979199               0               0               0               0               0    0.0050841306   1.4755937e-06   2.0020875e-06
     0.05045045      0.99978112               0               0               0               0               0    0.0051325956   1.4757085e-06   2.0021749e-06
    0.052552553      0.99977025               0               0               0               0               0    0.0051810606   1.4758233e-06   2.0022622e-06
    0.054654655      0.99975937               0               0               0               0               0    0.0052295257   1.4759381e-06   2.0023496e-06
    0.056756757      0.99974637               0               0               0               0               0    0.0052844971   1.4760694e-06   2.0024494e-06
    0.058858859       0.9997317               0               0               0               0               0    0.0053445982   1.4762136e-06   2.0025592e-06
    0.060960961      0.99971702               0               0               0               0               0    0.0054046992   1.4763578e-06   2.0026689e-06
    0.063063063      0.99970004               0               0               0               0               0    0.0054713936   1.4765184e-06    2.002791e-06
    0.065165165      0.99967993               0               0               0               0               0    0.0055470018    1.476701e-06   2.0029299e-06
    0.067267267      0.99965983               0               0               0               0               0      0.00562261   1.4768837e-06   2.0030688e-06
    0.069369369      0.99963464               0               0               0               0               0    0.0057106227    1.477099e-06   2.0032326e-06
    0.071471471      0.99960582               0               0               0               0               0    0.0058074796   1.4773376e-06    2.003414e-06
    0.073573574        0.999577               0               0               0               0               0    0.0059043364   1.4775762e-06   2.0035955e-06
    0.075675676      0.99953592               0               0               0               0               0    0.0060325224   1.4778852e-06   2.0038304e-06
    0.077777778       0.9994947               0               0               0               0               0    0.0061610642   1.4781949e-06   2.0040659e-06
     0.07987988      0.99943635               0               0               0               0               0    0.0063175841   1.4785908e-06   2.0043669e-06
    0.081981982      0.99936648               0               0               0               0               0     0.006492914   1.4790445e-06   2.0047118e-06
    0.084084084      0.99928435               0               0               0               0               0    0.0067031764   1.4795506e-06   2.0050966e-06
    0.086186186      0.99918153               0               0               0               0               0    0.0069722821   1.4801451e-06   2.0055485e-06
    0.088288288      0.99902153               0  -1.8537263e-22               0               0               0    0.0072760171   1.4809534e-06   2.0061629e-06
     0.09039039      0.99871165               0  -8.5652424e-22               0               0               0       0.0076705   1.4823224e-06   2.0072032e-06
    0.092492492      0.99845758               0   1.9915333e-17               0               0               0    0.0083028094   1.4837109e-06   2.0082588e-06
    0.094594595      0.99835067               0   9.2349481e-17               0               0               0    0.0095622339    1.485151e-06   2.0093549e-06
    0.096696697      0.91032486               0   1.4042721e-16  -0.00050527876  -3.1100826e-06               0     0.010444591   1.3551931e-06   1.8329749e-06
    0.098798799      0.64875628               0    1.404279e-16   -0.0020079251  -1.2359144e-05               0     0.010582658   9.6586909e-07   1.3062755e-06
      0.1009009      0.38716935               0   1.0889402e-16   -0.0031910538  -1.7687719e-05  -2.0985168e-18    0.0096976833   5.7646252e-07    7.795554e-07
       0.103003      0.12555798               0   3.5314037e-17   -0.0039481589  -1.7788977e-05  -6.9950559e-18    0.0074486538   1.8694586e-07   2.5280771e-07
     0.10510511               0               0               0   -0.0038858735  -1.3079559e-05  -9.4154089e-18    0.0056630459    7.893889e-13               0
     0.10720721               0               0               0    -0.003067407  -3.9305693e-06  -9.5505934e-18    0.0043051104   5.4270079e-13               0
     0.10930931               0               0               0   -0.0026743558  -1.7896822e-07  -6.8874759e-18    0.0038126712   4.2795075e-13               0
     0.11141141               0               0               0   -0.0025695304  -8.4183954e-08  -2.3284641e-18    0.0039066195   4.0259086e-13               0
     0.11351351               0               0               0   -0.0025059129  -3.9656959e-08  -6.7361137e-19    0.0040384883    3.874392e-13               0
     0.11561562               0               0               0   -0.0024638906  -2.1467338e-08  -5.4068612e-19    0.0041902294   3.7763718e-13               0
     0.11771772               0               0               0   -0.0024304896  -1.4676643e-08  -3.2329196e-19    0.0042470108   3.6992332e-13               0
     0.11981982               0               0               0   -0.0024007921   -1.278249e-08  -6.9613185e-20    0.0042630011   3.6310645e-13               0
     0.12192192               0               0               0   -0.0023743327  -1.1649791e-08               0    0.0042424755    3.570825e-13               0
     0.12402402               0               0               0    -0.002349098  -1.0805071e-08               0    0.0042081397   3.5135843e-13               0
     0.12612613               0               0               0   -0.0023261301     -1.0121e-08               0    0.0041720029   3.4618682e-13               0
     0.12822823               0               0               0   -0.0023039851  -9.4952375e-09               0    0.0041352124   3.4121575e-13               0
     0.13033033               0               0               0   -0.0022836847  -8.9514721e-09               0    0.0041006283   3.3668869e-13               0
     0.13243243               0               0               0   -0.0022640906  -8.4390956e-09               0    0.0040668887    3.323316e-13               0
     0.13453453               0               0               0     -0.00224596  -7.9928621e-09  -1.2685572e-19    0.0040333367   3.2832312e-13               0
     0.13663664               0               0               0   -0.0022284769  -7.5758892e-09  -3.0983005e-19    0.0039998678   3.2446885e-13               0
     0.13873874               0               0               0   -0.0022121027  -7.2088934e-09  -3.7508521e-19     0.003966522   3.2087673e-13               0
     0.14084084               0               0               0   -0.0021963432  -6.8696014e-09  -3.7508525e-19    0.0039332444   3.1742991e-13               0
     0.14294294               0               0               0    -0.002181401  -6.5633114e-09  -3.5789394e-19    0.0039007251   3.1417501e-13               0
     0.14504505               0               0               0   -0.0021670687  -6.2816527e-09  -3.2787177e-19    0.0038687718   3.1106335e-13               0
     0.14714715               0               0               0   -0.0021533181  -6.0204677e-09   -2.469858e-19    0.0038377532   3.0808731e-13               0
     0.14924925               0               0               0   -0.0021401966  -5.7814361e-09  -1.1106292e-19    0.0038077463   3.0525802e-13               0
     0.15135135               0               0               0   -0.0021274576  -5.5545456e-09  -1.6882391e-20    0.0037784426   3.0251732e-13               0
     0.15345345               0               0               0   -0.0021153822  -5.3487227e-09   4.8644551e-21    0.0037503594   2.9993034e-13               0
     0.15555556               0               0               0   -0.0021035149  -5.1490676e-09  -8.6131798e-21    0.0037226639   2.9739124e-13               0
     0.15765766               0               0               0   -0.0020923534  -4.9703327e-09  -1.4156554e-19    0.0036962836   2.9501455e-13               0
     0.15975976               0               0               0   -0.0020812447   -4.793083e-09  -2.5087721e-19    0.0036700045   2.9264997e-13               0
     0.16186186               0               0               0   -0.0020708879  -4.6369377e-09  -2.4255257e-20    0.0036451645    2.904573e-13               0
     0.16396396               0               0               0    -0.002060531  -4.4807925e-09    2.023667e-19    0.0036203245   2.8826464e-13               0
     0.16606607               0               0               0   -0.0020508011  -4.3413636e-09    2.298186e-19    0.0035967183   2.8621452e-13               0
     0.16816817               0               0               0   -0.0020411575  -4.2042387e-09   2.2981863e-19    0.0035732821   2.8418405e-13               0
     0.17027027               0               0               0   -0.0020319381    -4.07782e-09    1.315433e-19    0.0035507035   2.8224946e-13               0
     0.17237237               0               0               0   -0.0020229311   -3.956767e-09  -1.5986219e-20    0.0035285548   2.8036291e-13               0
     0.17447447               0               0               0   -0.0020141681  -3.8415301e-09  -1.0057563e-19     0.003506892   2.7853119e-13               0
     0.17657658               0               0               0   -0.0020057327  -3.7341099e-09  -1.0057564e-19    0.0034858823   2.7677317e-13               0
     0.17867868               0               0               0   -0.0019973796  -3.6285307e-09  -1.0592761e-19    0.0034650386   2.7503354e-13               0
     0.18078078               0               0               0   -0.0019894605  -3.5326635e-09  -1.3951452e-19    0.0034450707   2.7339098e-13               0
     0.18288288               0               0               0   -0.0019815413  -3.4367964e-09  -1.7310144e-19    0.0034251028   2.7174842e-13               0
     0.18498498               0               0               0   -0.0019740273  -3.3494202e-09  -1.1553668e-19    0.0034059565     2.70196e-13               0
     0.18708709               0               0               0   -0.0019665773  -3.2633888e-09  -4.3536187e-20    0.0033869402   2.6865785e-13               0
     0.18918919               0               0               0   -0.0019593577   -3.181894e-09   3.0288377e-20    0.0033683865   2.6717069e-13               0
     0.19129129               0               0               0   -0.0019523364  -3.1043047e-09   1.0568326e-19    0.0033502312   2.6572743e-13               0
     0.19339339               0               0               0   -0.0019453861  -3.0280264e-09   1.5481017e-19    0.0033322268   2.6429982e-13               0
      0.1954955               0               0               0   -0.0019387583  -2.9576985e-09   8.4708606e-20    0.0033149078   2.6294325e-13               0
      0.1975976               0               0               0   -0.0019321305  -2.8873705e-09   1.4607038e-20    0.0032975888   2.6158667e-13               0
      0.1996997               0               0               0     -0.00192579  -2.8221101e-09               0    0.0032808465   2.6029308e-13               0
      0.2018018               0               0               0   -0.0019195252  -2.7581836e-09               0    0.0032642561   2.5901607e-13               0
      0.2039039               0               0               0   -0.0019133842  -2.6963509e-09  -2.0140006e-20    0.0032479185   2.5776607e-13               0
     0.20600601               0               0               0   -0.0019074545  -2.6380914e-09  -7.4651263e-20    0.0032320124   2.5656217e-13               0
     0.20810811               0               0               0   -0.0019015248   -2.579832e-09  -1.2916252e-19    0.0032161063   2.5535828e-13               0
     0.21021021               0               0               0   -0.0018958789    -2.52609e-09  -1.3391519e-19    0.0032008376   2.5421599e-13               0
     0.21231231               0               0               0     -0.00189026  -2.4727795e-09  -1.3391522e-19    0.0031856297   2.5307958e-13               0
     0.21441441               0               0               0   -0.0018847628  -2.4213448e-09  -1.1165918e-19    0.0031706734   2.5196945e-13               0
     0.21651652               0               0               0   -0.0018794331  -2.3724961e-09  -5.8718245e-20    0.0031560636   2.5089555e-13               0
     0.21861862               0               0               0   -0.0018741035  -2.3236474e-09  -5.7773125e-21    0.0031414539   2.4982166e-13               0
     0.22072072               0               0               0   -0.0018690135  -2.2784154e-09               0    0.0031273349   2.4879933e-13               0
     0.22282282               0               0               0   -0.0018639529  -2.2336264e-09               0     0.003113276   2.4778332e-13               0
     0.22492492               0               0               0   -0.0018589733  -2.1899971e-09               0    0.0030994018   2.4678466e-13               0
     0.22702703               0               0               0   -0.0018541634     -2.1488e-09               0    0.0030859149    2.458224e-13               0
     0.22912913               0               0               0   -0.0018493536  -2.1076029e-09               0    0.0030724279   2.4486013e-13               0
     0.23123123               0               0               0   -0.0018447116  -2.0687167e-09  -2.7964471e-20    0.0030593151   2.4393367e-13               0
     0.23333333               0               0               0   -0.0018401365   -2.030752e-09  -6.7081052e-20    0.0030463514   2.4302149e-13               0
     0.23543544               0               0               0   -0.0018355758  -1.9929839e-09  -1.0123512e-19    0.0030334172   2.4211236e-13               0
     0.23753754               0               0               0   -0.0018312205  -1.9580212e-09  -6.4573367e-20    0.0030209035   2.4124687e-13               0
     0.23963964               0               0               0   -0.0018268651  -1.9230584e-09   -2.791161e-20    0.0030083899   2.4038139e-13               0
     0.24174174               0               0               0   -0.0018225865  -1.8891083e-09   9.1982502e-21     0.002996047   2.3953214e-13               0
     0.24384384               0               0               0   -0.0018184367  -1.8568605e-09   4.7061234e-20    0.0029839911   2.3871017e-13               0
     0.24594595               0               0               0    -0.001814287  -1.8246126e-09   8.4924217e-20    0.0029719352   2.3788821e-13               0
     0.24804805               0               0               0     -0.00181026  -1.7938923e-09   7.6159668e-20    0.0029601776   2.3709214e-13               0
     0.25015015               0               0               0   -0.0018063034  -1.7640466e-09   4.0697699e-20    0.0029485907    2.363109e-13               0
     0.25225225               0               0               0   -0.0018023468  -1.7342009e-09   5.2357314e-21    0.0029370039   2.3552966e-13               0
     0.25435435               0               0               0   -0.0017985453  -1.7062502e-09               0    0.0029257524   2.3478101e-13               0
     0.25645646               0               0               0   -0.0017947707  -1.6786277e-09               0     0.002914559     2.34038e-13               0
     0.25855856               0               0               0   -0.0017909995  -1.6510483e-09    5.844078e-22    0.0029033728   2.3329572e-13               0
     0.26066066               0               0               0    -0.001787396  -1.6255182e-09   2.8960759e-20    0.0028925289   2.3258852e-13               0
     0.26276276               0               0               0   -0.0017837924  -1.5999881e-09   5.7337111e-20     0.002881685   2.3188131e-13               0
     0.26486486               0               0               0   -0.0017802112  -1.5747188e-09   8.1776825e-20    0.0028708938   2.3117877e-13               0
     0.26696697               0               0               0   -0.0017767685  -1.5510686e-09   8.1776845e-20      0.00286043   2.3050513e-13               0
     0.26906907               0               0               0   -0.0017733258  -1.5274183e-09   8.1776864e-20    0.0028499661   2.2983149e-13               0
     0.27117117               0               0               0   -0.0017699143  -1.5041101e-09   7.6172485e-20    0.0028395798   2.2916432e-13               0
     0.27327327               0               0               0   -0.0017666237  -1.4821304e-09   4.8804978e-20    0.0028294946   2.2852229e-13               0
     0.27537538               0               0               0   -0.0017633331  -1.4601507e-09   2.1437471e-20    0.0028194094   2.2788026e-13               0
     0.27747748               0               0               0   -0.0017600737  -1.4385102e-09  -5.0846129e-21    0.0028093922    2.272447e-13               0
     0.27957958               0               0               0   -0.0017569272  -1.4180961e-09  -2.8550438e-20     0.002799621    2.266325e-13               0
     0.28168168               0               0               0   -0.0017537806   -1.397682e-09  -5.2016263e-20    0.0027898499   2.2602029e-13               0
     0.28378378               0               0               0   -0.0017506575  -1.3775246e-09  -7.1440045e-20    0.0027801266   2.2541293e-13               0
     0.28588589               0               0               0   -0.0017476469  -1.3586008e-09  -7.1440064e-20    0.0027706338   2.2482881e-13               0
     0.28798799               0               0               0   -0.0017446364   -1.339677e-09  -7.1440083e-20     0.002761141   2.2424469e-13               0
     0.29009009               0               0               0   -0.0017416347  -1.3208462e-09  -6.9877331e-20    0.0027516696   2.2366241e-13               0
     0.29219219               0               0               0   -0.0017387526   -1.303267e-09  -4.7298592e-20    0.0027424854   2.2310473e-13               0
     0.29429429               0               0               0   -0.0017358706  -1.2856877e-09  -2.4719852e-20    0.0027333011   2.2254705e-13               0
      0.2963964               0               0               0   -0.0017329885  -1.2681084e-09  -2.1411125e-21    0.0027241169   2.2198938e-13               0
      0.2984985               0               0               0   -0.0017302169  -1.2516072e-09               0    0.0027152191   2.2145435e-13               0
      0.3006006               0               0               0   -0.0017274568  -1.2352188e-09               0    0.0027063512    2.209217e-13               0
      0.3027027               0               0               0   -0.0017246967  -1.2188305e-09               0    0.0026974833   2.2038904e-13               0
      0.3048048               0               0               0   -0.0017220152  -1.2032003e-09   1.2353752e-20    0.0026887904   2.1987247e-13               0
     0.30690691               0               0               0   -0.0017193712  -1.1879308e-09   3.0585207e-20    0.0026801806   2.1936354e-13               0
     0.30900901               0               0               0   -0.0017167272  -1.1726614e-09   4.8816663e-20    0.0026715709   2.1885462e-13               0
     0.31111111               0               0               0   -0.0017141254  -1.1578039e-09   5.6764459e-20     0.002663048   2.1835431e-13               0
     0.31321321               0               0               0   -0.0017115915  -1.1436076e-09   4.8206635e-20    0.0026546646   2.1786784e-13               0
     0.31531532               0               0               0   -0.0017090577  -1.1294113e-09    3.964881e-20    0.0026462812   2.1738138e-13               0
     0.31741742               0               0               0    -0.001706526  -1.1152358e-09   3.1242232e-20     0.002637903   2.1689536e-13               0
     0.31951952               0               0               0   -0.0017040966  -1.1020235e-09   2.9824565e-20    0.0026297653   2.1643012e-13               0
     0.32162162               0               0               0   -0.0017016672  -1.0888112e-09   2.8406898e-20    0.0026216276   2.1596489e-13               0
     0.32372372               0               0               0   -0.0016992379  -1.0755989e-09    2.698923e-20    0.0026134899   2.1549966e-13               0
     0.32582583               0               0               0   -0.0016968668   -1.062902e-09   3.1213158e-20    0.0026055031   2.1504625e-13               0
     0.32792793               0               0               0   -0.0016945369  -1.0505683e-09   3.9412891e-20    0.0025976226   2.1460118e-13               0
     0.33003003               0               0               0    -0.001692207  -1.0382347e-09   4.7612623e-20    0.0025897421    2.141561e-13               0
     0.33213213               0               0               0   -0.0016898844  -1.0259633e-09   5.3995742e-20    0.0025818794    2.137125e-13               0
     0.33423423               0               0               0   -0.0016876494  -1.0144385e-09   3.8615692e-20    0.0025742294   2.1328662e-13               0
     0.33633634               0               0               0   -0.0016854145  -1.0029137e-09   2.3235643e-20    0.0025665793   2.1286074e-13               0
     0.33843844               0               0               0   -0.0016831796  -9.9138888e-10   7.8555931e-21    0.0025589293   2.1243485e-13               0
     0.34054054               0               0               0    -0.001680989  -9.8024267e-10  -9.7376167e-21    0.0025513749    2.120179e-13               0
     0.34264264               0               0               0   -0.0016788447  -9.6949175e-10  -2.9641384e-20    0.0025439205   2.1161028e-13               0
     0.34474474               0               0               0   -0.0016767005  -9.5874082e-10   -4.954515e-20     0.002536466   2.1120266e-13               0
     0.34684685               0               0               0   -0.0016745562  -9.4798989e-10  -6.9448917e-20    0.0025290115   2.1079504e-13               0
     0.34894895               0               0               0   -0.0016724828  -9.3784102e-10  -7.3036787e-20    0.0025217122   2.1040165e-13               0
     0.35105105               0               0               0   -0.0016704249  -9.2782454e-10  -7.3036815e-20    0.0025144469   2.1001138e-13               0
     0.35315315               0               0               0   -0.0016683671  -9.1780805e-10  -7.3036843e-20    0.0025071816   2.0962111e-13               0
     0.35525526               0               0               0   -0.0016663146  -9.0783473e-10  -7.1045963e-20    0.0024999298   2.0923192e-13               0
     0.35735736               0               0               0    -0.001664339   -8.984831e-10  -4.0378598e-20     0.002492873   2.0885815e-13               0
     0.35945946               0               0               0   -0.0016623635  -8.8913147e-10   -9.711233e-21    0.0024858163   2.0848438e-13               0
     0.36156156               0               0               0    -0.001660388  -8.7977984e-10   2.0956132e-20    0.0024787595   2.0811061e-13               0
     0.36366366               0               0               0   -0.0016584299  -8.7055969e-10   4.4848313e-20    0.0024717496   2.0774032e-13               0
     0.36576577               0               0               0   -0.0016565333  -8.6180319e-10   4.4848332e-20    0.0024649051   2.0738231e-13               0
     0.36786787               0               0               0   -0.0016546366  -8.5304669e-10   4.4848351e-20    0.0024580606   2.0702429e-13               0
     0.36996997               0               0               0     -0.00165274  -8.4429018e-10    4.484837e-20     0.002451216   2.0666628e-13               0
     0.37207207               0               0               0   -0.0016508648  -8.3569389e-10   4.1695098e-20    0.0024444204   2.0631254e-13               0
     0.37417417               0               0               0   -0.0016490438  -8.2750213e-10   3.0579694e-20     0.002437748   2.0596959e-13               0
     0.37627628               0               0               0   -0.0016472229  -8.1931037e-10    1.946429e-20    0.0024310757   2.0562665e-13               0
     0.37837838               0               0               0   -0.0016454019  -8.1111861e-10   8.3488867e-21    0.0024244034   2.0528371e-13               0
     0.38048048               0               0               0    -0.001643599  -8.0306287e-10  -1.1933991e-21    0.0024177693   2.0494435e-13               0
     0.38258258               0               0               0   -0.0016418504  -7.9541761e-10  -5.9882774e-21    0.0024112506   2.0461579e-13               0
     0.38468468               0               0               0   -0.0016401018  -7.8777236e-10  -1.0783156e-20    0.0024047318   2.0428723e-13               0
     0.38678679               0               0               0   -0.0016383533   -7.801271e-10  -1.5578034e-20    0.0023982131   2.0395867e-13               0
     0.38888889               0               0               0   -0.0016366125  -7.7253873e-10  -2.0338539e-20    0.0023917129   2.0363164e-13               0