/*--------------------------------*- C++ -*----------------------------------*\
  =========                 |
  \\      /  F ield         | OpenFOAM: The Open Source CFD Toolbox
   \\    /   O peration     | Website:  https://openfoam.org
    \\  /    A nd           | Version:  12
     \\/     M anipulation  |
\*---------------------------------------------------------------------------*/
FoamFile
{
    format      ascii;
    class       volScalarField;
    location    "1200";
    object      nut;
}
// * * * * * * * * * * * * * * * * * * * * * * * * * * * * * * * * * * * * * //

dimensions      [0 2 -1 0 0 0 0];

internalField   nonuniform List<scalar> 
13056
(
1.4726828e-06
1.4727346e-06
1.472942e-06
1.4733379e-06
1.4738817e-06
1.4745422e-06
1.475297e-06
1.4761289e-06
1.4770237e-06
1.4779697e-06
1.478958e-06
1.4799816e-06
1.481036e-06
1.4821187e-06
1.4832297e-06
1.4843707e-06
1.4855488e-06
1.4867696e-06
1.488055e-06
1.4894194e-06
1.4908619e-06
1.4927199e-06
1.4936448e-06
1.4966417e-06
2.8147307e-13
8.1347874e-14
6.5769844e-14
6.082337e-14
5.7777505e-14
5.5301156e-14
5.3168723e-14
5.1302857e-14
4.9651115e-14
4.8171456e-14
4.6832929e-14
4.5612977e-14
4.4494341e-14
4.3463181e-14
4.2508161e-14
4.1619959e-14
4.07908e-14
4.0014123e-14
3.9284268e-14
3.8596379e-14
3.7946274e-14
3.7330274e-14
3.6745259e-14
3.618844e-14
3.56573e-14
3.514972e-14
3.4663762e-14
3.4197638e-14
3.3749813e-14
3.3318929e-14
3.2903689e-14
3.2502918e-14
3.211563e-14
3.1740904e-14
3.1377831e-14
3.102561e-14
3.0683565e-14
3.0351054e-14
3.0027422e-14
2.9712086e-14
2.9404568e-14
2.9104406e-14
2.8811123e-14
2.8524278e-14
2.82435e-14
2.7968453e-14
2.7698797e-14
2.7434185e-14
2.7174304e-14
2.691891e-14
2.6667751e-14
2.6420559e-14
2.6177078e-14
2.5937087e-14
2.5700399e-14
2.5466819e-14
2.5236132e-14
2.5008132e-14
2.478266e-14
2.4559565e-14
2.4338678e-14
2.4119821e-14
2.3902821e-14
2.3687555e-14
2.3473893e-14
2.3261675e-14
2.3050744e-14
2.2840958e-14
2.2632203e-14
2.2424353e-14
2.2217252e-14
2.2010742e-14
2.1804711e-14
2.1599041e-14
2.1393577e-14
2.1188158e-14
2.0982642e-14
2.0776905e-14
2.0570796e-14
2.0364137e-14
2.0156765e-14
1.994854e-14
1.9739284e-14
1.9528789e-14
1.9316869e-14
1.9103344e-14
1.8887986e-14
1.8670528e-14
1.8450807e-14
1.8233325e-14
1.8024886e-14
1.7827322e-14
1.7639736e-14
1.7461287e-14
1.7291218e-14
1.7128885e-14
1.6973708e-14
1.6825134e-14
1.6682661e-14
1.6545871e-14
1.641438e-14
1.628782e-14
1.6165844e-14
1.6048113e-14
1.5934361e-14
1.5824205e-14
1.5717571e-14
1.5613218e-14
1.5512825e-14
1.5408801e-14
1.5318716e-14
1.5168989e-14
1.4726827e-06
1.4727345e-06
1.4729419e-06
1.4733377e-06
1.4738816e-06
1.474542e-06
1.4752968e-06
1.4761287e-06
1.4770235e-06
1.4779696e-06
1.4789578e-06
1.4799815e-06
1.4810359e-06
1.4821185e-06
1.4832294e-06
1.4843704e-06
1.4855484e-06
1.4867692e-06
1.4880545e-06
1.4894188e-06
1.4908611e-06
1.492719e-06
1.4936433e-06
1.4966497e-06
2.0726339e-11
6.7078221e-12
5.4303014e-12
5.022262e-12
4.770938e-12
4.5667144e-12
4.3908466e-12
4.236931e-12
4.1006481e-12
3.9785447e-12
3.8680754e-12
3.7673834e-12
3.6750466e-12
3.5899248e-12
3.5110839e-12
3.4377555e-12
3.3692989e-12
3.3051729e-12
3.2449107e-12
3.1881119e-12
3.1344315e-12
3.083566e-12
3.0352581e-12
2.9892775e-12
2.9454168e-12
2.9035008e-12
2.8633698e-12
2.8248762e-12
2.7878933e-12
2.7523089e-12
2.7180162e-12
2.684918e-12
2.6529331e-12
2.6219853e-12
2.5919996e-12
2.56291e-12
2.5346605e-12
2.5071983e-12
2.4804692e-12
2.4544251e-12
2.4290266e-12
2.4042354e-12
2.3800123e-12
2.3563208e-12
2.3331302e-12
2.3104129e-12
2.2881407e-12
2.2662851e-12
2.2448201e-12
2.2237256e-12
2.2029808e-12
2.1825636e-12
2.1624528e-12
2.1426303e-12
2.1230804e-12
2.1037872e-12
2.0847329e-12
2.0659005e-12
2.0472769e-12
2.0288495e-12
2.0106045e-12
1.992527e-12
1.9746029e-12
1.956822e-12
1.9391734e-12
1.9216442e-12
1.9042213e-12
1.8868928e-12
1.8696494e-12
1.8524807e-12
1.8353739e-12
1.8183159e-12
1.8012974e-12
1.7843086e-12
1.7673368e-12
1.7503687e-12
1.7333926e-12
1.7163981e-12
1.699373e-12
1.6823023e-12
1.6651727e-12
1.6479725e-12
1.6306873e-12
1.6132995e-12
1.5957941e-12
1.578156e-12
1.5603665e-12
1.5424035e-12
1.5242535e-12
1.5062885e-12
1.4890703e-12
1.4727505e-12
1.4572549e-12
1.442514e-12
1.4284654e-12
1.4150557e-12
1.4022372e-12
1.389964e-12
1.378195e-12
1.3668953e-12
1.3560333e-12
1.3455786e-12
1.3355026e-12
1.3257773e-12
1.3163807e-12
1.3072811e-12
1.2984725e-12
1.2898525e-12
1.2815594e-12
1.2729674e-12
1.2655259e-12
1.2531572e-12
1.4726826e-06
1.4727343e-06
1.4729417e-06
1.4733374e-06
1.4738811e-06
1.4745415e-06
1.4752963e-06
1.4761282e-06
1.477023e-06
1.477969e-06
1.4789572e-06
1.4799808e-06
1.4810352e-06
1.4821178e-06
1.4832286e-06
1.4843693e-06
1.4855472e-06
1.4867677e-06
1.4880527e-06
1.4894166e-06
1.4908583e-06
1.4927156e-06
1.4936383e-06
1.4966519e-06
1.500777e-10
5.3633005e-11
4.3525796e-11
4.0260468e-11
3.8249625e-11
3.6616648e-11
3.521015e-11
3.3978683e-11
3.2887825e-11
3.1910168e-11
3.1025468e-11
3.0218927e-11
2.9479199e-11
2.8797183e-11
2.8165419e-11
2.7577774e-11
2.7029124e-11
2.6515145e-11
2.6032105e-11
2.5576799e-11
2.5146468e-11
2.4738685e-11
2.4351388e-11
2.3982735e-11
2.3631067e-11
2.329498e-11
2.2973196e-11
2.2664532e-11
2.2367974e-11
2.2082624e-11
2.1807625e-11
2.1542201e-11
2.1285698e-11
2.1037506e-11
2.0797028e-11
2.0563732e-11
2.033717e-11
2.0116918e-11
1.9902544e-11
1.969366e-11
1.9489951e-11
1.9291111e-11
1.9096825e-11
1.8906801e-11
1.8720793e-11
1.8538578e-11
1.8359932e-11
1.8184626e-11
1.8012451e-11
1.7843247e-11
1.7676846e-11
1.7513071e-11
1.7351754e-11
1.7192746e-11
1.7035926e-11
1.6881162e-11
1.6728314e-11
1.6577245e-11
1.642785e-11
1.6280027e-11
1.6133667e-11
1.598865e-11
1.5844862e-11
1.5702222e-11
1.5560643e-11
1.542002e-11
1.5280249e-11
1.5141236e-11
1.5002903e-11
1.486517e-11
1.4727932e-11
1.4591085e-11
1.4454554e-11
1.431826e-11
1.4182103e-11
1.4045974e-11
1.390978e-11
1.3773438e-11
1.363685e-11
1.3499895e-11
1.3362467e-11
1.3224472e-11
1.3085794e-11
1.2946293e-11
1.2805847e-11
1.2664336e-11
1.2521609e-11
1.237749e-11
1.2231869e-11
1.2087732e-11
1.1949586e-11
1.1818648e-11
1.1694322e-11
1.1576051e-11
1.1463334e-11
1.1355743e-11
1.1252894e-11
1.1154421e-11
1.1059993e-11
1.0969329e-11
1.0882178e-11
1.0798295e-11
1.071745e-11
1.0639418e-11
1.0564024e-11
1.0491013e-11
1.0420337e-11
1.0351176e-11
1.0284636e-11
1.0215712e-11
1.0156004e-11
1.0056759e-11
1.4726823e-06
1.472734e-06
1.4729412e-06
1.4733367e-06
1.4738803e-06
1.4745406e-06
1.4752954e-06
1.4761272e-06
1.477022e-06
1.477968e-06
1.4789562e-06
1.4799797e-06
1.481034e-06
1.4821164e-06
1.483227e-06
1.4843675e-06
1.485545e-06
1.4867651e-06
1.4880494e-06
1.4894127e-06
1.4908533e-06
1.4927095e-06
1.4936295e-06
1.4966482e-06
5.5018457e-10
2.1717215e-10
1.7692521e-10
1.6368966e-10
1.5554308e-10
1.4893126e-10
1.4323405e-10
1.3824235e-10
1.338177e-10
1.2985033e-10
1.2625892e-10
1.2298388e-10
1.1997943e-10
1.172088e-10
1.1464188e-10
1.1225386e-10
1.1002402e-10
1.0793485e-10
1.0597124e-10
1.041202e-10
1.0237056e-10
1.0071247e-10
9.9137567e-11
9.763839e-11
9.6208207e-11
9.4841314e-11
9.3532527e-11
9.2277056e-11
9.1070772e-11
8.9910026e-11
8.879135e-11
8.7711589e-11
8.6668084e-11
8.5658361e-11
8.4679992e-11
8.3730818e-11
8.2809016e-11
8.1912862e-11
8.1040608e-11
8.0190676e-11
7.9361779e-11
7.8552677e-11
7.776209e-11
7.6988835e-11
7.6231905e-11
7.5490397e-11
7.47634e-11
7.4049986e-11
7.3349307e-11
7.2660699e-11
7.1983492e-11
7.1316966e-11
7.0660431e-11
7.0013289e-11
6.9375037e-11
6.8745149e-11
6.812305e-11
6.7508186e-11
6.6900125e-11
6.6298458e-11
6.5702735e-11
6.5112475e-11
6.4527213e-11
6.3946616e-11
6.3370328e-11
6.2797929e-11
6.2228992e-11
6.1663131e-11
6.1100038e-11
6.0539377e-11
5.9980728e-11
5.9423665e-11
5.8867882e-11
5.8313062e-11
5.775879e-11
5.720463e-11
5.6650199e-11
5.6095162e-11
5.5539114e-11
5.4981572e-11
5.4422098e-11
5.386031e-11
5.3295735e-11
5.2727806e-11
5.2156024e-11
5.1579901e-11
5.0998826e-11
5.0412075e-11
4.9819205e-11
4.9232368e-11
4.8669922e-11
4.8136816e-11
4.7630626e-11
4.7149087e-11
4.6690157e-11
4.6252095e-11
4.5833338e-11
4.5432396e-11
4.5047919e-11
4.4678771e-11
4.4323921e-11
4.3982376e-11
4.3653199e-11
4.3335477e-11
4.3028494e-11
4.2731218e-11
4.2443443e-11
4.2161852e-11
4.189092e-11
4.1610347e-11
4.1367234e-11
4.0963108e-11
1.472682e-06
1.4727336e-06
1.4729405e-06
1.4733357e-06
1.4738792e-06
1.4745394e-06
1.475294e-06
1.4761258e-06
1.4770206e-06
1.4779665e-06
1.4789546e-06
1.479978e-06
1.4810321e-06
1.4821143e-06
1.4832246e-06
1.4843647e-06
1.4855417e-06
1.4867611e-06
1.4880446e-06
1.4894069e-06
1.490846e-06
1.4927007e-06
1.4936167e-06
1.4966383e-06
1.4535957e-09
6.3552236e-10
5.2064913e-10
4.8190405e-10
4.580641e-10
4.3872246e-10
4.2204303e-10
4.0741349e-10
3.9443347e-10
3.827867e-10
3.7223808e-10
3.6261464e-10
3.5378318e-10
3.4563657e-10
3.3808698e-10
3.3106201e-10
3.2450112e-10
3.1835307e-10
3.1257363e-10
3.0712481e-10
3.0197381e-10
2.9709183e-10
2.9245431e-10
2.8803937e-10
2.8382727e-10
2.7980124e-10
2.7594607e-10
2.7224772e-10
2.6869404e-10
2.652743e-10
2.6197833e-10
2.5879687e-10
2.5572206e-10
2.5274666e-10
2.4986354e-10
2.4706634e-10
2.4434969e-10
2.4170853e-10
2.3913772e-10
2.3663262e-10
2.3418943e-10
2.3180451e-10
2.294741e-10
2.2719472e-10
2.249634e-10
2.2277747e-10
2.2063427e-10
2.1853106e-10
2.1646535e-10
2.1443517e-10
2.1243856e-10
2.104734e-10
2.0853765e-10
2.0662957e-10
2.0474765e-10
2.0289035e-10
2.0105599e-10
1.9924293e-10
1.9744989e-10
1.9567568e-10
1.9391896e-10
1.9217832e-10
1.9045239e-10
1.8874019e-10
1.8704066e-10
1.8535258e-10
1.8367469e-10
1.8200583e-10
1.8034512e-10
1.7869154e-10
1.7704388e-10
1.7540087e-10
1.7376162e-10
1.7212517e-10
1.7049032e-10
1.6885578e-10
1.6722041e-10
1.6558323e-10
1.6394304e-10
1.6229842e-10
1.6064808e-10
1.5899089e-10
1.5732545e-10
1.556501e-10
1.5396336e-10
1.5226378e-10
1.5054957e-10
1.4881859e-10
1.4706954e-10
1.4533825e-10
1.436789e-10
1.4210609e-10
1.4061267e-10
1.3919197e-10
1.3783795e-10
1.3654548e-10
1.3530996e-10
1.3412699e-10
1.3299259e-10
1.3190342e-10
1.3085641e-10
1.2984866e-10
1.2887739e-10
1.2793992e-10
1.2703413e-10
1.2615698e-10
1.2530787e-10
1.2447703e-10
1.236776e-10
1.2284996e-10
1.2213263e-10
1.2094008e-10
1.4726815e-06
1.472733e-06
1.4729395e-06
1.4733344e-06
1.4738776e-06
1.4745376e-06
1.4752922e-06
1.4761239e-06
1.4770186e-06
1.4779645e-06
1.4789525e-06
1.4799757e-06
1.4810296e-06
1.4821114e-06
1.4832213e-06
1.4843608e-06
1.4855371e-06
1.4867557e-06
1.488038e-06
1.489399e-06
1.490836e-06
1.4926886e-06
1.4935994e-06
1.4966217e-06
3.1683383e-09
1.5402387e-09
1.271899e-09
1.1781852e-09
1.1204672e-09
1.0736321e-09
1.0331865e-09
9.9765461e-10
9.6608528e-10
9.377294e-10
9.1202713e-10
8.8856456e-10
8.6702167e-10
8.4714059e-10
8.2870952e-10
8.1155369e-10
7.9552671e-10
7.8050449e-10
7.6637985e-10
7.5306056e-10
7.4046705e-10
7.2852936e-10
7.1718774e-10
7.0638902e-10
6.960852e-10
6.862354e-10
6.7680262e-10
6.6775267e-10
6.5905593e-10
6.5068624e-10
6.4261884e-10
6.3483114e-10
6.2730397e-10
6.2001963e-10
6.1296078e-10
6.061119e-10
5.9945983e-10
5.9299222e-10
5.8669659e-10
5.8056159e-10
5.7457789e-10
5.687366e-10
5.630286e-10
5.5744536e-10
5.519796e-10
5.4662481e-10
5.4137448e-10
5.3622195e-10
5.3116111e-10
5.2618713e-10
5.212952e-10
5.1648019e-10
5.1173712e-10
5.0706166e-10
5.0245016e-10
4.9789886e-10
4.9340364e-10
4.8896051e-10
4.8456631e-10
4.8021811e-10
4.7591267e-10
4.7164654e-10
4.6741636e-10
4.6321969e-10
4.5905399e-10
4.5491625e-10
4.5080336e-10
4.4671255e-10
4.4264157e-10
4.3858801e-10
4.3454885e-10
4.3052101e-10
4.2650227e-10
4.2249031e-10
4.1848218e-10
4.1447472e-10
4.1046514e-10
4.0645102e-10
4.0242944e-10
3.9839692e-10
3.9435026e-10
3.9028672e-10
3.8620287e-10
3.8209461e-10
3.7795832e-10
3.7379047e-10
3.6958664e-10
3.653416e-10
3.6105212e-10
3.5680612e-10
3.5273645e-10
3.4887895e-10
3.452161e-10
3.4173151e-10
3.3841044e-10
3.3524029e-10
3.3220975e-10
3.2930808e-10
3.2652551e-10
3.2385381e-10
3.2128553e-10
3.1881351e-10
3.1643097e-10
3.141313e-10
3.1190933e-10
3.0975761e-10
3.0767464e-10
3.0563661e-10
3.0367551e-10
3.0164583e-10
2.9988613e-10
2.9696029e-10
1.472681e-06
1.4727323e-06
1.4729383e-06
1.4733327e-06
1.4738756e-06
1.4745354e-06
1.4752898e-06
1.4761215e-06
1.477016e-06
1.4779618e-06
1.4789496e-06
1.4799727e-06
1.4810262e-06
1.4821076e-06
1.4832169e-06
1.4843558e-06
1.4855311e-06
1.4867486e-06
1.4880295e-06
1.4893887e-06
1.490823e-06
1.4926731e-06
1.493577e-06
1.4965981e-06
6.0821013e-09
3.3009813e-09
2.7566149e-09
2.5572204e-09
2.4338954e-09
2.3337001e-09
2.2469672e-09
2.1705857e-09
2.1025849e-09
2.0414131e-09
1.9859021e-09
1.9351817e-09
1.8885757e-09
1.845537e-09
1.8056153e-09
1.7684384e-09
1.7336934e-09
1.7011149e-09
1.6704732e-09
1.6415702e-09
1.6142351e-09
1.5883175e-09
1.5636888e-09
1.5402344e-09
1.5178509e-09
1.4964501e-09
1.4759523e-09
1.4562836e-09
1.43738e-09
1.419185e-09
1.4016452e-09
1.3847116e-09
1.3683428e-09
1.3525005e-09
1.3371472e-09
1.3222493e-09
1.3077782e-09
1.2937072e-09
1.2800095e-09
1.2666602e-09
1.2536392e-09
1.2409272e-09
1.2285045e-09
1.2163527e-09
1.2044557e-09
1.1927996e-09
1.1813702e-09
1.1701532e-09
1.1591352e-09
1.1483057e-09
1.1376543e-09
1.1271698e-09
1.1168416e-09
1.1066601e-09
1.0966174e-09
1.0867054e-09
1.0769151e-09
1.0672378e-09
1.0576667e-09
1.0481954e-09
1.0388169e-09
1.0295236e-09
1.0203083e-09
1.0111657e-09
1.0020901e-09
9.9307517e-10
9.8411406e-10
9.7520072e-10
9.6633025e-10
9.5749742e-10
9.4869567e-10
9.3991831e-10
9.3116042e-10
9.2241703e-10
9.1368169e-10
9.0494753e-10
8.9620844e-10
8.8745915e-10
8.786933e-10
8.6990333e-10
8.6108225e-10
8.5222404e-10
8.4332127e-10
8.3436501e-10
8.2534732e-10
8.1626052e-10
8.0709497e-10
7.9783925e-10
7.8848631e-10
7.7922783e-10
7.7035358e-10
7.6194171e-10
7.5395405e-10
7.4635492e-10
7.3911221e-10
7.3219843e-10
7.2558898e-10
7.1926044e-10
7.1319151e-10
7.073643e-10
7.0176252e-10
6.963706e-10
6.9117376e-10
6.8615762e-10
6.8131088e-10
6.7661735e-10
6.7207371e-10
6.676283e-10
6.633504e-10
6.5892442e-10
6.550859e-10
6.4870253e-10
1.4726803e-06
1.4727313e-06
1.4729368e-06
1.4733306e-06
1.4738731e-06
1.4745326e-06
1.4752868e-06
1.4761183e-06
1.4770128e-06
1.4779584e-06
1.478946e-06
1.4799687e-06
1.4810219e-06
1.4821028e-06
1.4832114e-06
1.4843493e-06
1.4855236e-06
1.4867396e-06
1.4880186e-06
1.4893757e-06
1.4908067e-06
1.4926535e-06
1.4935488e-06
1.4965667e-06
1.0658927e-08
6.4796001e-09
5.4971471e-09
5.1124503e-09
4.8720125e-09
4.6760316e-09
4.5057035e-09
4.3551456e-09
4.2207041e-09
4.099491e-09
3.9893053e-09
3.8884911e-09
3.7957502e-09
3.7100262e-09
3.6304466e-09
3.556287e-09
3.4869372e-09
3.4218772e-09
3.3606562e-09
3.3028852e-09
3.2482274e-09
3.1963865e-09
3.1471081e-09
3.1001661e-09
3.0553562e-09
3.0125031e-09
2.9714488e-09
2.9320473e-09
2.8941712e-09
2.8577081e-09
2.8225521e-09
2.7886061e-09
2.755787e-09
2.724019e-09
2.6932277e-09
2.6633459e-09
2.6343166e-09
2.6060866e-09
2.5786024e-09
2.5518147e-09
2.5256829e-09
2.5001688e-09
2.475233e-09
2.4508387e-09
2.426954e-09
2.4035508e-09
2.3806009e-09
2.3580757e-09
2.3359486e-09
2.3141983e-09
2.2928041e-09
2.2717438e-09
2.250996e-09
2.2305415e-09
2.2103645e-09
2.1904487e-09
2.1707764e-09
2.15133e-09
2.1320958e-09
2.1130609e-09
2.0942114e-09
2.0755323e-09
2.0570089e-09
2.0386304e-09
2.0203858e-09
2.002262e-09
1.9842456e-09
1.9663243e-09
1.9484882e-09
1.9307268e-09
1.9130271e-09
1.8953755e-09
1.8777622e-09
1.8601772e-09
1.8426075e-09
1.8250393e-09
1.8074603e-09
1.7898599e-09
1.7722253e-09
1.7545414e-09
1.736794e-09
1.7189711e-09
1.7010576e-09
1.6830355e-09
1.664889e-09
1.6466025e-09
1.6281566e-09
1.6095284e-09
1.5907034e-09
1.5720677e-09
1.5542044e-09
1.5372712e-09
1.5211911e-09
1.5058926e-09
1.4913111e-09
1.4773912e-09
1.4640836e-09
1.4513412e-09
1.4391211e-09
1.4273873e-09
1.4161071e-09
1.4052492e-09
1.3947839e-09
1.3846822e-09
1.3749214e-09
1.3654691e-09
1.3563184e-09
1.347366e-09
1.3387502e-09
1.3298394e-09
1.3221087e-09
1.3092498e-09
1.4726794e-06
1.4727302e-06
1.4729349e-06
1.4733281e-06
1.47387e-06
1.4745291e-06
1.4752831e-06
1.4761144e-06
1.4770087e-06
1.4779541e-06
1.4789415e-06
1.4799638e-06
1.4810165e-06
1.4820967e-06
1.4832044e-06
1.4843412e-06
1.485514e-06
1.4867283e-06
1.4880051e-06
1.4893595e-06
1.4907865e-06
1.4926293e-06
1.4935141e-06
1.496527e-06
1.7422787e-08
1.1877756e-08
1.0301282e-08
9.6208973e-09
9.1863612e-09
8.8296786e-09
8.5176068e-09
8.2401648e-09
7.9912965e-09
7.7661502e-09
7.5609544e-09
7.3728243e-09
7.1994672e-09
7.0389995e-09
6.8898549e-09
6.7507261e-09
6.6205057e-09
6.4982452e-09
6.3831201e-09
6.2744157e-09
6.1715127e-09
6.0738647e-09
5.9810014e-09
5.8925047e-09
5.8079959e-09
5.727149e-09
5.6496708e-09
5.5752901e-09
5.5037688e-09
5.4348976e-09
5.3684794e-09
5.3043325e-09
5.2423016e-09
5.1822449e-09
5.1240236e-09
5.067512e-09
5.0126026e-09
4.9591961e-09
4.9071925e-09
4.8564995e-09
4.8070401e-09
4.7587428e-09
4.7115342e-09
4.6653448e-09
4.6201148e-09
4.575791e-09
4.5323207e-09
4.4896501e-09
4.4477291e-09
4.4065174e-09
4.3659763e-09
4.326064e-09
4.28674e-09
4.2479684e-09
4.2097191e-09
4.1719614e-09
4.134662e-09
4.097788e-09
4.061313e-09
4.0252129e-09
3.9894615e-09
3.9540304e-09
3.9188919e-09
3.8840254e-09
3.8494102e-09
3.8150217e-09
3.7808343e-09
3.7468248e-09
3.7129744e-09
3.6792635e-09
3.6456671e-09
3.6121598e-09
3.5787226e-09
3.5453366e-09
3.5119775e-09
3.4786189e-09
3.4452374e-09
3.4118129e-09
3.3783212e-09
3.3447334e-09
3.3110228e-09
3.2771661e-09
3.243135e-09
3.2088956e-09
3.1744171e-09
3.13967e-09
3.1046177e-09
3.0692164e-09
3.0334386e-09
2.9980178e-09
2.964063e-09
2.9318737e-09
2.9013045e-09
2.8722193e-09
2.8444955e-09
2.8180284e-09
2.792724e-09
2.7684932e-09
2.7452545e-09
2.7229396e-09
2.7014865e-09
2.6808356e-09
2.6609306e-09
2.6417167e-09
2.6231505e-09
2.6051705e-09
2.5877638e-09
2.5707349e-09
2.5543448e-09
2.5374003e-09
2.5226945e-09
2.4982256e-09
1.4726783e-06
1.4727288e-06
1.4729327e-06
1.4733249e-06
1.4738662e-06
1.4745249e-06
1.4752786e-06
1.4761096e-06
1.4770036e-06
1.4779488e-06
1.4789358e-06
1.4799577e-06
1.4810097e-06
1.4820891e-06
1.4831957e-06
1.4843312e-06
1.4855023e-06
1.4867144e-06
1.4879884e-06
1.4893397e-06
1.4907618e-06
1.4925998e-06
1.4934718e-06
1.4964782e-06
2.6925708e-08
2.0544482e-08
1.8359785e-08
1.7263125e-08
1.6533136e-08
1.5925536e-08
1.5387927e-08
1.4905612e-08
1.4469941e-08
1.4073731e-08
1.3711188e-08
1.337775e-08
1.3069706e-08
1.2783956e-08
1.251789e-08
1.226931e-08
1.2036339e-08
1.1817355e-08
1.1610941e-08
1.1415861e-08
1.1231043e-08
1.1055535e-08
1.0888515e-08
1.0729253e-08
1.0577085e-08
1.0431436e-08
1.029179e-08
1.015767e-08
1.0028654e-08
9.9043702e-09
9.7844716e-09
9.6686356e-09
9.5565852e-09
9.4480685e-09
9.3428399e-09
9.2406746e-09
9.1413806e-09
9.0447811e-09
8.9506984e-09
8.8589669e-09
8.7694488e-09
8.6820163e-09
8.5965386e-09
8.5128914e-09
8.4309667e-09
8.3506693e-09
8.2719053e-09
8.1945782e-09
8.1185977e-09
8.0438914e-09
7.9703896e-09
7.8980179e-09
7.8267033e-09
7.7563809e-09
7.6869962e-09
7.6184947e-09
7.5508163e-09
7.4839017e-09
7.4177029e-09
7.3521765e-09
7.2872755e-09
7.2229489e-09
7.1591465e-09
7.0958307e-09
7.0329641e-09
6.9705026e-09
6.9084e-09
6.8466141e-09
6.7851106e-09
6.723854e-09
6.6627995e-09
6.6019009e-09
6.5411234e-09
6.4804328e-09
6.419785e-09
6.3591323e-09
6.2984321e-09
6.2376474e-09
6.1767345e-09
6.1156411e-09
6.0543181e-09
5.9927233e-09
5.9308053e-09
5.8685019e-09
5.8057574e-09
5.7425179e-09
5.6787164e-09
5.6142732e-09
5.5491381e-09
5.4846461e-09
5.4228173e-09
5.364198e-09
5.3085239e-09
5.2555482e-09
5.2050483e-09
5.1568335e-09
5.1107336e-09
5.0665864e-09
5.0242441e-09
4.9835824e-09
4.9444885e-09
4.9068544e-09
4.8705777e-09
4.8355586e-09
4.8017184e-09
4.7689455e-09
4.737216e-09
4.7061762e-09
4.6762976e-09
4.6454211e-09
4.6186141e-09
4.5739918e-09
1.472677e-06
1.4727272e-06
1.47293e-06
1.4733212e-06
1.4738616e-06
1.4745198e-06
1.475273e-06
1.4761038e-06
1.4769975e-06
1.4779423e-06
1.4789288e-06
1.4799501e-06
1.4810013e-06
1.4820797e-06
1.483185e-06
1.4843188e-06
1.4854878e-06
1.4866975e-06
1.4879681e-06
1.4893156e-06
1.4907319e-06
1.4925642e-06
1.4934207e-06
1.4964193e-06
3.9694852e-08
3.3712241e-08
3.1312604e-08
2.9745509e-08
2.8617897e-08
2.7653907e-08
2.6784495e-08
2.5993005e-08
2.527017e-08
2.46074e-08
2.3997159e-08
2.3433161e-08
2.2910048e-08
2.2423195e-08
2.1968628e-08
2.1542943e-08
2.1143183e-08
2.0766765e-08
2.0411406e-08
2.0075102e-08
1.9756099e-08
1.9452836e-08
1.9163955e-08
1.8888244e-08
1.8624601e-08
1.8372062e-08
1.8129765e-08
1.7896907e-08
1.7672778e-08
1.7456752e-08
1.7248241e-08
1.7046699e-08
1.6851655e-08
1.666268e-08
1.6479359e-08
1.6301308e-08
1.6128197e-08
1.5959726e-08
1.5795592e-08
1.563551e-08
1.5479243e-08
1.5326574e-08
1.5177277e-08
1.503114e-08
1.4887976e-08
1.4747621e-08
1.4609913e-08
1.4474688e-08
1.4341789e-08
1.421109e-08
1.4082471e-08
1.3955805e-08
1.3830965e-08
1.3707839e-08
1.3586331e-08
1.3466348e-08
1.3347787e-08
1.3230543e-08
1.3114534e-08
1.2999683e-08
1.288591e-08
1.2773127e-08
1.2661245e-08
1.2550198e-08
1.2439923e-08
1.2330342e-08
1.2221374e-08
1.2112947e-08
1.2004999e-08
1.1897468e-08
1.1790278e-08
1.1683346e-08
1.1576612e-08
1.1470015e-08
1.1363479e-08
1.125692e-08
1.1150263e-08
1.1043442e-08
1.0936382e-08
1.082899e-08
1.072118e-08
1.0612877e-08
1.0503991e-08
1.0394413e-08
1.0284043e-08
1.0172787e-08
1.0060527e-08
9.947123e-09
9.8324845e-09
9.7189618e-09
9.6101123e-09
9.5069001e-09
9.4088613e-09
9.3155634e-09
9.2266158e-09
9.1416842e-09
9.0604697e-09
8.9826878e-09
8.9080792e-09
8.8364254e-09
8.7675285e-09
8.701199e-09
8.6372572e-09
8.5755275e-09
8.515872e-09
8.4580944e-09
8.402153e-09
8.3474287e-09
8.2947446e-09
8.2403249e-09
8.1930601e-09
8.1143414e-09
1.4726756e-06
1.4727253e-06
1.4729268e-06
1.4733168e-06
1.4738562e-06
1.4745137e-06
1.4752664e-06
1.4760967e-06
1.47699e-06
1.4779343e-06
1.4789203e-06
1.4799408e-06
1.4809911e-06
1.4820682e-06
1.4831719e-06
1.4843037e-06
1.4854702e-06
1.4866768e-06
1.4879435e-06
1.4892865e-06
1.490696e-06
1.4925215e-06
1.4933596e-06
1.4963495e-06
5.6155343e-08
5.2651661e-08
5.121023e-08
4.9361893e-08
4.7808647e-08
4.6410511e-08
4.5106878e-08
4.3891145e-08
4.2761111e-08
4.1711368e-08
4.0735227e-08
3.9826069e-08
3.8977556e-08
3.8183796e-08
3.7439489e-08
3.6739939e-08
3.6080949e-08
3.545876e-08
3.4869989e-08
3.4311625e-08
3.3781e-08
3.327572e-08
3.279368e-08
3.2332995e-08
3.1891931e-08
3.1468968e-08
3.1062738e-08
3.0671965e-08
3.0295508e-08
2.9932361e-08
2.9581582e-08
2.9242288e-08
2.891371e-08
2.8595159e-08
2.8285957e-08
2.7985477e-08
2.7693179e-08
2.7408571e-08
2.7131161e-08
2.6860479e-08
2.6596132e-08
2.6337762e-08
2.6085003e-08
2.5837499e-08
2.5594943e-08
2.5357061e-08
2.5123588e-08
2.489425e-08
2.4668787e-08
2.4446988e-08
2.4228655e-08
2.4013575e-08
2.3801539e-08
2.3592356e-08
2.3385868e-08
2.3181919e-08
2.2980336e-08
2.2780946e-08
2.2583608e-08
2.2388194e-08
2.219457e-08
2.2002587e-08
2.1812098e-08
2.1622989e-08
2.1435152e-08
2.124846e-08
2.1062775e-08
2.0877972e-08
2.0693948e-08
2.05106e-08
2.0327796e-08
2.0145398e-08
1.9963301e-08
1.9781403e-08
1.9599575e-08
1.9417672e-08
1.9235568e-08
1.905315e-08
1.8870289e-08
1.8686826e-08
1.8502615e-08
1.8317527e-08
1.8131408e-08
1.794407e-08
1.7755345e-08
1.7565067e-08
1.7373037e-08
1.7179012e-08
1.6982837e-08
1.6788534e-08
1.6602195e-08
1.6425475e-08
1.6257585e-08
1.6097788e-08
1.5945419e-08
1.5799909e-08
1.5660747e-08
1.552745e-08
1.5399575e-08
1.527675e-08
1.5158636e-08
1.5044912e-08
1.493527e-08
1.482941e-08
1.4727098e-08
1.4627998e-08
1.453204e-08
1.443817e-08
1.4347785e-08
1.4254465e-08
1.4173384e-08
1.4038251e-08
1.4726738e-06
1.472723e-06
1.4729231e-06
1.4733115e-06
1.4738498e-06
1.4745063e-06
1.4752584e-06
1.4760881e-06
1.4769809e-06
1.4779246e-06
1.4789099e-06
1.4799295e-06
1.4809785e-06
1.4820541e-06
1.4831559e-06
1.4842853e-06
1.4854488e-06
1.4866518e-06
1.4879139e-06
1.4892515e-06
1.4906531e-06
1.4924707e-06
1.4932868e-06
1.4962675e-06
7.6543632e-08
7.8449413e-08
8.0296772e-08
7.8887779e-08
7.7112685e-08
7.533378e-08
7.357107e-08
7.1858416e-08
7.0219663e-08
6.8664839e-08
6.7195923e-08
6.5810877e-08
6.4505421e-08
6.3274283e-08
6.2112041e-08
6.1013459e-08
5.9973534e-08
5.8987543e-08
5.8051077e-08
5.716009e-08
5.6310932e-08
5.550026e-08
5.4725088e-08
5.3982716e-08
5.3270625e-08
5.2586576e-08
5.1928553e-08
5.1294652e-08
5.0683155e-08
5.0092545e-08
4.9521394e-08
4.8968351e-08
4.8432237e-08
4.791199e-08
4.7406569e-08
4.6914997e-08
4.6436432e-08
4.597011e-08
4.5515262e-08
4.507115e-08
4.4637154e-08
4.421271e-08
4.3797243e-08
4.3390191e-08
4.299106e-08
4.259942e-08
4.2214849e-08
4.1836912e-08
4.1465191e-08
4.1099347e-08
4.0739065e-08
4.0384006e-08
4.0033832e-08
3.9688235e-08
3.9346961e-08
3.9009758e-08
3.8676349e-08
3.8346453e-08
3.8019838e-08
3.76963e-08
3.737562e-08
3.7057557e-08
3.674187e-08
3.6428374e-08
3.6116891e-08
3.5807214e-08
3.5499119e-08
3.5192399e-08
3.4886884e-08
3.4582405e-08
3.4278746e-08
3.3975679e-08
3.3673029e-08
3.3370626e-08
3.3068259e-08
3.2765691e-08
3.2462705e-08
3.2159117e-08
3.1854712e-08
3.1549228e-08
3.1242417e-08
3.0934065e-08
3.0623914e-08
3.0311653e-08
2.9996996e-08
2.9679669e-08
2.9359335e-08
2.9035588e-08
2.8708168e-08
2.8383784e-08
2.8072618e-08
2.7777443e-08
2.7496951e-08
2.7229922e-08
2.6975254e-08
2.6731999e-08
2.6499315e-08
2.6276396e-08
2.6062508e-08
2.5857032e-08
2.5659407e-08
2.5469097e-08
2.5285592e-08
2.5108395e-08
2.4937112e-08
2.4771189e-08
2.4610505e-08
2.4453316e-08
2.4301933e-08
2.414571e-08
2.4009923e-08
2.3783414e-08
1.4726717e-06
1.4727203e-06
1.4729187e-06
1.4733054e-06
1.4738422e-06
1.4744976e-06
1.4752488e-06
1.4760778e-06
1.4769699e-06
1.4779128e-06
1.4788972e-06
1.4799156e-06
1.4809632e-06
1.4820369e-06
1.4831364e-06
1.4842629e-06
1.4854229e-06
1.4866217e-06
1.4878784e-06
1.4892097e-06
1.490602e-06
1.4924105e-06
1.4932006e-06
1.4961722e-06
1.0082571e-07
1.1174695e-07
1.2061903e-07
1.2121972e-07
1.1989055e-07
1.1808791e-07
1.1605629e-07
1.1392732e-07
1.117861e-07
1.0968214e-07
1.0764265e-07
1.0568143e-07
1.0380386e-07
1.0201051e-07
1.0029957e-07
9.8667947e-08
9.7111721e-08
9.5626542e-08
9.4207903e-08
9.2851379e-08
9.1552787e-08
9.0308138e-08
8.9113761e-08
8.7966254e-08
8.6862361e-08
8.5799129e-08
8.4773871e-08
8.3784007e-08
8.2827169e-08
8.1901258e-08
8.1004281e-08
8.0134325e-08
7.9289704e-08
7.8468905e-08
7.7670431e-08
7.6892859e-08
7.6134955e-08
7.5395606e-08
7.4673684e-08
7.3968094e-08
7.3277906e-08
7.2602289e-08
7.1940386e-08
7.1291351e-08
7.0654437e-08
7.0028993e-08
6.9414386e-08
6.8809957e-08
6.8215066e-08
6.7629192e-08
6.7051855e-08
6.6482543e-08
6.5920731e-08
6.5365944e-08
6.4817786e-08
6.4275872e-08
6.3739775e-08
6.3209055e-08
6.2683348e-08
6.2162337e-08
6.1645681e-08
6.1133004e-08
6.0623924e-08
6.0118147e-08
5.9615396e-08
5.9115344e-08
5.8617636e-08
5.8121942e-08
5.7627991e-08
5.7135513e-08
5.6644166e-08
5.6153584e-08
5.5663482e-08
5.5173591e-08
5.468357e-08
5.4193036e-08
5.370164e-08
5.3209081e-08
5.2715012e-08
5.2219009e-08
5.1720667e-08
5.1219634e-08
5.0715495e-08
5.020774e-08
4.9695899e-08
4.9179523e-08
4.8658062e-08
4.8130852e-08
4.7597459e-08
4.7068815e-08
4.6561528e-08
4.6080148e-08
4.5622566e-08
4.5186815e-08
4.4771113e-08
4.4373931e-08
4.3993907e-08
4.3629742e-08
4.3280247e-08
4.2944418e-08
4.262135e-08
4.2310175e-08
4.2010067e-08
4.1720219e-08
4.1439994e-08
4.1168493e-08
4.090552e-08
4.0648254e-08
4.0400431e-08
4.0144809e-08
3.9922538e-08
3.9551348e-08
1.4726693e-06
1.4727173e-06
1.4729137e-06
1.4732982e-06
1.4738332e-06
1.4744873e-06
1.4752375e-06
1.4760655e-06
1.4769566e-06
1.4778986e-06
1.4788817e-06
1.4798987e-06
1.4809445e-06
1.4820159e-06
1.4831126e-06
1.4842358e-06
1.4853917e-06
1.4865855e-06
1.4878358e-06
1.4891599e-06
1.4905414e-06
1.4923394e-06
1.4930989e-06
1.4960623e-06
1.2863546e-07
1.5250729e-07
1.7355725e-07
1.7880825e-07
1.792851e-07
1.7831288e-07
1.7659043e-07
1.7443447e-07
1.7204276e-07
1.6954083e-07
1.6700788e-07
1.644929e-07
1.6202475e-07
1.5961999e-07
1.5728801e-07
1.5503368e-07
1.5285861e-07
1.5076217e-07
1.487423e-07
1.467962e-07
1.4492069e-07
1.4311236e-07
1.4136776e-07
1.3968355e-07
1.3805629e-07
1.3648272e-07
1.3495983e-07
1.3348462e-07
1.3205424e-07
1.3066615e-07
1.2931789e-07
1.2800705e-07
1.2673146e-07
1.2548918e-07
1.2427827e-07
1.2309683e-07
1.2194322e-07
1.2081595e-07
1.197135e-07
1.1863437e-07
1.1757727e-07
1.1654107e-07
1.1552458e-07
1.1452661e-07
1.1354611e-07
1.1258216e-07
1.1163388e-07
1.1070032e-07
1.0978056e-07
1.0887385e-07
1.0797951e-07
1.0709679e-07
1.0622494e-07
1.0536325e-07
1.0451115e-07
1.0366807e-07
1.0283339e-07
1.0200646e-07
1.0118672e-07
1.0037372e-07
9.9566938e-08
9.8765821e-08
9.7969788e-08
9.717839e-08
9.6391212e-08
9.5607763e-08
9.48275e-08
9.4049914e-08
9.3274589e-08
9.2501111e-08
9.1728958e-08
9.0957561e-08
9.0186471e-08
8.9415273e-08
8.8643437e-08
8.7870365e-08
8.7095505e-08
8.6318381e-08
8.5538449e-08
8.4755044e-08
8.3967518e-08
8.3175313e-08
8.2377768e-08
8.1574074e-08
8.0763478e-08
7.9945261e-08
7.9118545e-08
7.8282266e-08
7.743572e-08
7.6596257e-08
7.5790291e-08
7.5025109e-08
7.4297415e-08
7.3604135e-08
7.2942476e-08
7.2310043e-08
7.1704699e-08
7.1124409e-08
7.0567305e-08
7.0031806e-08
6.9516492e-08
6.9019998e-08
6.8541024e-08
6.8078299e-08
6.7630817e-08
6.7197162e-08
6.6777027e-08
6.6365964e-08
6.5969859e-08
6.5561494e-08
6.5206248e-08
6.4612182e-08
1.4726665e-06
1.4727137e-06
1.4729078e-06
1.4732898e-06
1.4738227e-06
1.4744752e-06
1.4752239e-06
1.4760508e-06
1.4769407e-06
1.4778814e-06
1.478863e-06
1.4798782e-06
1.4809217e-06
1.4819905e-06
1.4830839e-06
1.4842031e-06
1.485354e-06
1.486542e-06
1.4877849e-06
1.4891006e-06
1.4904697e-06
1.4922556e-06
1.4929792e-06
1.4959362e-06
1.5924399e-07
1.9988898e-07
2.3939976e-07
2.5307149e-07
2.5753491e-07
2.5887152e-07
2.5855579e-07
2.5720664e-07
2.5519782e-07
2.5277599e-07
2.5010689e-07
2.4730093e-07
2.4443007e-07
2.4154177e-07
2.3866844e-07
2.3583225e-07
2.3304778e-07
2.30324e-07
2.2766609e-07
2.2507665e-07
2.2255666e-07
2.2010582e-07
2.1772302e-07
2.1540667e-07
2.1315456e-07
2.109643e-07
2.0883351e-07
2.0675956e-07
2.0473977e-07
2.027717e-07
2.008529e-07
1.989808e-07
1.9715307e-07
1.9536761e-07
1.9362224e-07
1.9191475e-07
1.9024322e-07
1.8860591e-07
1.8700103e-07
1.854267e-07
1.8388133e-07
1.8236354e-07
1.8087185e-07
1.7940474e-07
1.7796085e-07
1.76539e-07
1.7513805e-07
1.7375678e-07