/*--------------------------------*- C++ -*----------------------------------*\
  =========                 |
  \\      /  F ield         | OpenFOAM: The Open Source CFD Toolbox
   \\    /   O peration     | Website:  https://openfoam.org
    \\  /    A nd           | Version:  12
     \\/     M anipulation  |
\*---------------------------------------------------------------------------*/
FoamFile
{
    format      ascii;
    class       volScalarField;
    location    "1200";
    object      nuTilda;
}
// * * * * * * * * * * * * * * * * * * * * * * * * * * * * * * * * * * * * * //

dimensions      [0 2 -1 0 0 0 0];

internalField   nonuniform List<scalar> 
13056
(
1.9998727e-06
1.999912e-06
2.0000692e-06
2.0003693e-06
2.0007817e-06
2.0012826e-06
2.001855e-06
2.002486e-06
2.0031647e-06
2.0038823e-06
2.004632e-06
2.0054086e-06
2.0062085e-06
2.00703e-06
2.007873e-06
2.0087388e-06
2.0096328e-06
2.0105593e-06
2.0115349e-06
2.0125705e-06
2.0136654e-06
2.0150759e-06
2.0157777e-06
2.0180515e-06
2.9962367e-08
2.1968628e-08
2.083162e-08
2.042838e-08
2.0167685e-08
1.9948025e-08
1.9752879e-08
1.9577253e-08
1.9417738e-08
1.9271425e-08
1.9136135e-08
1.9010279e-08
1.8892637e-08
1.8782213e-08
1.8678176e-08
1.8579833e-08
1.8486596e-08
1.8397962e-08
1.8313488e-08
1.8232786e-08
1.815552e-08
1.8081385e-08
1.8010125e-08
1.7941505e-08
1.7875307e-08
1.7811352e-08
1.7749468e-08
1.7689495e-08
1.7631297e-08
1.7574751e-08
1.7519736e-08
1.7466143e-08
1.7413879e-08
1.7362859e-08
1.7312993e-08
1.7264202e-08
1.7216421e-08
1.7169588e-08
1.7123634e-08
1.7078499e-08
1.7034136e-08
1.6990498e-08
1.6947532e-08
1.6905191e-08
1.6863435e-08
1.6822229e-08
1.6781534e-08
1.674131e-08
1.6701521e-08
1.666214e-08
1.6623138e-08
1.6584482e-08
1.6546141e-08
1.6508086e-08
1.6470295e-08
1.6432744e-08
1.6395404e-08
1.6358246e-08
1.6321249e-08
1.6284393e-08
1.6247654e-08
1.6211005e-08
1.6174419e-08
1.613788e-08
1.6101365e-08
1.6064849e-08
1.6028307e-08
1.5991713e-08
1.5955048e-08
1.5918289e-08
1.5881408e-08
1.5844374e-08
1.5807165e-08
1.5769758e-08
1.573212e-08
1.5694219e-08
1.5656023e-08
1.5617504e-08
1.5578627e-08
1.5539352e-08
1.549964e-08
1.5459455e-08
1.5418753e-08
1.5377482e-08
1.5335593e-08
1.5293037e-08
1.5249753e-08
1.5205669e-08
1.5160734e-08
1.511586e-08
1.5072473e-08
1.5031001e-08
1.4991304e-08
1.4953245e-08
1.4916701e-08
1.4881567e-08
1.4847747e-08
1.4815149e-08
1.4783685e-08
1.4753287e-08
1.4723888e-08
1.4695424e-08
1.4667834e-08
1.4641055e-08
1.4615041e-08
1.4589717e-08
1.4565075e-08
1.454084e-08
1.4517409e-08
1.449301e-08
1.447178e-08
1.4436288e-08
1.9998726e-06
1.9999119e-06
2.0000692e-06
2.0003692e-06
2.0007816e-06
2.0012825e-06
2.0018549e-06
2.0024859e-06
2.0031646e-06
2.0038822e-06
2.0046319e-06
2.0054084e-06
2.0062084e-06
2.0070298e-06
2.0078728e-06
2.0087386e-06
2.0096326e-06
2.010559e-06
2.0115345e-06
2.0125701e-06
2.0136648e-06
2.0150752e-06
2.0157766e-06
2.0180576e-06
8.7775275e-08
6.6202192e-08
6.2795912e-08
6.1581419e-08
6.079607e-08
6.0134714e-08
5.954717e-08
5.9018304e-08
5.8537859e-08
5.8097121e-08
5.7689548e-08
5.7310371e-08
5.6955918e-08
5.6623194e-08
5.63097e-08
5.6013352e-08
5.5732382e-08
5.5465275e-08
5.5210697e-08
5.4967483e-08
5.4734617e-08
5.4511186e-08
5.4296415e-08
5.4089597e-08
5.3890078e-08
5.3697313e-08
5.3510791e-08
5.3330027e-08
5.315461e-08
5.2984171e-08
5.2818347e-08
5.2656805e-08
5.2499272e-08
5.2345484e-08
5.2195173e-08
5.2048103e-08
5.1904078e-08
5.1762907e-08
5.1624387e-08
5.1488335e-08
5.135461e-08
5.1223067e-08
5.1093551e-08
5.0965919e-08
5.0840049e-08
5.0715835e-08
5.0593163e-08
5.0471911e-08
5.035197e-08
5.0233258e-08
5.0115688e-08
4.999916e-08
4.988358e-08
4.9768864e-08
4.9654945e-08
4.9541746e-08
4.9429183e-08
4.931717e-08
4.9205643e-08
4.909454e-08
4.8983788e-08
4.8873308e-08
4.876302e-08
4.8652868e-08
4.8542792e-08
4.8432714e-08
4.8322554e-08
4.821224e-08
4.810171e-08
4.7990897e-08
4.7879715e-08
4.7768073e-08
4.7655904e-08
4.7543136e-08
4.7429673e-08
4.7315416e-08
4.7200269e-08
4.7084149e-08
4.696695e-08
4.6848551e-08
4.6728834e-08
4.6607691e-08
4.6484989e-08
4.6360572e-08
4.6234292e-08
4.6106001e-08
4.5975515e-08
4.5842618e-08
4.5707154e-08
4.5571873e-08
4.5441077e-08
4.5316053e-08
4.5196378e-08
4.5081643e-08
4.4971475e-08
4.4865557e-08
4.4763602e-08
4.4665328e-08
4.4570477e-08
4.4478835e-08
4.4390206e-08
4.4304397e-08
4.422122e-08
4.4140491e-08
4.4062068e-08
4.3985723e-08
4.3911438e-08
4.3838377e-08
4.376774e-08
4.3694195e-08
4.3630196e-08
4.3523195e-08
1.9998725e-06
1.9999118e-06
2.0000689e-06
2.0003689e-06
2.0007813e-06
2.0012821e-06
2.0018545e-06
2.0024855e-06
2.0031641e-06
2.0038818e-06
2.0046314e-06
2.005408e-06
2.0062079e-06
2.0070293e-06
2.0078721e-06
2.0087378e-06
2.0096316e-06
2.0105579e-06
2.0115331e-06
2.0125684e-06
2.0136627e-06
2.0150726e-06
2.0157728e-06
2.0180593e-06
1.4401514e-07
1.1133362e-07
1.0566896e-07
1.0362819e-07
1.0230891e-07
1.0119871e-07
1.0021234e-07
9.9324152e-08
9.8516992e-08
9.7776352e-08
9.7091321e-08
9.6453926e-08
9.5858019e-08
9.5298585e-08
9.4771438e-08
9.4273084e-08
9.3800562e-08
9.3351329e-08
9.2923146e-08
9.2514059e-08
9.2122361e-08
9.1746521e-08
9.1385238e-08
9.1037321e-08
9.0701676e-08
9.0377384e-08
9.0063589e-08
8.9759476e-08
8.9464351e-08
8.9177597e-08
8.8898604e-08
8.8626811e-08
8.8361757e-08
8.8103003e-08
8.7850097e-08
8.760264e-08
8.7360304e-08
8.7122767e-08
8.688969e-08
8.6660765e-08
8.643575e-08
8.6214406e-08
8.5996473e-08
8.5781707e-08
8.5569906e-08
8.5360888e-08
8.5154463e-08
8.4950429e-08
8.4748599e-08
8.4548835e-08
8.4350991e-08
8.4154902e-08
8.3960406e-08
8.3767363e-08
8.357566e-08
8.3385169e-08
8.3195747e-08
8.300725e-08
8.281957e-08
8.2632601e-08
8.2446224e-08
8.2260303e-08
8.2074705e-08
8.1889337e-08
8.1704094e-08
8.1518847e-08
8.1333463e-08
8.1147817e-08
8.0961809e-08
8.0775324e-08
8.0588216e-08
8.0400335e-08
8.0211566e-08
8.0021787e-08
7.9830841e-08
7.9638555e-08
7.9444774e-08
7.9249352e-08
7.9052116e-08
7.8852859e-08
7.8651383e-08
7.8447507e-08
7.8241008e-08
7.8031621e-08
7.7819099e-08
7.7603191e-08
7.7383588e-08
7.7159929e-08
7.6931948e-08
7.6704276e-08
7.6484149e-08
7.6273738e-08
7.6072329e-08
7.5879233e-08
7.5693823e-08
7.5515565e-08
7.5343975e-08
7.5178582e-08
7.5018949e-08
7.4864717e-08
7.4715555e-08
7.4571139e-08
7.4431155e-08
7.4295288e-08
7.4163304e-08
7.4034816e-08
7.3909796e-08
7.378684e-08
7.3667961e-08
7.3544211e-08
7.3436503e-08
7.3256416e-08
1.9998724e-06
1.9999116e-06
2.0000686e-06
2.0003684e-06
2.0007807e-06
2.0012814e-06
2.0018538e-06
2.0024847e-06
2.0031634e-06
2.003881e-06
2.0046306e-06
2.0054071e-06
2.0062069e-06
2.0070282e-06
2.0078709e-06
2.0087363e-06
2.0096299e-06
2.0105559e-06
2.0115306e-06
2.0125654e-06
2.0136589e-06
2.015068e-06
2.0157661e-06
2.0180565e-06
1.9936231e-07
1.5796701e-07
1.5006918e-07
1.4717774e-07
1.4530983e-07
1.4373915e-07
1.4234327e-07
1.4108563e-07
1.3994209e-07
1.3889238e-07
1.3792122e-07
1.3701739e-07
1.3617223e-07
1.3537867e-07
1.3463081e-07
1.3392372e-07
1.3325322e-07
1.3261571e-07
1.3200803e-07
1.3142742e-07
1.3087145e-07
1.3033796e-07
1.2982511e-07
1.2933121e-07
1.2885471e-07
1.2839432e-07
1.2794881e-07
1.2751704e-07
1.2709802e-07
1.2669087e-07
1.2629473e-07
1.2590881e-07
1.2553245e-07
1.2516502e-07
1.248059e-07
1.2445451e-07
1.2411038e-07
1.2377306e-07
1.2344207e-07
1.2311698e-07
1.2279743e-07
1.2248309e-07
1.2217359e-07
1.2186859e-07
1.2156779e-07
1.2127095e-07
1.2097778e-07
1.2068801e-07
1.2040136e-07
1.2011765e-07
1.1983666e-07
1.1955817e-07
1.1928193e-07
1.1900775e-07
1.1873548e-07
1.1846493e-07
1.1819589e-07
1.1792816e-07
1.176616e-07
1.1739604e-07
1.1713132e-07
1.1686725e-07
1.1660363e-07
1.1634034e-07
1.1607723e-07
1.1581411e-07
1.1555079e-07
1.1528711e-07
1.150229e-07
1.1475802e-07
1.1449225e-07
1.1422538e-07
1.1395725e-07
1.1368768e-07
1.1341646e-07
1.1314333e-07
1.1286808e-07
1.1259049e-07
1.1231033e-07
1.1202729e-07
1.1174111e-07
1.1145151e-07
1.1115818e-07
1.1086076e-07
1.1055887e-07
1.1025218e-07
1.0994024e-07
1.0962253e-07
1.0929869e-07
1.0897528e-07
1.0866259e-07
1.083637e-07
1.080776e-07
1.078033e-07
1.0753993e-07
1.0728671e-07
1.0704296e-07
1.0680802e-07
1.0658126e-07
1.0636217e-07
1.0615028e-07
1.0594513e-07
1.0574628e-07
1.0555328e-07
1.0536579e-07
1.0518328e-07
1.0500568e-07
1.0483103e-07
1.0466216e-07
1.0448642e-07
1.0433342e-07
1.0407759e-07
1.9998721e-06
1.9999112e-06
2.000068e-06
2.0003677e-06
2.0007798e-06
2.0012805e-06
2.0018528e-06
2.0024837e-06
2.0031623e-06
2.0038799e-06
2.0046294e-06
2.0054058e-06
2.0062055e-06
2.0070266e-06
2.0078691e-06
2.0087342e-06
2.0096274e-06
2.0105529e-06
2.011527e-06
2.012561e-06
2.0136533e-06
2.0150613e-06
2.0157564e-06
2.0180489e-06
2.5436014e-07
2.0669646e-07
1.9662565e-07
1.9285362e-07
1.9041848e-07
1.8837214e-07
1.8655253e-07
1.8491171e-07
1.8341856e-07
1.8204714e-07
1.8077781e-07
1.795961e-07
1.784908e-07
1.7745275e-07
1.764743e-07
1.7554903e-07
1.7467152e-07
1.7383708e-07
1.7304161e-07
1.7228149e-07
1.7155357e-07
1.7085505e-07
1.7018349e-07
1.6953672e-07
1.689127e-07
1.6830974e-07
1.6772624e-07
1.6716072e-07
1.6661187e-07
1.6607856e-07
1.6555965e-07
1.6505411e-07
1.6456107e-07
1.6407974e-07
1.6360926e-07
1.631489e-07
1.6269805e-07
1.6225612e-07
1.6182247e-07
1.6139653e-07
1.6097785e-07
1.6056599e-07
1.6016047e-07
1.5976083e-07
1.593667e-07
1.5897774e-07
1.5859359e-07
1.5821389e-07
1.5783828e-07
1.5746651e-07
1.570983e-07
1.5673336e-07
1.5637138e-07
1.5601209e-07
1.5565529e-07
1.5530074e-07
1.5494818e-07
1.5459733e-07
1.54248e-07
1.5389999e-07
1.5355308e-07
1.5320701e-07
1.5286154e-07
1.5251649e-07
1.5217167e-07
1.5182684e-07
1.5148175e-07
1.5113617e-07
1.5078991e-07
1.5044276e-07
1.5009445e-07
1.4974469e-07
1.4939328e-07
1.4903999e-07
1.4868452e-07
1.4832655e-07
1.479658e-07
1.4760199e-07
1.472348e-07
1.4686384e-07
1.4648875e-07
1.4610919e-07
1.4572474e-07
1.4533491e-07
1.4493924e-07
1.4453727e-07
1.4412841e-07
1.43712e-07
1.4328754e-07
1.4286365e-07
1.4245381e-07
1.4206205e-07
1.4168706e-07
1.4132753e-07
1.4098232e-07
1.4065042e-07
1.4033094e-07
1.4002299e-07
1.3972577e-07
1.394386e-07
1.3916087e-07
1.3889198e-07
1.3863134e-07
1.3837837e-07
1.3813262e-07
1.3789339e-07
1.3766062e-07
1.3743171e-07
1.3721037e-07
1.3698009e-07
1.3677955e-07
1.3644421e-07
1.9998718e-06
1.9999108e-06
2.0000673e-06
2.0003667e-06
2.0007786e-06
2.0012791e-06
2.0018514e-06
2.0024822e-06
2.0031608e-06
2.0038783e-06
2.0046278e-06
2.0054041e-06
2.0062036e-06
2.0070244e-06
2.0078666e-06
2.0087313e-06
2.0096239e-06
2.0105487e-06
2.011522e-06
2.012555e-06
2.0136457e-06
2.0150522e-06
2.0157432e-06
2.0180363e-06
3.0941495e-07
2.5808509e-07
2.4597562e-07
2.412964e-07
2.3827452e-07
2.357358e-07
2.3347602e-07
2.3143561e-07
2.2957671e-07
2.2786794e-07
2.2628541e-07
2.2481142e-07
2.234322e-07
2.2213647e-07
2.2091478e-07
2.1975925e-07
2.1866313e-07
2.1762065e-07
2.1662669e-07
2.1567678e-07
2.1476702e-07
2.1389389e-07
2.1305439e-07
2.1224581e-07
2.1146562e-07
2.107117e-07
2.0998207e-07
2.0927488e-07
2.085885e-07
2.0792151e-07
2.0727251e-07
2.0664021e-07
2.0602352e-07
2.0542144e-07
2.0483293e-07
2.0425706e-07
2.0369306e-07
2.031402e-07
2.0259769e-07
2.0206482e-07
2.0154101e-07
2.0102572e-07
2.0051836e-07
2.0001834e-07
1.9952521e-07
1.9903853e-07
1.9855787e-07
1.9808277e-07
1.9761278e-07
1.9714759e-07
1.9668685e-07
1.9623018e-07
1.9577721e-07
1.9532762e-07
1.9488113e-07
1.9443745e-07
1.9399625e-07
1.9355719e-07
1.9312003e-07
1.9268451e-07
1.9225036e-07
1.9181727e-07
1.9138492e-07
1.909531e-07
1.9052155e-07
1.9009e-07
1.8965811e-07
1.8922561e-07
1.8879225e-07
1.8835777e-07
1.8792184e-07
1.874841e-07
1.8704429e-07
1.8660211e-07
1.861572e-07
1.8570917e-07
1.8525765e-07
1.848023e-07
1.8434271e-07
1.8387841e-07
1.8340893e-07
1.8293386e-07
1.8245266e-07
1.8196473e-07
1.8146948e-07
1.8096634e-07
1.8045458e-07
1.7993337e-07
1.7940207e-07
1.7887149e-07
1.7835849e-07
1.7786812e-07
1.7739873e-07
1.7694871e-07
1.765166e-07
1.7610115e-07
1.7570124e-07
1.7531577e-07
1.7494373e-07
1.7458427e-07
1.7423662e-07
1.7390003e-07
1.7357378e-07
1.7325712e-07
1.7294951e-07
1.7265006e-07
1.7235868e-07
1.7207216e-07
1.7179511e-07
1.7150695e-07
1.7125594e-07
1.7083614e-07
1.9998713e-06
1.9999102e-06
2.0000664e-06
2.0003654e-06
2.0007771e-06
2.0012775e-06
2.0018496e-06
2.0024804e-06
2.0031589e-06
2.0038763e-06
2.0046256e-06
2.0054017e-06
2.006201e-06
2.0070216e-06
2.0078633e-06
2.0087274e-06
2.0096194e-06
2.0105433e-06
2.0115155e-06
2.0125471e-06
2.0136359e-06
2.0150403e-06
2.0157262e-06
2.0180184e-06
3.6479994e-07
3.1262901e-07
2.9875592e-07
2.9316308e-07
2.8953966e-07
2.8649388e-07
2.8377776e-07
2.8132044e-07
2.7907799e-07
2.7701413e-07
2.7510102e-07
2.7331788e-07
2.7164843e-07
2.7007929e-07
2.6859924e-07
2.6719886e-07
2.6587012e-07
2.6460608e-07
2.6340062e-07
2.6224837e-07
2.6114462e-07
2.6008517e-07
2.5906639e-07
2.5808501e-07
2.57138e-07
2.5622277e-07
2.5533696e-07
2.5447832e-07
2.536449e-07
2.5283495e-07
2.5204681e-07
2.5127889e-07
2.505299e-07
2.4979861e-07
2.4908378e-07
2.4838426e-07
2.4769914e-07
2.4702751e-07
2.4636845e-07
2.4572107e-07
2.4508468e-07
2.4445862e-07
2.4384217e-07
2.4323464e-07
2.4263545e-07
2.4204409e-07
2.4146003e-07
2.4088271e-07
2.403116e-07
2.3974629e-07
2.3918639e-07
2.3863143e-07
2.3808096e-07
2.3753457e-07
2.3699195e-07
2.3645273e-07
2.3591653e-07
2.3538292e-07
2.348516e-07
2.3432228e-07
2.3379461e-07
2.3326822e-07
2.3274273e-07
2.3221787e-07
2.3169334e-07
2.3116879e-07
2.3064384e-07
2.3011814e-07
2.2959139e-07
2.2906327e-07
2.2853338e-07
2.2800128e-07
2.2746666e-07
2.2692916e-07
2.2638835e-07
2.2584373e-07
2.2529486e-07
2.2474132e-07
2.2418264e-07
2.2361822e-07
2.2304751e-07
2.2246998e-07
2.2188501e-07
2.2129185e-07
2.206898e-07
2.2007814e-07
2.19456e-07
2.1882236e-07
2.1817646e-07
2.1753142e-07
2.1690775e-07
2.163116e-07
2.1574094e-07
2.1519384e-07
2.146685e-07
2.1416342e-07
2.1367723e-07
2.1320859e-07
2.1275627e-07
2.1231925e-07
2.1189659e-07
2.1148738e-07
2.1109073e-07
2.1070574e-07
2.1033176e-07
2.099677e-07
2.0961346e-07
2.0926514e-07
2.089283e-07
2.085781e-07
2.0827294e-07
2.0776251e-07
1.9998708e-06
1.9999095e-06
2.0000652e-06
2.0003638e-06
2.0007752e-06
2.0012753e-06
2.0018473e-06
2.002478e-06
2.0031564e-06
2.0038737e-06
2.0046229e-06
2.0053988e-06
2.0061978e-06
2.0070179e-06
2.007859e-06
2.0087225e-06
2.0096136e-06
2.0105365e-06
2.0115072e-06
2.0125372e-06
2.0136235e-06
2.0150254e-06
2.0157048e-06
2.0179945e-06
4.2065962e-07
3.706958e-07
3.5558382e-07
3.491202e-07
3.4489571e-07
3.4133676e-07
3.3815291e-07
3.3526359e-07
3.3262039e-07
3.3018327e-07
3.2792112e-07
3.2581045e-07
3.2383269e-07
3.2197245e-07
3.2021681e-07
3.1855487e-07
3.1697731e-07
3.1547602e-07
3.1404386e-07
3.1267455e-07
3.1136256e-07
3.1010297e-07
3.088915e-07
3.077243e-07
3.0659781e-07
3.0550898e-07
3.0445501e-07
3.0343326e-07
3.024414e-07
3.0147739e-07
3.0053925e-07
2.9962512e-07
2.9873345e-07
2.9786278e-07
2.9701165e-07
2.9617873e-07
2.9536288e-07
2.9456306e-07
2.9377817e-07
2.9300715e-07
2.922492e-07
2.9150351e-07
2.9076924e-07
2.9004557e-07
2.8933181e-07
2.8862736e-07
2.8793158e-07
2.872438e-07
2.8656341e-07
2.8588991e-07
2.8522283e-07
2.8456163e-07
2.8390576e-07
2.8325474e-07
2.8260819e-07
2.8196569e-07
2.8132676e-07
2.8069092e-07
2.800578e-07
2.7942703e-07
2.7879823e-07
2.7817095e-07
2.7754473e-07
2.7691924e-07
2.7629415e-07
2.7566902e-07
2.750434e-07
2.7441688e-07
2.737891e-07
2.7315968e-07
2.7252815e-07
2.7189398e-07
2.7125679e-07
2.7061616e-07
2.6997157e-07
2.6932245e-07
2.6866825e-07
2.6800848e-07
2.6734258e-07
2.6666983e-07
2.6598956e-07
2.6530117e-07
2.646039e-07
2.6389687e-07
2.6317923e-07
2.6245012e-07
2.6170853e-07
2.6095322e-07
2.6018329e-07
2.5941437e-07
2.5867093e-07
2.5796028e-07
2.5728002e-07
2.5662783e-07
2.5600158e-07
2.5539949e-07
2.548199e-07
2.5426124e-07
2.5372203e-07
2.5320106e-07
2.526972e-07
2.5220938e-07
2.5173652e-07
2.5127758e-07
2.5083175e-07
2.5039775e-07
2.4997546e-07
2.4956026e-07
2.4915872e-07
2.487414e-07
2.4837766e-07
2.4776909e-07
1.9998701e-06
1.9999086e-06
2.0000638e-06
2.0003619e-06
2.0007728e-06
2.0012727e-06
2.0018445e-06
2.002475e-06
2.0031533e-06
2.0038704e-06
2.0046194e-06
2.005395e-06
2.0061936e-06
2.0070132e-06
2.0078537e-06
2.0087164e-06
2.0096064e-06
2.0105279e-06
2.0114969e-06
2.0125249e-06
2.0136081e-06
2.015007e-06
2.0156784e-06
2.0179644e-06
4.7701838e-07
4.3243769e-07
4.1701778e-07
4.0982566e-07
4.0503521e-07
4.0097734e-07
3.973272e-07
3.9399877e-07
3.909424e-07
3.8811652e-07
3.8548812e-07
3.8303183e-07
3.8072727e-07
3.7855738e-07
3.7650772e-07
3.7456605e-07
3.7272182e-07
3.7096584e-07
3.6928995e-07
3.6768696e-07
3.6615055e-07
3.6467503e-07
3.6325549e-07
3.618875e-07
3.6056693e-07
3.5929025e-07
3.5805422e-07
3.5685578e-07
3.5569223e-07
3.5456119e-07
3.5346037e-07
3.5238761e-07
3.5134108e-07
3.503191e-07
3.4931997e-07
3.4834212e-07
3.4738425e-07
3.4644512e-07
3.4552346e-07
3.4461804e-07
3.437279e-07
3.4285211e-07
3.4198969e-07
3.4113968e-07
3.4030127e-07
3.3947375e-07
3.3865639e-07
3.378484e-07
3.3704905e-07
3.3625777e-07
3.35474e-07
3.3469712e-07
3.3392648e-07
3.3316152e-07
3.3240178e-07
3.3164678e-07
3.3089596e-07
3.3014875e-07
3.2940472e-07
3.2866344e-07
3.2792445e-07
3.2718723e-07
3.2645125e-07
3.2571611e-07
3.2498142e-07
3.2424668e-07
3.2351135e-07
3.2277494e-07
3.2203705e-07
3.2129721e-07
3.2055488e-07
3.1980944e-07
3.1906044e-07
3.1830738e-07
3.1754966e-07
3.167866e-07
3.1601756e-07
3.1524197e-07
3.1445915e-07
3.1366828e-07
3.1286857e-07
3.1205929e-07
3.1123956e-07
3.1040835e-07
3.0956465e-07
3.0870748e-07
3.078356e-07
3.069476e-07
3.060424e-07
3.0513838e-07
3.042643e-07
3.0342877e-07
3.0262897e-07
3.0186216e-07
3.0112586e-07
3.0041794e-07
2.9973649e-07
2.9907963e-07
2.9844565e-07
2.978331e-07
2.9724068e-07
2.966671e-07
2.9611113e-07
2.9557151e-07
2.9504731e-07
2.9453703e-07
2.9404051e-07
2.9355236e-07
2.9308025e-07
2.925898e-07
2.9216217e-07
2.9144651e-07
1.9998693e-06
1.9999076e-06
2.0000621e-06
2.0003595e-06
2.0007699e-06
2.0012695e-06
2.001841e-06
2.0024714e-06
2.0031495e-06
2.0038664e-06
2.0046151e-06
2.0053904e-06
2.0061885e-06
2.0070075e-06
2.0078471e-06
2.0087087e-06
2.0095974e-06
2.0105174e-06
2.0114843e-06
2.0125099e-06
2.0135893e-06
2.0149846e-06
2.0156462e-06
2.0179273e-06
5.3379839e-07
4.97699e-07
4.8348858e-07
4.7589118e-07
4.7063863e-07
4.6613728e-07
4.6204958e-07
4.582933e-07
4.5482375e-07
4.5160201e-07
4.4859578e-07
4.4577947e-07
4.4313191e-07
4.4063506e-07
4.3827341e-07
4.3603372e-07
4.3390444e-07
4.3187544e-07
4.2993764e-07
4.2808303e-07
4.263045e-07
4.2459568e-07
4.2295102e-07
4.213655e-07
4.1983445e-07
4.1835384e-07
4.1692e-07
4.1552943e-07
4.1417905e-07
4.1286614e-07
4.1158808e-07
4.1034238e-07
4.0912696e-07
4.0793987e-07
4.0677919e-07
4.0564309e-07
4.0453007e-07
4.0343871e-07
4.0236755e-07
4.0131518e-07
4.0028047e-07
3.9926236e-07
3.9825972e-07
3.9727144e-07
3.9629659e-07
3.9533433e-07
3.9438382e-07
3.9344417e-07
3.9251452e-07
3.9159421e-07
3.906826e-07
3.8977894e-07
3.8888251e-07
3.8799266e-07
3.8710885e-07
3.8623051e-07
3.8535702e-07
3.844877e-07
3.8362203e-07
3.8275955e-07
3.8189971e-07
3.8104191e-07
3.8018552e-07
3.793301e-07
3.7847517e-07
3.7762016e-07
3.7676445e-07
3.7590747e-07
3.7504874e-07
3.7418773e-07
3.733238e-07
3.7245625e-07
3.7158453e-07
3.7070807e-07
3.6982618e-07
3.6893805e-07
3.6804295e-07
3.6714022e-07
3.6622905e-07
3.653085e-07
3.6437765e-07
3.6343564e-07
3.6248147e-07
3.6151392e-07
3.6053182e-07
3.5953402e-07
3.5851911e-07
3.574854e-07
3.5643166e-07
3.5537929e-07
3.5436176e-07
3.5338911e-07
3.5245804e-07
3.5156537e-07
3.507082e-07
3.4988408e-07
3.4909076e-07
3.4832607e-07
3.47588e-07
3.4687489e-07
3.4618521e-07
3.4551747e-07
3.4487021e-07
3.44242e-07
3.4363174e-07
3.4303769e-07
3.4245967e-07
3.4189143e-07
3.4134182e-07
3.4077113e-07
3.4027337e-07
3.3944006e-07
1.9998684e-06
1.9999064e-06
2.0000601e-06
2.0003567e-06
2.0007665e-06
2.0012656e-06
2.0018369e-06
2.0024669e-06
2.0031448e-06
2.0038614e-06
2.0046098e-06
2.0053846e-06
2.0061821e-06
2.0070003e-06
2.007839e-06
2.0086994e-06
2.0095865e-06
2.0105045e-06
2.0114688e-06
2.0124916e-06
2.0135666e-06
2.0149576e-06
2.0156074e-06
2.0178826e-06
5.9081395e-07
5.6601798e-07
5.5519913e-07
5.478137e-07
5.4232731e-07
5.3751413e-07
5.3306986e-07
5.2893381e-07
5.2507742e-07
5.2147175e-07
5.1809004e-07
5.1490952e-07
5.1191025e-07
5.0907453e-07
5.0638678e-07
5.0383341e-07
5.014024e-07
4.9908299e-07
4.9686548e-07
4.9474118e-07
4.9270239e-07
4.9074212e-07
4.8885426e-07
4.8703326e-07
4.8527397e-07
4.8357187e-07
4.8192287e-07
4.8032307e-07
4.7876899e-07
4.7725757e-07
4.7578587e-07
4.743511e-07
4.7295086e-07
4.7158298e-07
4.7024527e-07
4.6893566e-07
4.6765244e-07
4.66394e-07
4.6515868e-07
4.6394487e-07
4.6275128e-07
4.615767e-07
4.6041984e-07
4.5927945e-07
4.5815444e-07
4.5704386e-07
4.5594675e-07
4.548621e-07
4.5378891e-07
4.5272643e-07
4.5167391e-07
4.5063052e-07
4.4959542e-07
4.4856786e-07
4.4754722e-07
4.4653285e-07
4.4552402e-07
4.4451997e-07
4.4352011e-07
4.4252388e-07
4.4153066e-07
4.4053976e-07
4.3955046e-07
4.3856224e-07
4.3757456e-07
4.3658677e-07
4.3559814e-07
4.3460801e-07
4.3361583e-07
4.3262099e-07
4.3162276e-07
4.3062033e-07
4.2961304e-07
4.2860027e-07
4.2758119e-07
4.265549e-07
4.2552053e-07
4.2447731e-07
4.2342433e-07
4.223605e-07
4.2128475e-07
4.2019609e-07
4.1909335e-07
4.1797514e-07
4.168401e-07
4.156869e-07
4.145139e-07
4.1331919e-07
4.121013e-07
4.1088497e-07
4.0970891e-07
4.0858472e-07
4.0750857e-07
4.064768e-07
4.0548607e-07
4.0453352e-07
4.0361657e-07
4.0273272e-07
4.0187963e-07
4.0105539e-07
4.0025822e-07
3.9948641e-07
3.9873828e-07
3.9801217e-07
3.9730681e-07
3.9662018e-07
3.9595209e-07
3.9529538e-07
3.9466015e-07
3.9400087e-07
3.9342568e-07
3.9246228e-07
1.9998672e-06
1.9999049e-06
2.0000577e-06
2.0003533e-06
2.0007624e-06
2.0012609e-06
2.0018318e-06
2.0024615e-06
2.0031391e-06
2.0038554e-06
2.0046033e-06
2.0053775e-06
2.0061743e-06
2.0069916e-06
2.007829e-06
2.0086879e-06
2.0095731e-06
2.0104888e-06
2.0114502e-06
2.0124695e-06
2.0135393e-06
2.0149252e-06
2.015561e-06
2.0178295e-06
6.4775292e-07
6.3670824e-07
6.3201815e-07
6.2586938e-07
6.2057864e-07
6.1571391e-07
6.1108589e-07
6.0668574e-07
6.0251933e-07
5.9857985e-07
5.9485421e-07
5.9132786e-07
5.8798572e-07
5.8481292e-07
5.8179562e-07
5.7892124e-07
5.7617823e-07
5.7355596e-07
5.7104462e-07
5.6863531e-07
5.6632e-07
5.6409138e-07
5.6194293e-07
5.5986876e-07
5.5786331e-07
5.5592169e-07
5.5403946e-07
5.5221237e-07
5.5043657e-07
5.4870871e-07
5.4702556e-07
5.45384e-07
5.4378138e-07
5.4221529e-07
5.4068329e-07
5.3918307e-07
5.3771269e-07
5.3627037e-07
5.3485424e-07
5.334625e-07
5.3209368e-07
5.3074642e-07
5.2941929e-07
5.2811084e-07
5.2681986e-07
5.2554527e-07
5.2428598e-07
5.2304085e-07
5.2180875e-07
5.2058881e-07
5.1938018e-07
5.1818195e-07
5.1699313e-07
5.1581288e-07
5.1464048e-07
5.134752e-07
5.1231621e-07
5.1116265e-07
5.1001383e-07
5.0886911e-07
5.0772779e-07
5.0658907e-07
5.0545216e-07
5.0431643e-07
5.0318126e-07
5.0204591e-07
5.0090957e-07
4.9977147e-07
4.9863096e-07
4.9748736e-07
4.9633983e-07
4.9518743e-07
4.9402943e-07
4.9286508e-07
4.9169346e-07
4.9051351e-07
4.8932426e-07
4.881248e-07
4.869141e-07
4.856909e-07
4.8445397e-07
4.8320218e-07
4.8193419e-07
4.8064838e-07
4.7934321e-07
4.7801714e-07
4.766683e-07
4.7529446e-07
4.7389396e-07
4.7249526e-07
4.7114285e-07
4.6985007e-07
4.6861254e-07
4.6742604e-07
4.6628673e-07
4.6519133e-07
4.6413686e-07
4.6312045e-07
4.6213943e-07
4.6119157e-07
4.6027485e-07
4.5938729e-07
4.5852698e-07
4.5769199e-07
4.5688086e-07
4.5609129e-07
4.5532304e-07
4.5456794e-07
4.5383751e-07
4.5307984e-07
4.5241861e-07
4.5131045e-07
1.9998659e-06
1.9999032e-06
2.0000549e-06
2.0003494e-06
2.0007575e-06
2.0012554e-06
2.0018257e-06
2.002455e-06
2.0031322e-06
2.003848e-06
2.0045954e-06
2.0053689e-06
2.0061648e-06
2.0069808e-06
2.0078168e-06
2.0086739e-06
2.0095568e-06
2.0104698e-06
2.0114276e-06
2.0124429e-06
2.0135067e-06
2.0148866e-06
2.0155057e-06
2.0177673e-06
7.0418523e-07
7.08919e-07
7.1343534e-07
7.09997e-07
7.0560705e-07
7.0114e-07
6.9664394e-07
6.9220633e-07
6.8789364e-07
6.8373914e-07
6.7975585e-07
6.7594606e-07
6.723055e-07
6.6882641e-07
6.6549982e-07
6.6231653e-07
6.5926724e-07
6.5634281e-07
6.5353437e-07
6.5083358e-07
6.4823278e-07
6.457248e-07
6.4330316e-07
6.4096192e-07
6.386954e-07
6.3649854e-07
6.343667e-07
6.3229542e-07
6.3028064e-07
6.2831876e-07
6.2640634e-07
6.2454003e-07
6.2271695e-07
6.2093449e-07
6.1918999e-07
6.1748094e-07
6.1580519e-07
6.141608e-07
6.1254572e-07
6.1095794e-07
6.0939584e-07
6.0785791e-07
6.0634256e-07
6.048482e-07
6.0337345e-07
6.019171e-07
6.0047796e-07
5.9905474e-07
5.9764619e-07
5.9625129e-07
5.9486913e-07
5.9349865e-07
5.9213877e-07
5.9078851e-07
5.8944707e-07
5.8811362e-07
5.8678725e-07
5.8546696e-07
5.8415196e-07
5.8284154e-07
5.815349e-07
5.8023116e-07
5.7892937e-07
5.7762885e-07
5.7632888e-07
5.7502863e-07
5.7372717e-07
5.7242362e-07
5.7111724e-07
5.6980726e-07
5.6849272e-07
5.6717254e-07
5.6584589e-07
5.6451191e-07
5.6316955e-07
5.6181762e-07
5.6045497e-07
5.5908059e-07
5.5769329e-07
5.5629164e-07
5.5487422e-07
5.5343974e-07
5.5198666e-07
5.5051314e-07
5.4901741e-07
5.4749771e-07
5.4595188e-07
5.4437741e-07
5.4277235e-07
5.4116934e-07
5.3961938e-07
5.3813776e-07
5.3671944e-07
5.3535963e-07
5.3405389e-07
5.3279847e-07
5.3158997e-07
5.3042509e-07
5.2930077e-07
5.2821446e-07
5.2716385e-07
5.2614666e-07
5.251607e-07
5.2420377e-07
5.232742e-07
5.2236936e-07
5.2148897e-07
5.2062374e-07
5.1978671e-07
5.1891901e-07
5.1816156e-07
5.1689119e-07
1.9998643e-06
1.9999012e-06
2.0000516e-06
2.0003447e-06
2.0007517e-06
2.0012488e-06
2.0018185e-06
2.0024472e-06
2.0031238e-06
2.0038391e-06
2.0045857e-06
2.0053584e-06
2.0061531e-06
2.0069678e-06
2.007802e-06
2.0086569e-06
2.0095371e-06
2.0104469e-06
2.0114006e-06
2.0124111e-06
2.0134679e-06
2.0148408e-06
2.0154402e-06
2.0176949e-06
7.5957604e-07
7.8167206e-07
7.9863303e-07
7.9975252e-07
7.9727045e-07
7.9387657e-07
7.9001229e-07
7.8591686e-07
7.817488e-07
7.7760371e-07
7.7353713e-07
7.6958008e-07
7.6574761e-07
7.6204542e-07
7.5847423e-07
7.5503191e-07
7.5171432e-07
7.4851604e-07
7.4543091e-07
7.4245257e-07
7.3957484e-07
7.3679164e-07
7.3409726e-07
7.3148634e-07
7.2895356e-07
7.2649409e-07
7.2410348e-07
7.2177733e-07
7.1951157e-07
7.1730259e-07
7.151469e-07
7.1304107e-07
7.1098207e-07
7.0896722e-07
7.0699374e-07
7.0505897e-07
7.0316061e-07
7.0129661e-07
6.994648e-07
6.9766301e-07
6.9588945e-07
6.9414252e-07
6.9242051e-07
6.9072168e-07
6.8904451e-07
6.8738768e-07
6.8574988e-07
6.8412971e-07
6.8252577e-07
6.8093694e-07
6.793622e-07
6.7780041e-07
6.7625035e-07
6.7471094e-07
6.7318125e-07
6.716604e-07
6.7014734e-07
6.6864098e-07
6.671404e-07
6.6564481e-07
6.6415334e-07
6.6266496e-07
6.6117865e-07
6.5969358e-07
6.5820897e-07
6.5672389e-07
6.5523727e-07
6.5374812e-07
6.522556e-07
6.5075883e-07
6.4925672e-07
6.4774807e-07
6.462319e-07
6.4470726e-07
6.4317293e-07
6.4162757e-07
6.4006987e-07
6.3849867e-07
6.3691262e-07
6.3531009e-07
6.3368946e-07
6.3204925e-07
6.3038771e-07
6.2870275e-07
6.2699234e-07
6.2525445e-07
6.2348665e-07
6.2168605e-07
6.1985044e-07
6.1801711e-07
6.1624445e-07
6.1454993e-07
6.129278e-07
6.1137256e-07
6.0987917e-07
6.0844333e-07
6.0706114e-07
6.0572885e-07
6.0444295e-07
6.0320053e-07
6.0199894e-07
6.0083558e-07
5.9970795e-07
5.9861354e-07
5.9755042e-07
5.9651562e-07
5.9550879e-07
5.9451943e-07
5.9356225e-07
5.9257066e-07
5.9170485e-07
5.9025144e-07
1.9998625e-06
1.9998988e-06
2.0000477e-06
2.0003392e-06
2.0007449e-06
2.001241e-06
2.0018098e-06
2.0024379e-06
2.0031138e-06
2.0038282e-06
2.004574e-06
2.0053455e-06
2.0061389e-06
2.0069518e-06
2.007784e-06
2.0086363e-06
2.0095134e-06
2.0104193e-06
2.0113683e-06
2.0123732e-06
2.0134218e-06
2.0147867e-06
2.0153629e-06
2.0176114e-06
8.1329724e-07
8.5388727e-07
8.8660419e-07
8.9439581e-07
8.950967e-07
8.9366646e-07
8.9112136e-07
8.8791522e-07
8.8433127e-07
8.8055075e-07
8.7668975e-07
8.7282179e-07
8.6899166e-07
8.652264e-07
8.615427e-07
8.5795049e-07
8.5445479e-07
8.5105703e-07
8.4775635e-07
8.445505e-07
8.4143649e-07
8.3841075e-07
8.3546954e-07
8.3260905e-07
8.2982518e-07
8.2711399e-07
8.244718e-07
8.2189478e-07
8.1937927e-07
8.16922e-07
8.1451974e-07
8.1216923e-07
8.0986754e-07
8.0761209e-07
8.0540017e-07
8.032291e-07
8.0109657e-07
7.9900052e-07
7.9693875e-07
7.9490901e-07
7.9290945e-07
7.9093841e-07
7.8899412e-07
7.8707474e-07
7.8517864e-07
7.8330444e-07
7.8145075e-07
7.7961608e-07
7.777989e-07
7.7599802e-07
7.7421233e-07
7.724406e-07
7.7068151e-07
7.6893387e-07
7.6719666e-07
7.6546891e-07
7.6374949e-07
7.6203719e-07
7.6033098e-07
7.5862998e-07
7.5693323e-07
7.5523961e-07
7.5354796e-07
7.5185734e-07
7.501669e-07
7.4847558e-07
7.4678221e-07
7.4508565e-07
7.4338494e-07
7.4167913e-07
7.3996697e-07
7.382471e-07
7.3651841e-07
7.3477981e-07
7.3302996e-07
7.3126731e-07
7.2949038e-07
7.2769785e-07
7.2588818e-07
7.2405954e-07
7.2221006e-07
7.2033807e-07
7.1844158e-07
7.165182e-07
7.1456562e-07
7.1258153e-07
7.1056316e-07
7.0850721e-07
7.0641117e-07
7.0431762e-07
7.0229325e-07
7.0035804e-07
6.9850544e-07
6.9672919e-07
6.9502354e-07
6.9338356e-07
6.9180485e-07
6.902831e-07
6.8881433e-07
6.873952e-07
6.8602268e-07
6.8469384e-07
6.8340581e-07
6.8215573e-07
6.8094139e-07
6.7975943e-07
6.7860942e-07
6.7747952e-07
6.7638628e-07
6.7525457e-07
6.7426621e-07
6.7260527e-07
1.9998604e-06
1.9998961e-06
2.0000433e-06
2.0003329e-06
2.000737e-06
2.0012317e-06
2.0017996e-06
2.0024267e-06
2.0031017e-06
2.0038152e-06
2.0045598e-06
2.0053299e-06
2.0061216e-06
2.0069325e-06
2.0077621e-06
2.0086114e-06
2.0094848e-06
2.0103863e-06
2.0113296e-06
2.0123282e-06
2.0133673e-06
2.014723e-06
2.0152719e-06
2.0175157e-06
8.6463402e-07
9.2441417e-07
9.7621161e-07
9.93037e-07
9.9842522e-07
1.0000293e-06
9.9965076e-07
9.9803064e-07
9.956101e-07
9.9267851e-07
9.8943038e-07
9.8599582e-07
9.824603e-07
9.7888088e-07
9.7529717e-07
9.7173696e-07
9.6821911e-07
9.6475585e-07
9.6135479e-07
9.5802045e-07
9.5475532e-07
9.5156024e-07
9.4843502e-07
9.4537876e-07
9.4238975e-07
9.3946594e-07
9.3660522e-07
9.3380508e-07
9.310629e-07
9.2837626e-07
9.2574269e-07
9.2315948e-07
9.2062417e-07
9.1813458e-07
9.1568834e-07
9.1328301e-07
9.1091643e-07
9.0858675e-07
9.0629189e-07
9.0402969e-07
9.0179831e-07
8.9959618e-07
8.9742157e-07
8.9527262e-07
8.9314769e-07
8.9104536e-07
8.8896427e-07