/*--------------------------------*- C++ -*----------------------------------*\
  =========                 |
  \\      /  F ield         | OpenFOAM: The Open Source CFD Toolbox
   \\    /   O peration     | Website:  https://openfoam.org
    \\  /    A nd           | Version:  12
     \\/     M anipulation  |
\*---------------------------------------------------------------------------*/
FoamFile
{
    format      ascii;
    class       volScalarField;
    location    "1200";
    object      p;
}
// * * * * * * * * * * * * * * * * * * * * * * * * * * * * * * * * * * * * * //

dimensions      [0 2 -2 0 0 0 0];

internalField   nonuniform List<scalar> 
13056
(
0.0040828422
0.0041026304
0.0041458488
0.0042004779
0.0042648663
0.0043389493
0.0044220656
0.0045134953
0.0046129011
0.0047203304
0.0048361305
0.0049609508
0.005095824
0.0052423111
0.0054027008
0.005580429
0.0057804925
0.0060112745
0.006284398
0.0066275876
0.0070657962
0.0077620727
0.008645779
0.012589819
0.0091241822
0.0040369443
0.0039379462
0.0044004564
0.0045212005
0.0044669236
0.0043926143
0.0043245824
0.0042561976
0.0041869482
0.0041189937
0.0040538903
0.0039922444
0.0039337338
0.0038780737
0.0038250563
0.0037745246
0.0037263215
0.0036801192
0.0036359258
0.0035933531
0.0035524253
0.0035130272
0.003474749
0.0034378002
0.0034020371
0.0033670995
0.0033331309
0.0033001094
0.0032677931
0.0032360618
0.0032051086
0.0031748099
0.0031448929
0.0031154122
0.0030865102
0.0030580546
0.0030298192
0.0030018407
0.0029742899
0.0029470667
0.0029199196
0.0028929115
0.002866124
0.0028395764
0.0028130824
0.0027865873
0.0027601096
0.0027337927
0.0027075369
0.0026811343
0.0026546472
0.002628116
0.0026016058
0.0025749678
0.0025480957
0.0025210054
0.0024938062
0.0024664832
0.0024388309
0.0024108437
0.0023825061
0.0023539564
0.0023251027
0.0022957206
0.0022658545
0.0022355187
0.0022047808
0.0021734802
0.0021414689
0.0021087259
0.0020753955
0.0020413841
0.0020064074
0.0019704636
0.0019335838
0.0018957625
0.0018567582
0.0018163947
0.001774702
0.0017316696
0.0016870277
0.0016405045
0.0015921567
0.0015418621
0.0014892168
0.001433999
0.0013762013
0.0013156406
0.0012528328
0.0011898836
0.0011279487
0.0010668356
0.001006482
0.0009470384
0.00088839962
0.00083036205
0.00077296996
0.00071644543
0.00066077709
0.00060579858
0.00055165964
0.00049849186
0.0004466127
0.00039632636
0.00034762541
0.00030223965
0.00025856007
0.00022878532
0.00019037373
0.00031234296
-0.00024362978
0.0040828422
0.0041026304
0.0041458488
0.0042004779
0.0042648663
0.0043389493
0.0044220656
0.0045134953
0.0046129011
0.0047203304
0.0048361305
0.0049609508
0.005095824
0.0052423111
0.0054027009
0.005580429
0.0057804925
0.0060112745
0.006284398
0.0066275876
0.0070657961
0.0077620725
0.0086457794
0.01257262
0.0091249875
0.0040376072
0.0039380442
0.0044004934
0.0045212267
0.0044669458
0.0043926337
0.0043245996
0.004256213
0.0041869621
0.0041190063
0.0040539019
0.0039922551
0.0039337437
0.0038780829
0.0038250648
0.0037745326
0.0037263289
0.0036801262
0.0036359323
0.0035933592
0.0035524311
0.0035130327
0.0034747542
0.0034378051
0.0034020418
0.0033671039
0.0033331352
0.0033001134
0.003267797
0.0032360655
0.0032051122
0.0031748133
0.0031448961
0.0031154153
0.0030865131
0.0030580574
0.0030298219
0.0030018433
0.0029742924
0.0029470692
0.0029199219
0.0028929137
0.0028661262
0.0028395785
0.0028130844
0.0027865892
0.0027601115
0.0027337945
0.0027075386
0.0026811359
0.0026546488
0.0026281175
0.0026016073
0.0025749692
0.0025480971
0.0025210068
0.0024938074
0.0024664845
0.0024388321
0.0024108449
0.0023825072
0.0023539574
0.0023251037
0.0022957216
0.0022658555
0.0022355197
0.0022047816
0.0021734811
0.0021414697
0.0021087267
0.0020753962
0.0020413848
0.0020064081
0.0019704643
0.0019335845
0.0018957631
0.0018567588
0.0018163953
0.0017747025
0.0017316701
0.0016870282
0.001640505
0.0015921572
0.0015418625
0.0014892172
0.0014339994
0.0013762017
0.0013156409
0.0012528331
0.0011898839
0.0011279491
0.0010668359
0.0010064823
0.00094703868
0.00088839988
0.0008303623
0.00077297021
0.00071644566
0.00066077731
0.0006057988
0.00055165985
0.00049849207
0.0004466129
0.00039632656
0.0003476256
0.00030223983
0.00025856025
0.0002287855
0.00019037391
0.00031234317
-0.00024362964
0.0040828422
0.0041026304
0.0041458488
0.0042004779
0.0042648663
0.0043389493
0.0044220656
0.0045134953
0.0046129011
0.0047203305
0.0048361306
0.0049609508
0.005095824
0.0052423111
0.0054027009
0.005580429
0.0057804925
0.0060112745
0.006284398
0.0066275876
0.0070657961
0.0077620722
0.0086457797
0.012556276
0.0091258626
0.0040383729
0.0039381606
0.0044005376
0.004521258
0.0044669723
0.0043926569
0.0043246202
0.0042562314
0.0041869788
0.0041190215
0.0040539158
0.0039922679
0.0039337555
0.0038780938
0.003825075
0.0037745421
0.0037263378
0.0036801345
0.0036359402
0.0035933666
0.003552438
0.0035130393
0.0034747604
0.003437811
0.0034020474
0.0033671093
0.0033331402
0.0033001183
0.0032678016
0.0032360699
0.0032051164
0.0031748173
0.0031449
0.003115419
0.0030865167
0.0030580608
0.0030298252
0.0030018464
0.0029742954
0.002947072
0.0029199246
0.0028929164
0.0028661287
0.0028395809
0.0028130867
0.0027865915
0.0027601137
0.0027337966
0.0027075406
0.0026811379
0.0026546507
0.0026281194
0.0026016091
0.0025749709
0.0025480987
0.0025210084
0.002493809
0.0024664859
0.0024388335
0.0024108462
0.0023825086
0.0023539587
0.0023251049
0.0022957228
0.0022658566
0.0022355208
0.0022047827
0.0021734821
0.0021414707
0.0021087276
0.0020753971
0.0020413857
0.0020064089
0.0019704651
0.0019335853
0.0018957638
0.0018567595
0.001816396
0.0017747032
0.0017316707
0.0016870288
0.0016405056
0.0015921578
0.0015418631
0.0014892177
0.0014339999
0.0013762021
0.0013156414
0.0012528335
0.0011898843
0.0011279494
0.0010668363
0.0010064827
0.00094703901
0.0008884002
0.00083036261
0.0007729705
0.00071644594
0.00066077759
0.00060579907
0.00055166011
0.00049849231
0.00044661313
0.00039632679
0.00034762582
0.00030224005
0.00025856046
0.00022878571
0.00019037412
0.00031234342
-0.00024362947
0.0040828422
0.0041026304
0.0041458488
0.0042004779
0.0042648663
0.0043389493
0.0044220657
0.0045134953
0.0046129011
0.0047203305
0.0048361306
0.0049609508
0.005095824
0.0052423111
0.0054027009
0.005580429
0.0057804925
0.0060112745
0.006284398
0.0066275876
0.007065796
0.0077620717
0.00864578
0.012541702
0.0091268435
0.0040390787
0.0039382703
0.0044005811
0.0045212887
0.0044669983
0.0043926797
0.0043246404
0.0042562495
0.0041869951
0.0041190364
0.0040539295
0.0039922804
0.0039337671
0.0038781046
0.0038250849
0.0037745514
0.0037263465
0.0036801427
0.0036359479
0.0035933738
0.0035524449
0.0035130458
0.0034747665
0.0034378168
0.0034020529
0.0033671145
0.0033331452
0.003300123
0.0032678061
0.0032360742
0.0032051205
0.0031748212
0.0031449037
0.0031154226
0.0030865201
0.0030580641
0.0030298283
0.0030018494
0.0029742983
0.0029470748
0.0029199273
0.002892919
0.0028661312
0.0028395833
0.002813089
0.0027865937
0.0027601158
0.0027337987
0.0027075426
0.0026811398
0.0026546525
0.0026281212
0.0026016108
0.0025749726
0.0025481003
0.0025210099
0.0024938105
0.0024664874
0.0024388349
0.0024108476
0.0023825098
0.00235396
0.0023251061
0.002295724
0.0022658577
0.0022355218
0.0022047838
0.0021734831
0.0021414717
0.0021087286
0.002075398
0.0020413866
0.0020064098
0.0019704659
0.001933586
0.0018957646
0.0018567602
0.0018163967
0.0017747038
0.0017316713
0.0016870294
0.0016405062
0.0015921583
0.0015418636
0.0014892182
0.0014340004
0.0013762026
0.0013156418
0.0012528339
0.0011898847
0.0011279498
0.0010668366
0.001006483
0.00094703933
0.00088840051
0.00083036291
0.00077297079
0.00071644622
0.00066077785
0.00060579932
0.00055166035
0.00049849256
0.00044661337
0.00039632702
0.00034762604
0.00030224026
0.00025856067
0.00022878592
0.00019037432
0.00031234367
-0.00024362932
0.0040828422
0.0041026304
0.0041458488
0.004200478
0.0042648663
0.0043389493
0.0044220657
0.0045134953
0.0046129012
0.0047203305
0.0048361306
0.0049609508
0.005095824
0.0052423111
0.0054027009
0.005580429
0.0057804925
0.0060112745
0.0062843979
0.0066275875
0.0070657958
0.0077620708
0.0086457805
0.012527316
0.0091279838
0.0040397232
0.003938382
0.0044006261
0.0045213204
0.0044670251
0.0043927032
0.0043246611
0.004256268
0.0041870119
0.0041190516
0.0040539434
0.0039922933
0.003933779
0.0038781156
0.0038250952
0.003774561
0.0037263555
0.0036801511
0.0036359558
0.0035933813
0.0035524519
0.0035130524
0.0034747728
0.0034378228
0.0034020585
0.0033671198
0.0033331503
0.0033001279
0.0032678107
0.0032360786
0.0032051247
0.0031748253
0.0031449076
0.0031154263
0.0030865237
0.0030580675
0.0030298316
0.0030018526
0.0029743014
0.0029470777
0.0029199301
0.0028929217
0.0028661338
0.0028395858
0.0028130914
0.002786596
0.002760118
0.0027338008
0.0027075447
0.0026811418
0.0026546544
0.002628123
0.0026016126
0.0025749743
0.002548102
0.0025210115
0.002493812
0.0024664889
0.0024388363
0.002410849
0.0023825112
0.0023539612
0.0023251074
0.0022957251
0.0022658589
0.0022355229
0.0022047848
0.0021734841
0.0021414726
0.0021087295
0.002075399
0.0020413875
0.0020064106
0.0019704667
0.0019335868
0.0018957653
0.0018567609
0.0018163974
0.0017747045
0.001731672
0.00168703
0.0016405067
0.0015921589
0.0015418641
0.0014892187
0.0014340009
0.001376203
0.0013156422
0.0012528343
0.0011898851
0.0011279502
0.001066837
0.0010064834
0.00094703967
0.00088840083
0.00083036321
0.00077297108
0.0007164465
0.00066077813
0.00060579959
0.00055166061
0.0004984928
0.00044661361
0.00039632725
0.00034762627
0.00030224049
0.00025856088
0.00022878614
0.00019037453
0.00031234393
-0.00024362916
0.0040828422
0.0041026304
0.0041458488
0.004200478
0.0042648663
0.0043389493
0.0044220657
0.0045134953
0.0046129012
0.0047203305
0.0048361306
0.0049609509
0.005095824
0.0052423111
0.0054027009
0.005580429
0.0057804925
0.0060112745
0.0062843979
0.0066275873
0.0070657956
0.0077620695
0.0086457813
0.012512538
0.0091291185
0.0040403006
0.0039385024
0.0044006749
0.0045213545
0.0044670539
0.0043927283
0.0043246834
0.004256288
0.0041870298
0.004119068
0.0040539584
0.0039923071
0.0039337917
0.0038781274
0.0038251062
0.0037745712
0.003726365
0.0036801601
0.0036359642
0.0035933892
0.0035524594
0.0035130595
0.0034747795
0.0034378291
0.0034020645
0.0033671256
0.0033331557
0.003300133
0.0032678157
0.0032360833
0.0032051292
0.0031748296
0.0031449117
0.0031154302
0.0030865275
0.0030580711
0.0030298351
0.0030018559
0.0029743046
0.0029470808
0.0029199331
0.0028929245
0.0028661365
0.0028395885
0.002813094
0.0027865985
0.0027601204
0.0027338031
0.0027075469
0.0026811439
0.0026546565
0.002628125
0.0026016145
0.0025749761
0.0025481037
0.0025210132
0.0024938136
0.0024664904
0.0024388378
0.0024108504
0.0023825126
0.0023539626
0.0023251087
0.0022957264
0.0022658601
0.0022355241
0.002204786
0.0021734852
0.0021414737
0.0021087305
0.0020753999
0.0020413884
0.0020064115
0.0019704676
0.0019335876
0.0018957661
0.0018567617
0.0018163981
0.0017747052
0.0017316727
0.0016870307
0.0016405074
0.0015921594
0.0015418647
0.0014892193
0.0014340014
0.0013762035
0.0013156427
0.0012528348
0.0011898855
0.0011279506
0.0010668374
0.0010064837
0.00094704002
0.00088840117
0.00083036354
0.0007729714
0.00071644681
0.00066077842
0.00060579987
0.00055166088
0.00049849307
0.00044661386
0.0003963275
0.00034762651
0.00030224072
0.00025856111
0.00022878636
0.00019037475
0.0003123442
-0.00024362899
0.0040828422
0.0041026304
0.0041458488
0.004200478
0.0042648663
0.0043389493
0.0044220657
0.0045134953
0.0046129012
0.0047203305
0.0048361306
0.0049609509
0.005095824
0.0052423111
0.0054027009
0.005580429
0.0057804925
0.0060112745
0.0062843978
0.0066275872
0.0070657954
0.0077620678
0.0086457823
0.012497338
0.0091302742
0.0040408839
0.0039386357
0.0044007291
0.004521392
0.0044670854
0.0043927559
0.0043247078
0.0042563098
0.0041870495
0.0041190859
0.0040539748
0.0039923221
0.0039338056
0.0038781403
0.0038251182
0.0037745824
0.0037263755
0.0036801699
0.0036359734
0.0035933979
0.0035524675
0.0035130672
0.0034747868
0.003437836
0.0034020711
0.0033671318
0.0033331617
0.0033001387
0.003267821
0.0032360884
0.0032051341
0.0031748343
0.0031449162
0.0031154345
0.0030865316
0.0030580751
0.0030298389
0.0030018596
0.0029743081
0.0029470842
0.0029199363
0.0028929276
0.0028661395
0.0028395913
0.0028130967
0.0027866011
0.002760123
0.0027338055
0.0027075492
0.0026811462
0.0026546587
0.0026281271
0.0026016165
0.0025749781
0.0025481056
0.002521015
0.0024938154
0.0024664922
0.0024388395
0.002410852
0.0023825141
0.0023539641
0.0023251101
0.0022957278
0.0022658614
0.0022355254
0.0022047872
0.0021734864
0.0021414748
0.0021087316
0.002075401
0.0020413894
0.0020064125
0.0019704685
0.0019335886
0.001895767
0.0018567625
0.0018163989
0.001774706
0.0017316734
0.0016870314
0.001640508
0.0015921601
0.0015418653
0.0014892199
0.0014340019
0.0013762041
0.0013156432
0.0012528353
0.001189886
0.001127951
0.0010668378
0.0010064841
0.0009470404
0.00088840153
0.00083036389
0.00077297174
0.00071644713
0.00066077873
0.00060580018
0.00055166118
0.00049849335
0.00044661414
0.00039632777
0.00034762677
0.00030224098
0.00025856136
0.00022878661
0.00019037498
0.00031234449
-0.00024362881
0.0040828422
0.0041026304
0.0041458489
0.004200478
0.0042648663
0.0043389493
0.0044220657
0.0045134953
0.0046129012
0.0047203305
0.0048361306
0.0049609509
0.005095824
0.0052423112
0.0054027009
0.005580429
0.0057804925
0.0060112744
0.0062843977
0.0066275869
0.0070657951
0.0077620656
0.0086457836
0.012481767
0.0091314617
0.0040416013
0.003938788
0.0044007909
0.0045214345
0.0044671209
0.0043927868
0.0043247351
0.0042563342
0.0041870716
0.0041191059
0.0040539931
0.003992339
0.0039338211
0.0038781547
0.0038251315
0.0037745948
0.0037263871
0.0036801808
0.0036359836
0.0035934075
0.0035524766
0.0035130757
0.0034747949
0.0034378437
0.0034020784
0.0033671387
0.0033331682
0.003300145
0.003267827
0.0032360941
0.0032051396
0.0031748395
0.0031449212
0.0031154393
0.0030865361
0.0030580794
0.0030298431
0.0030018636
0.0029743119
0.0029470879
0.0029199399
0.0028929311
0.0028661428
0.0028395945
0.0028130998
0.0027866041
0.0027601258
0.0027338083
0.0027075519
0.0026811488
0.0026546611
0.0026281295
0.0026016188
0.0025749803
0.0025481078
0.0025210171
0.0024938174
0.0024664941
0.0024388413
0.0024108538
0.0023825158
0.0023539657
0.0023251117
0.0022957293
0.0022658629
0.0022355268
0.0022047886
0.0021734877
0.0021414761
0.0021087328
0.0020754022
0.0020413905
0.0020064136
0.0019704695
0.0019335895
0.0018957679
0.0018567635
0.0018163998
0.0017747068
0.0017316742
0.0016870321
0.0016405088
0.0015921608
0.001541866
0.0014892205
0.0014340026
0.0013762047
0.0013156438
0.0012528358
0.0011898865
0.0011279515
0.0010668382
0.0010064846
0.00094704082
0.00088840194
0.00083036428
0.00077297211
0.00071644749
0.00066077908
0.00060580051
0.0005516615
0.00049849366
0.00044661444
0.00039632806
0.00034762706
0.00030224125
0.00025856163
0.00022878688
0.00019037524
0.00031234481
-0.0002436286
0.0040828422
0.0041026304
0.0041458489
0.004200478
0.0042648663
0.0043389493
0.0044220657
0.0045134953
0.0046129012
0.0047203305
0.0048361306
0.0049609509
0.0050958241
0.0052423112
0.0054027009
0.005580429
0.0057804924
0.0060112743
0.0062843976
0.0066275866
0.0070657946
0.0077620627
0.0086457852
0.012465875
0.0091323617
0.0040425554
0.00393897
0.0044008642
0.0045214841
0.0044671622
0.0043928227
0.0043247668
0.0042563624
0.004187097
0.004119129
0.0040540142
0.0039923583
0.0039338389
0.0038781712
0.0038251468
0.0037746091
0.0037264004
0.0036801932
0.0036359953
0.0035934185
0.003552487
0.0035130855
0.0034748041
0.0034378524
0.0034020867
0.0033671466
0.0033331757
0.0033001521
0.0032678338
0.0032361006
0.0032051457
0.0031748454
0.0031449268
0.0031154447
0.0030865413
0.0030580844
0.0030298478
0.0030018681
0.0029743163
0.0029470921
0.0029199439
0.0028929349
0.0028661466
0.0028395981
0.0028131032
0.0027866074
0.002760129
0.0027338113
0.0027075548
0.0026811516
0.0026546639
0.0026281321
0.0026016213
0.0025749827
0.0025481101
0.0025210194
0.0024938196
0.0024664962
0.0024388434
0.0024108558
0.0023825177
0.0023539676
0.0023251135
0.002295731
0.0022658646
0.0022355284
0.0022047901
0.0021734892
0.0021414775
0.0021087342
0.0020754035
0.0020413918
0.0020064148
0.0019704707
0.0019335907
0.001895769
0.0018567645
0.0018164008
0.0017747078
0.0017316751
0.001687033
0.0016405096
0.0015921616
0.0015418667
0.0014892212
0.0014340032
0.0013762053
0.0013156444
0.0012528364
0.001189887
0.001127952
0.0010668387
0.0010064851
0.00094704129
0.00088840239
0.00083036471
0.00077297252
0.00071644789
0.00066077947
0.00060580088
0.00055166186
0.00049849401
0.00044661478
0.00039632839
0.00034762737
0.00030224156
0.00025856193
0.00022878719
0.00019037553
0.00031234517
-0.00024362838
0.0040828422
0.0041026304
0.0041458489
0.004200478
0.0042648663
0.0043389493
0.0044220657
0.0045134954
0.0046129012
0.0047203305
0.0048361306
0.0049609509
0.0050958241
0.0052423112
0.0054027009
0.005580429
0.0057804924
0.0060112742
0.0062843974
0.0066275862
0.007065794
0.0077620589
0.0086457874
0.012449742
0.0091326451
0.0040438356
0.0039392009
0.0044009553
0.0045215449
0.0044672123
0.0043928661
0.0043248049
0.0042563963
0.0041871274
0.0041191566
0.0040540393
0.0039923813
0.0039338601
0.0038781907
0.003825165
0.003774626
0.0037264162
0.003680208
0.0036360091
0.0035934314
0.0035524992
0.003513097
0.003474815
0.0034378627
0.0034020964
0.0033671558
0.0033331845
0.0033001604
0.0032678417
0.0032361082
0.0032051529
0.0031748523
0.0031449334
0.003115451
0.0030865473
0.0030580902
0.0030298533
0.0030018734
0.0029743214
0.002947097
0.0029199486
0.0028929394
0.0028661509
0.0028396022
0.0028131072
0.0027866112
0.0027601327
0.0027338149
0.0027075583
0.0026811549
0.0026546671
0.0026281352
0.0026016243
0.0025749856
0.0025481129
0.002521022
0.0024938221
0.0024664986
0.0024388457
0.0024108581
0.0023825199
0.0023539697
0.0023251155
0.002295733
0.0022658665
0.0022355302
0.0022047918
0.0021734909
0.0021414791
0.0021087358
0.002075405
0.0020413932
0.0020064162
0.001970472
0.0019335919
0.0018957702
0.0018567657
0.0018164019
0.0017747088
0.0017316761
0.001687034
0.0016405106
0.0015921625
0.0015418676
0.0014892221
0.001434004
0.001376206
0.0013156451
0.0012528371
0.0011898877
0.0011279526
0.0010668393
0.0010064856
0.00094704182
0.0008884029
0.0008303652
0.000772973
0.00071644835
0.0006607799
0.0006058013
0.00055166227
0.00049849441
0.00044661516
0.00039632876
0.00034762774
0.00030224192
0.00025856228
0.00022878753
0.00019037586
0.00031234557
-0.00024362813
0.0040828422
0.0041026304
0.0041458489
0.004200478
0.0042648663
0.0043389493
0.0044220657
0.0045134954
0.0046129012
0.0047203305
0.0048361306
0.0049609509
0.0050958241
0.0052423112
0.0054027009
0.005580429
0.0057804923
0.0060112741
0.0062843971
0.0066275856
0.0070657933
0.0077620541
0.0086457901
0.012433477
0.0091326187
0.0040455502
0.0039395123
0.0044010755
0.0045216234
0.0044672764
0.0043929214
0.0043248533
0.0042564391
0.0041871657
0.0041191911
0.0040540707
0.00399241
0.0039338865
0.0038782151
0.0038251875
0.0037746469
0.0037264356
0.0036802261
0.0036360261
0.0035934474
0.0035525141
0.0035131111
0.0034748283
0.0034378753
0.0034021083
0.0033671671
0.0033331952
0.0033001706
0.0032678514
0.0032361174
0.0032051617
0.0031748606
0.0031449414
0.0031154586
0.0030865546
0.0030580971
0.00302986
0.0030018798
0.0029743275
0.0029471029
0.0029199542
0.0028929449
0.0028661561
0.0028396073
0.0028131121
0.0027866159
0.0027601372
0.0027338192
0.0027075624
0.0026811589
0.0026546709
0.0026281389
0.0026016278
0.002574989
0.0025481162
0.0025210252
0.0024938252
0.0024665016
0.0024388486
0.0024108608
0.0023825226
0.0023539722
0.0023251179
0.0022957353
0.0022658687
0.0022355324
0.0022047939
0.0021734929
0.0021414811
0.0021087376
0.0020754068
0.002041395
0.0020064178
0.0019704736
0.0019335935
0.0018957717
0.0018567671
0.0018164032
0.0017747101
0.0017316774
0.0016870352
0.0016405117
0.0015921636
0.0015418686
0.001489223
0.001434005
0.0013762069
0.0013156459
0.0012528378
0.0011898884
0.0011279534
0.00106684
0.0010064863
0.00094704245
0.00088840349
0.00083036577
0.00077297355
0.00071644888
0.00066078042
0.0006058018
0.00055166275
0.00049849487
0.00044661561
0.00039632919
0.00034762816
0.00030224233
0.00025856268
0.00022878793
0.00019037624
0.00031234604
-0.00024362783
0.0040828422
0.0041026304
0.0041458489
0.004200478
0.0042648663
0.0043389494
0.0044220657
0.0045134954
0.0046129012
0.0047203305
0.0048361306
0.0049609509
0.0050958241
0.0052423112
0.0054027009
0.0055804289
0.0057804922
0.0060112739
0.0062843968
0.0066275849
0.0070657923
0.0077620479
0.0086457935
0.012417188
0.0091327265
0.0040478439
0.0039399569
0.004401245
0.0045217313
0.0044673633
0.0043929957
0.0043249179
0.004256496
0.0041872164
0.0041192368
0.0040541121
0.0039924477
0.003933921
0.0038782468
0.0038252168
0.003774674
0.0037264609
0.0036802496
0.0036360481
0.0035934679
0.0035525334
0.0035131293
0.0034748454
0.0034378914
0.0034021235
0.0033671815
0.0033332089
0.0033001835
0.0032678637
0.0032361291
0.0032051729
0.0031748712
0.0031449515
0.0031154683
0.0030865639
0.003058106
0.0030298685
0.0030018879
0.0029743353
0.0029471103
0.0029199614
0.0028929517
0.0028661626
0.0028396135
0.0028131181
0.0027866217
0.0027601427
0.0027338246
0.0027075676
0.0026811639
0.0026546757
0.0026281434
0.0026016323
0.0025749932
0.0025481203
0.0025210291
0.002493829
0.0024665052
0.0024388521
0.0024108642
0.0023825258
0.0023539753
0.0023251209
0.0022957382
0.0022658715
0.0022355351
0.0022047965
0.0021734953
0.0021414835
0.0021087399
0.0020754089
0.0020413971
0.0020064198
0.0019704756
0.0019335953
0.0018957735
0.0018567688
0.0018164049
0.0017747117
0.0017316789
0.0016870366
0.001640513
0.0015921649
0.0015418698
0.0014892242
0.0014340061
0.001376208
0.0013156469
0.0012528388
0.0011898893
0.0011279542
0.0010668408
0.0010064871
0.0009470432
0.00088840422
0.00083036647
0.00077297421
0.00071644952
0.00066078103
0.00060580239
0.00055166332
0.00049849543
0.00044661615
0.00039632971
0.00034762866
0.00030224282
0.00025856316
0.00022878841
0.00019037669
0.00031234661
-0.00024362747
0.0040828422
0.0041026304
0.0041458489
0.004200478
0.0042648663
0.0043389494
0.0044220657
0.0045134954
0.0046129012
0.0047203306
0.0048361307
0.0049609509
0.0050958241
0.0052423112
0.0054027008
0.0055804288
0.0057804921
0.0060112737
0.0062843963
0.0066275839
0.007065791
0.00776204
0.0086457977
0.012400962
0.0091330216
0.0040509715
0.0039406167
0.0044014979
0.0045218886
0.0044674879
0.0043931014
0.004325009
0.0042565758
0.0041872871
0.0041193001
0.0040541692
0.0039924996
0.0039339684
0.0038782903
0.0038252568
0.003774711
0.0037264952
0.0036802815
0.0036360778
0.0035934958
0.0035525595
0.0035131537
0.0034748684
0.0034379131
0.003402144
0.0033672008
0.0033332272
0.0033002009
0.0032678802
0.0032361447
0.0032051877
0.0031748854
0.003144965
0.0031154811
0.0030865761
0.0030581177
0.0030298797
0.0030018986
0.0029743455
0.0029471201
0.0029199708
0.0028929607
0.0028661713
0.0028396218
0.002813126
0.0027866293
0.0027601501
0.0027338316
0.0027075743
0.0026811704
0.0026546819
0.0026281494
0.002601638
0.0025749988
0.0025481256
0.0025210342
0.0024938339
0.00246651
0.0024388566
0.0024108686
0.00238253
0.0023539794
0.0023251248
0.002295742
0.0022658751
0.0022355385
0.0022047998
0.0021734985
0.0021414865
0.0021087429
0.0020754118
0.0020413998
0.0020064224
0.001970478
0.0019335977
0.0018957758
0.001856771
0.001816407
0.0017747137
0.0017316808
0.0016870384
0.0016405148
0.0015921665
0.0015418714
0.0014892257
0.0014340075
0.0013762093
0.0013156482
0.00125284
0.0011898905
0.0011279553
0.0010668419
0.0010064881
0.00094704415
0.00088840513
0.00083036734
0.00077297506
0.00071645033
0.00066078181
0.00060580314
0.00055166404
0.00049849612
0.00044661682
0.00039633037
0.0003476293
0.00030224344
0.00025856376
0.00022878901
0.00019037727
0.00031234732
-0.00024362703
0.0040828422
0.0041026304
0.0041458489
0.004200478
0.0042648663
0.0043389494
0.0044220657
0.0045134954
0.0046129012
0.0047203306
0.0048361307
0.0049609509
0.0050958241
0.0052423111
0.0054027008
0.0055804287
0.0057804919
0.0060112734
0.0062843958
0.0066275827
0.0070657894
0.0077620298
0.0086458031
0.012384827
0.0091334115
0.0040552822
0.0039416037
0.0044018877
0.0045221273
0.0044676741
0.0043932576
0.0043251429
0.0042566922
0.0041873898
0.0041193916
0.0040542515
0.0039925741
0.0039340362
0.0038783523
0.0038253138
0.0037747636
0.0037265438
0.0036803267
0.0036361198
0.003593535
0.0035525962
0.0035131881
0.0034749007
0.0034379435
0.0034021726
0.0033672279
0.0033332527
0.0033002251
0.0032679031
0.0032361665
0.0032052084
0.003174905
0.0031449837
0.0031154989
0.0030865931
0.0030581339
0.0030298951
0.0030019134
0.0029743596
0.0029471336
0.0029199837
0.0028929731
0.0028661831
0.0028396332
0.002813137
0.0027866398
0.0027601601
0.0027338412
0.0027075836
0.0026811792
0.0026546904
0.0026281576
0.0026016459
0.0025750064
0.0025481329
0.0025210412
0.0024938406
0.0024665164
0.0024388628
0.0024108745
0.0023825358
0.0023539849
0.0023251301
0.002295747
0.00226588
0.0022355432
0.0022048043
0.0021735028
0.0021414907
0.0021087468
0.0020754156
0.0020414034
0.0020064259
0.0019704814
0.0019336009
0.0018957788
0.0018567739
0.0018164098
0.0017747164
0.0017316833
0.0016870408
0.0016405171
0.0015921687
0.0015418735
0.0014892277
0.0014340094
0.0013762111
0.0013156499
0.0012528416
0.001189892
0.0011279568
0.0010668433
0.0010064894
0.00094704541
0.00088840633
0.0008303685
0.00077297616
0.00071645139
0.00066078283
0.00060580413
0.00055166499
0.00049849704
0.00044661771
0.00039633123
0.00034763013
0.00030224425
0.00025856455
0.0002287898
0.00019037801
0.00031234824
-0.00024362645
0.0040828422
0.0041026304
0.0041458489
0.004200478
0.0042648663
0.0043389494
0.0044220657
0.0045134954
0.0046129013
0.0047203306
0.0048361307
0.0049609509
0.0050958241
0.0052423111
0.0054027007
0.0055804286
0.0057804917
0.0060112729
0.006284395
0.0066275811
0.0070657873
0.0077620168
0.0086458097
0.012368735
0.0091337967
0.0040609393
0.0039430484
0.0044024901
0.0045224936
0.0044679561
0.0043934928
0.0043253431
0.0042568655
0.0041875419
0.0041195267
0.0040543726
0.0039926834
0.0039341354
0.0038784429
0.0038253969
0.00377484
0.0037266144
0.0036803921
0.0036361807
0.0035935916
0.0035526491
0.0035132377
0.0034749472
0.0034379872
0.0034022138
0.0033672667
0.0033332893
0.0033002597
0.0032679359
0.0032361976
0.0032052379
0.0031749331
0.0031450104
0.0031155243
0.0030866173
0.003058157
0.0030299172
0.0030019344
0.0029743797
0.0029471528
0.0029200021
0.0028929907
0.0028662
0.0028396493
0.0028131524
0.0027866546
0.0027601743
0.0027338548
0.0027075966
0.0026811918
0.0026547025
0.0026281692
0.002601657
0.002575017
0.0025481431
0.0025210511
0.0024938501
0.0024665255
0.0024388715
0.0024108829
0.0023825438
0.0023539926
0.0023251375
0.0022957542
0.0022658868
0.0022355498
0.0022048106
0.0021735089
0.0021414964
0.0021087524
0.0020754209
0.0020414085
0.0020064308
0.0019704861
0.0019336054
0.0018957831
0.001856778
0.0018164137
0.0017747201
0.0017316869
0.0016870442
0.0016405203
0.0015921718
0.0015418764
0.0014892304
0.001434012
0.0013762136
0.0013156523
0.0012528438
0.0011898941
0.0011279588
0.0010668452
0.0010064912
0.00094704714
0.00088840798
0.00083037008
0.00077297768
0.00071645284
0.00066078423
0.00060580547
0.00055166629
0.00049849829
0.00044661892
0.0003963324
0.00034763126
0.00030224536
0.00025856562
0.00022879087
0.00019037903
0.0003123495
-0.00024362566
0.0040828422
0.0041026304
0.0041458489
0.004200478
0.0042648663
0.0043389494
0.0044220658
0.0045134954
0.0046129013
0.0047203306
0.0048361307
0.0049609509
0.005095824
0.005242311
0.0054027006
0.0055804284
0.0057804914
0.0060112724
0.006284394
0.0066275791
0.0070657846
0.0077620001
0.008645818
0.012352561
0.0091340769
0.0040677738
0.0039450804
0.0044033997
0.0045230468
0.0044683782
0.004393843
0.0043256405
0.0042571223
0.0041877669
0.0041197261
0.0040545509
0.003992844
0.003934281
0.0038785756
0.0038255184
0.0037749517
0.0037267175
0.0036804875
0.0036362693
0.0035936741
0.0035527261
0.0035133097
0.0034750147
0.0034380506
0.0034022735
0.0033673229
0.0033333424
0.0033003099
0.0032679834
0.0032362426
0.0032052806
0.0031749736
0.0031450489
0.003115561
0.0030866522
0.0030581902
0.0030299489
0.0030019647
0.0029744087
0.0029471805
0.0029200285
0.002893016
0.0028662242
0.0028396725
0.0028131746
0.0027866759
0.0027601947
0.0027338744
0.0027076154
0.0026812098
0.0026547197
0.0026281858
0.0026016729
0.0025750323
0.0025481578
0.0025210652
0.0024938636
0.0024665385
0.002438884
0.0024108948
0.0023825553
0.0023540037
0.0023251481
0.0022957643
0.0022658965
0.0022355591
0.0022048196
0.0021735175
0.0021415047
0.0021087603
0.0020754285
0.0020414158
0.0020064378
0.0019704927
0.0019336117
0.0018957892
0.0018567838
0.0018164192
0.0017747254
0.0017316919
0.001687049
0.0016405249
0.0015921761
0.0015418805
0.0014892344
0.0014340157
0.0013762171
0.0013156556
0.001252847
0.0011898971
0.0011279616
0.0010668478
0.0010064937
0.00094704958
0.00088841032
0.00083037231
0.00077297982
0.0007164549
0.00066078621
0.00060580737
0.00055166812
0.00049850006
0.00044662062
0.00039633405
0.00034763286
0.00030224691
0.00025856713
0.00022879237
0.00019038046
0.00031235127
-0.00024362454
0.0040828422
0.0041026304
0.0041458489
0.004200478
0.0042648664
0.0043389494
0.0044220658
0.0045134954
0.0046129013
0.0047203306
0.0048361307
0.0049609509
0.005095824
0.005242311
0.0054027005
0.0055804282
0.0057804909
0.0060112716
0.0062843927
0.0066275764
0.0070657811
0.0077619788
0.0086458283
0.01233615
0.0091341091
0.0040756115
0.0039478228
0.0044047187
0.0045238531
0.0044689893
0.0043943488
0.0043260699
0.0042574928
0.0041880912
0.0041200133
0.0040548076
0.0039930751
0.0039344905
0.0038787663
0.003825693
0.0037751121
0.0037268655
0.0036806245
0.0036363964
0.0035937925
0.0035528365
0.003513413
0.0034751115
0.0034381415
0.003402359
0.0033674035
0.0033334185
0.0033003818
0.0032680514
0.003236307
0.0032053418
0.0031750317
0.0031451041
0.0031156136
0.0030867023
0.0030582379
0.0030299944
0.0030020081
0.0029744501
0.0029472201
0.0029200664
0.0028930522
0.0028662589
0.0028397057
0.0028132064
0.0027867064
0.002760224
0.0027339025
0.0027076423
0.0026812356
0.0026547445