/*--------------------------------*- C++ -*----------------------------------*\
  =========                 |
  \\      /  F ield         | OpenFOAM: The Open Source CFD Toolbox
   \\    /   O peration     | Website:  https://openfoam.org
    \\  /    A nd           | Version:  12
     \\/     M anipulation  |
\*---------------------------------------------------------------------------*/
FoamFile
{
    format      ascii;
    class       surfaceScalarField;
    location    "1200";
    object      phi;
}
// * * * * * * * * * * * * * * * * * * * * * * * * * * * * * * * * * * * * * //

dimensions      [0 3 -1 0 0 0 0];

internalField   nonuniform List<scalar> 
25880
(
2.004636e-06
1.8105557e-11
2.0045818e-06
5.420939e-11
2.004501e-06
8.0827393e-11
2.0044061e-06
9.4882412e-11
2.0042995e-06
1.0660558e-10
2.0041812e-06
1.1833179e-10
2.0040511e-06
1.3010191e-10
2.0039089e-06
1.4214273e-10
2.003754e-06
1.5493532e-10
2.0035851e-06
1.6895476e-10
2.0034004e-06
1.8466171e-10
2.0031978e-06
2.026334e-10
2.0029741e-06
2.2365183e-10
2.0027251e-06
2.489717e-10
2.002445e-06
2.8014497e-10
2.0021242e-06
3.208172e-10
2.0017511e-06
3.7306697e-10
2.0012971e-06
4.5403717e-10
2.0007455e-06
5.5151828e-10
1.9999572e-06
7.8833209e-10
1.9989743e-06
9.8287382e-10
1.9962572e-06
2.7171332e-09
1.9941344e-06
2.1227739e-09
1.025952e-06
9.6818243e-07
4.3187813e-08
9.8276419e-07
2.7411696e-08
1.5776117e-08
2.5383527e-08
2.028169e-09
2.4568064e-08
8.1546242e-10
2.3986165e-08
5.818993e-10
2.3487765e-08
4.9840046e-10
2.3046848e-08
4.4091605e-10
2.2652491e-08
3.9435734e-10
2.2296082e-08
3.5640881e-10
2.1970699e-08
3.2538376e-10
2.1671285e-08
2.994132e-10
2.1394108e-08
2.7717733e-10
2.1136241e-08
2.578674e-10
2.0895284e-08
2.4095614e-10
2.0669249e-08
2.2603577e-10
2.0456472e-08
2.1277628e-10
2.0255552e-08
2.0092018e-10
2.0065279e-08
1.9027304e-10
1.98846e-08
1.806794e-10
1.9712603e-08
1.7199705e-10
1.9548484e-08
1.6411868e-10
1.9391547e-08
1.5693729e-10
1.9241181e-08
1.5036542e-10
1.9096828e-08
1.4435324e-10
1.8958001e-08
1.3882698e-10
1.8824273e-08
1.3372772e-10
1.8695241e-08
1.29032e-10
1.8570546e-08
1.2469508e-10
1.8449878e-08
1.2066817e-10
1.8332945e-08
1.1693305e-10
1.8219471e-08
1.134746e-10
1.8109217e-08
1.1025305e-10
1.8001976e-08
1.0724126e-10
1.7897537e-08
1.0443903e-10
1.7795704e-08
1.0183345e-10
1.7696311e-08
9.939303e-11
1.7599209e-08
9.7101275e-11
1.7504247e-08
9.4962683e-11
1.7411275e-08
9.2971576e-11
1.7320173e-08
9.1102046e-11
1.7230833e-08
8.9340382e-11
1.714314e-08
8.7693171e-11
1.7056981e-08
8.6158561e-11
1.697226e-08
8.4721241e-11
1.6888892e-08
8.3367522e-11
1.6806796e-08
8.2096593e-11
1.6725883e-08
8.0912787e-11
1.664607e-08
7.981306e-11
1.6567288e-08
7.8781508e-11
1.6489477e-08
7.7810832e-11
1.6412569e-08
7.6908368e-11
1.6336494e-08
7.6075569e-11
1.6261188e-08
7.530525e-11
1.6186601e-08
7.4586986e-11
1.6112682e-08
7.3919129e-11
1.6039374e-08
7.3308205e-11
1.5966618e-08
7.2756313e-11
1.5894363e-08
7.2254256e-11
1.5822569e-08
7.1794318e-11
1.5751189e-08
7.1380351e-11
1.5680171e-08
7.1017774e-11
1.5609463e-08
7.0707694e-11
1.5539023e-08
7.0440414e-11
1.5468812e-08
7.0210751e-11
1.5398785e-08
7.0026619e-11
1.5328893e-08
6.9892783e-11
1.5259086e-08
6.9806923e-11
1.5189324e-08
6.9761816e-11
1.5119568e-08
6.9756086e-11
1.5049769e-08
6.9798594e-11
1.4979874e-08
6.9895428e-11
1.4909835e-08
7.0038641e-11
1.4839613e-08
7.0222665e-11
1.4769156e-08
7.0456812e-11
1.4698406e-08
7.0749268e-11
1.4627308e-08
7.1098233e-11
1.455581e-08
7.149784e-11
1.4483859e-08
7.195148e-11
1.4411388e-08
7.2470466e-11
1.4338331e-08
7.3057536e-11
1.4264624e-08
7.370674e-11
1.4190202e-08
7.4422442e-11
1.4114982e-08
7.5219295e-11
1.4038883e-08
7.6099863e-11
1.3961822e-08
7.7060268e-11
1.3883711e-08
7.8111041e-11
1.3804441e-08
7.9270544e-11
1.3723911e-08
8.0529314e-11
1.3641986e-08
8.1925772e-11
1.3562022e-08
7.9963467e-11
1.3485858e-08
7.6164264e-11
1.3413206e-08
7.2651664e-11
1.3343794e-08
6.9412307e-11
1.3277366e-08
6.6427594e-11
1.32137e-08
6.3666717e-11
1.3152598e-08
6.1101888e-11
1.3093877e-08
5.8720968e-11
1.3037364e-08
5.6513202e-11
1.2982907e-08
5.4456189e-11
1.2930377e-08
5.2530594e-11
1.2879647e-08
5.0729767e-11
1.2830598e-08
4.9049347e-11
1.2783112e-08
4.7486108e-11
1.2737086e-08
4.6025479e-11
1.2692407e-08
4.4679428e-11
1.2648995e-08
4.3411393e-11
1.2606595e-08
4.239992e-11
1.2565309e-08
4.1285986e-11
1.2523923e-08
4.1386201e-11
1.2484453e-08
3.9470072e-11
1.2435797e-08
4.8656502e-11
3.0833132e-11
2.0345097e-06
3.6485874e-11
2.0344546e-06
1.0925635e-10
2.0343725e-06
1.6292474e-10
2.0342761e-06
1.9127151e-10
2.0341678e-06
2.1491077e-10
2.0340476e-06
2.3855119e-10
2.0339154e-06
2.6227763e-10
2.033771e-06
2.8654793e-10
2.0336136e-06
3.1233177e-10
2.033442e-06
3.4058673e-10
2.0332544e-06
3.722413e-10
2.0330486e-06
4.0845882e-10
2.0328214e-06
4.5081517e-10
2.0325686e-06
5.0183882e-10
2.0322841e-06
5.6465701e-10
2.0319583e-06
6.4661594e-10
2.0315794e-06
7.5190369e-10
2.0311184e-06
9.1506389e-10
2.0305584e-06
1.1114925e-09
2.0297581e-06
1.5886746e-09
2.0287603e-06
1.9806739e-09
2.0260024e-06
5.4750595e-09
2.0238464e-06
4.2787528e-09
1.097332e-06
1.8946968e-06
1.296283e-07
1.9504679e-06
8.3875453e-08
6.1528968e-08
7.7671642e-08
8.23198e-09
7.5174815e-08
3.3122889e-09
7.3392707e-08
2.3640079e-09
7.1867436e-08
2.0236708e-09
7.0518358e-08
1.7899947e-09
6.9311726e-08
1.6009893e-09
6.8221197e-08
1.4469381e-09
6.7225613e-08
1.3209678e-09
6.6309506e-08
1.2155195e-09
6.5461442e-08
1.1252418e-09
6.4672459e-08
1.0468503e-09
6.3935217e-08
9.7819766e-10
6.3243626e-08
9.1762687e-10
6.2592604e-08
8.6379834e-10
6.1977857e-08
8.1566735e-10
6.1395685e-08
7.7244507e-10
6.0842866e-08
7.3349828e-10
6.0316611e-08
6.982526e-10
5.981446e-08
6.6626898e-10
5.9334282e-08
6.3711559e-10
5.887421e-08
6.1043788e-10
5.8432533e-08
5.8602942e-10
5.8007765e-08
5.6359529e-10
5.7598597e-08
5.4289566e-10
5.7203797e-08
5.2383193e-10
5.6822267e-08
5.0622539e-10
5.6453056e-08
4.8987864e-10
5.6095274e-08
4.7471574e-10
5.5748074e-08
4.6067457e-10
5.541073e-08
4.4759667e-10
5.50826e-08
4.35371e-10
5.4763045e-08
4.2399454e-10
5.4451462e-08
4.1341594e-10
5.4147346e-08
4.0350919e-10
5.3850241e-08
3.942064e-10
5.355968e-08
3.8552414e-10
5.3275211e-08
3.7744005e-10
5.2996462e-08
3.6985075e-10
5.2723103e-08
3.6269996e-10
5.2454783e-08
3.5601255e-10
5.219116e-08
3.4978202e-10
5.1931934e-08
3.4394687e-10
5.167685e-08
3.3845187e-10
5.1425654e-08
3.3329254e-10
5.117808e-08
3.2848643e-10
5.0933872e-08
3.2402133e-10
5.069282e-08
3.1983389e-10
5.0454737e-08
3.1589394e-10
5.0219415e-08
3.1223002e-10
4.9986642e-08
3.0884883e-10
4.9756226e-08
3.0572136e-10
4.9528007e-08
3.0280587e-10
4.9301831e-08
3.0009492e-10
4.9077525e-08
2.9761463e-10
4.8854907e-08
2.9537374e-10
4.8633826e-08
2.9333558e-10
4.8414151e-08
2.9146889e-10
4.8195743e-08
2.8978838e-10
4.7978445e-08
2.8831633e-10
4.7762095e-08
2.8705715e-10
4.7546563e-08
2.8597229e-10
4.7331734e-08
2.8504042e-10
4.7117467e-08
2.8429282e-10
4.6903611e-08
2.8374934e-10
4.6690017e-08
2.8340064e-10
4.6476561e-08
2.8321782e-10
4.6263122e-08
2.8319486e-10
4.6049554e-08
2.833674e-10
4.5835689e-08
2.8376022e-10
4.5621386e-08
2.8434178e-10
4.5406519e-08
2.8508931e-10
4.5190936e-08
2.8603988e-10
4.4974458e-08
2.8722703e-10
4.4756913e-08
2.8864373e-10
4.4538144e-08
2.9026633e-10
4.4317987e-08
2.9210818e-10
4.4096243e-08
2.9421503e-10
4.3872702e-08
2.9659834e-10
4.3647175e-08
2.9923421e-10
4.3419457e-08
3.0213999e-10
4.3189301e-08
3.0537489e-10
4.2956452e-08
3.0894983e-10
4.2720663e-08
3.1284912e-10
4.2481659e-08
3.1711509e-10
4.2239107e-08
3.2182228e-10
4.1992704e-08
3.2693267e-10
4.1742027e-08
3.326025e-10
4.1497354e-08
3.2463596e-10
4.1264307e-08
3.0921171e-10
4.1042007e-08
2.9495133e-10
4.0829619e-08
2.818002e-10
4.0626364e-08
2.6968276e-10
4.0431557e-08
2.5847421e-10
4.0244597e-08
2.4806165e-10
4.0064922e-08
2.3839553e-10
3.9892003e-08
2.2943226e-10
3.9725378e-08
2.2108119e-10
3.9564645e-08
2.1326373e-10
3.9409422e-08
2.0595262e-10
3.9259341e-08
1.9913028e-10
3.9114044e-08
1.9278355e-10
3.8973216e-08
1.8685342e-10
3.8836507e-08
1.8138844e-10
3.8703679e-08
1.7623948e-10
3.8573946e-08
1.7213232e-10
3.8447628e-08
1.6760486e-10
3.8321e-08
1.6801416e-10
3.8200305e-08
1.6016454e-10
3.8051141e-08
1.9782092e-10
1.2473865e-10
2.0947022e-06
5.5415509e-11
2.0946454e-06
1.659656e-10
2.0945608e-06
2.4752543e-10
2.0944615e-06
2.9061795e-10
2.0943499e-06
3.2654673e-10
2.0942259e-06
3.6246907e-10
2.0940897e-06
3.9851789e-10
2.0939409e-06
4.3538999e-10
2.0937786e-06
4.7455858e-10
2.0936017e-06
5.1747838e-10
2.0934084e-06
5.6555988e-10
2.0931963e-06
6.205702e-10
2.0929622e-06
6.8490289e-10
2.0927017e-06
7.623982e-10
2.0924085e-06
8.5780562e-10
2.0920729e-06
9.8228226e-10
2.0916826e-06
1.142188e-09
2.0912076e-06
1.3899853e-09
2.0906308e-06
1.6883035e-09
2.0898065e-06
2.4130023e-09
2.0887789e-06
3.0082973e-09
2.085939e-06
8.3149694e-09
2.0837184e-06
6.4993431e-09
1.186292e-06
2.7921232e-06
2.2121022e-07
2.9155497e-06
1.4535652e-07
1.3738267e-07
1.3460464e-07
1.8983856e-08
1.3027549e-07
7.6414362e-09
1.2718513e-07
5.4543729e-09
1.2454167e-07
4.6671329e-09
1.2220397e-07
4.1276933e-09
1.2011311e-07
3.691845e-09
1.1822342e-07
3.336633e-09
1.1649826e-07
3.0461254e-09
1.1491084e-07
2.802941e-09
1.1344133e-07
2.5947547e-09
1.1207419e-07
2.41399e-09
1.107967e-07
2.2556846e-09
1.0959831e-07
2.1160143e-09
1.0847022e-07
1.9918904e-09
1.0740498e-07
1.880905e-09
1.0639619e-07
1.7812396e-09
1.0543825e-07
1.6914314e-09
1.0452635e-07
1.6101595e-09
1.0365621e-07
1.5364073e-09
1.0282414e-07
1.4691824e-09
1.0202691e-07
1.4076678e-09
1.0126156e-07
1.351382e-09
1.005255e-07
1.299651e-09
9.9816479e-08
1.2519212e-09
9.9132351e-08
1.2079603e-09
9.8471216e-08
1.1673603e-09
9.7831427e-08
1.1296673e-09
9.721144e-08
1.094703e-09
9.6609791e-08
1.0623232e-09
9.6025221e-08
1.0321669e-09
9.5456615e-08
1.0039769e-09
9.4902867e-08
9.7774274e-10
9.4362935e-08
9.5334762e-10
9.383594e-08
9.3050391e-10
9.3321093e-08
9.0905362e-10
9.2817585e-08
8.890322e-10
9.2324636e-08
8.7038919e-10
9.1841598e-08
8.5288916e-10
9.1367896e-08
8.3640126e-10
9.0902929e-08
8.2098001e-10
9.0446099e-08
8.0661168e-10
8.999689e-08
7.931559e-10
8.9554856e-08
7.8048569e-10
8.911956e-08
7.685889e-10
8.8690541e-08
7.5750573e-10
8.8267354e-08
7.4720848e-10
8.7849634e-08
7.3755293e-10
8.743706e-08
7.2846861e-10
8.702927e-08
7.2001954e-10
8.6625897e-08
7.1222206e-10
8.6226608e-08
7.0500995e-10
8.5831127e-08
6.9828765e-10
8.5439185e-08
6.920369e-10
8.5050482e-08
6.8631726e-10
8.4664707e-08
6.8114925e-10
8.4281593e-08
6.7644946e-10
8.3900916e-08
6.7214582e-10
8.3522433e-08
6.6827085e-10
8.3145873e-08
6.648762e-10
8.2770958e-08
6.6197211e-10
8.239746e-08
6.594709e-10
8.2025177e-08
6.5732293e-10
8.1653871e-08
6.5559904e-10
8.1283275e-08
6.5434562e-10
8.0913134e-08
6.5354147e-10
8.0543231e-08
6.5312053e-10
8.0173358e-08
6.5306823e-10
7.9803259e-08
6.534662e-10
7.9432648e-08
6.5437177e-10
7.9061276e-08
6.5571327e-10
7.8688927e-08
6.5743796e-10
7.8315337e-08
6.5963021e-10
7.7940196e-08
6.6236777e-10
7.7563205e-08
6.6563491e-10
7.7184094e-08
6.6937736e-10
7.6802577e-08
6.7362524e-10
7.6418308e-08
6.7848376e-10
7.6030927e-08
6.8397993e-10
7.5640102e-08
6.90059e-10
7.5245482e-08
6.9676041e-10
7.4846636e-08
7.0422029e-10
7.4443121e-08
7.1246455e-10
7.4034513e-08
7.2145721e-10
7.3620333e-08
7.3129517e-10
7.3200005e-08
7.4215027e-10
7.2773002e-08
7.5393556e-10
7.2338593e-08
7.6701161e-10
7.1914589e-08
7.4864026e-10
7.151073e-08
7.1307031e-10
7.1125497e-08
6.8018478e-10
7.075744e-08
6.4985726e-10
7.0405209e-08
6.2191329e-10
7.0067618e-08
5.9606553e-10
6.9743626e-08
5.7205349e-10
6.9432259e-08
5.4976253e-10
6.9132599e-08
5.2909219e-10
6.8843847e-08
5.0983385e-10
6.8565304e-08
4.9180624e-10
6.8296311e-08
4.74946e-10
6.8036228e-08
4.5921278e-10
6.7784436e-08
4.4457615e-10
6.7540389e-08
4.3090029e-10
6.730348e-08
4.1829688e-10
6.7073298e-08
4.0642151e-10
6.6848483e-08
3.9694729e-10
6.6629587e-08
3.8650081e-10
6.6410164e-08
3.8743795e-10
6.6201069e-08
3.6925931e-10
6.594238e-08
4.5650994e-10
2.8717687e-10
2.1861105e-06
7.5177533e-11
2.1860512e-06
2.2518841e-10
2.1859629e-06
3.3590411e-10
2.1858591e-06
3.9442219e-10
2.1857424e-06
4.4320119e-10
2.1856129e-06
4.9195913e-10
2.1854705e-06
5.4088242e-10
2.185315e-06
5.9091846e-10
2.1851455e-06
6.4406648e-10
2.1849607e-06
7.0230049e-10
2.1847587e-06
7.6753442e-10
2.1845371e-06
8.4216586e-10
2.1842926e-06
9.2944207e-10
2.1840204e-06
1.0345728e-09
2.1837142e-06
1.1640008e-09
2.1833636e-06
1.3328614e-09
2.182956e-06
1.5497809e-09
2.1824601e-06
1.8859266e-09
2.1818578e-06
2.2905975e-09
2.1809971e-06
3.2736559e-09
2.1799243e-06
4.0811147e-09
2.1769601e-06
1.127919e-08
2.1746417e-06
8.817775e-09
1.2964551e-06
3.6703098e-06
3.2304397e-07
3.8889608e-06
2.1550824e-07
2.4491839e-07
1.9957278e-07
3.4919316e-08
1.9314988e-07
1.4064339e-08
1.8856569e-07
1.0038567e-08
1.8464669e-07
8.5861282e-09
1.811816e-07
7.592782e-09
1.7808241e-07
6.7910352e-09
1.7528133e-07
6.1377096e-09
1.7272415e-07
5.6033105e-09
1.7037114e-07
5.155953e-09
1.681929e-07
4.7729956e-09
1.6616639e-07
4.4404984e-09
1.6427276e-07
4.1493166e-09
1.6249636e-07
3.8924093e-09
1.6082416e-07
3.6640962e-09
1.5924511e-07
3.4599504e-09
1.5774972e-07
3.276627e-09
1.5632972e-07
3.1114329e-09
1.5497794e-07
2.9619425e-09
1.5368807e-07
2.8262803e-09
1.5245462e-07
2.7026261e-09
1.5127281e-07
2.5894772e-09
1.5013825e-07
2.4859404e-09
1.4904712e-07
2.390785e-09
1.4799605e-07
2.302992e-09
1.4698188e-07
2.2221263e-09
1.460018e-07
2.1474437e-09
1.4505336e-07
2.0781117e-09
1.4413426e-07
2.0137968e-09
1.4324235e-07
1.9542327e-09
1.4237576e-07
1.898762e-09
1.4153282e-07
1.8469104e-09
1.4071191e-07
1.7986523e-09
1.3991149e-07
1.7537758e-09
1.3913023e-07
1.7117566e-09
1.3836698e-07
1.6723017e-09
1.3762055e-07
1.6354718e-09
1.3688976e-07
1.601176e-09
1.3617366e-07
1.5689859e-09
1.354714e-07
1.5386591e-09
1.3478209e-07
1.5102915e-09
1.3410484e-07
1.4838595e-09
1.3343889e-07
1.4591076e-09
1.3278358e-07
1.4358026e-09
1.3213825e-07
1.4139194e-09
1.3150222e-07
1.3935312e-09
1.3087484e-07
1.3745882e-09
1.3025557e-07
1.3568279e-09
1.2964391e-07
1.3401193e-09
1.2903936e-07
1.3245771e-09
1.2844135e-07
1.3102328e-09
1.2784939e-07
1.296966e-09
1.2726308e-07
1.2846017e-09
1.2668201e-07
1.2731048e-09
1.2610574e-07
1.2625834e-09
1.2553382e-07
1.2530762e-09
1.2496583e-07
1.2444315e-09
1.2440146e-07
1.2365167e-09
1.2384034e-07
1.2293895e-09
1.2328208e-07
1.2231451e-09
1.2272624e-07
1.2178027e-09
1.2217251e-07
1.2132028e-09
1.2162058e-07
1.2092535e-09
1.210701e-07
1.2060831e-09
1.2052067e-07
1.2037775e-09
1.1997191e-07
1.2022988e-09
1.194235e-07
1.2015261e-09
1.1887514e-07
1.2014316e-09
1.1832644e-07
1.2021645e-09
1.1777698e-07
1.2038305e-09
1.172264e-07
1.2062997e-09
1.1667436e-07
1.2094746e-09
1.1612048e-07
1.2135085e-09
1.155643e-07
1.2185451e-09
1.1500538e-07
1.2245564e-09
1.1444332e-07
1.231443e-09
1.1387768e-07
1.2392591e-09
1.1330797e-07
1.2481978e-09
1.1273364e-07
1.2583097e-09
1.121542e-07
1.2694948e-09
1.1156914e-07
1.2818247e-09
1.1097781e-07
1.2955492e-09
1.1037956e-07
1.3107171e-09
1.0977375e-07
1.3272624e-09
1.0915969e-07
1.3453623e-09
1.085365e-07
1.365333e-09
1.0790342e-07
1.3870156e-09
1.0725936e-07
1.4110739e-09
1.0663072e-07
1.3772772e-09
1.0603195e-07
1.3118393e-09
1.054608e-07
1.2513405e-09
1.0491511e-07
1.1955476e-09
1.0439288e-07
1.1441392e-09
1.0389236e-07
1.0965877e-09
1.03412e-07
1.0524134e-09
1.0295036e-07
1.0114048e-09
1.0250607e-07
9.7337733e-10
1.0207796e-07
9.3794789e-10
1.0166498e-07
9.0478282e-10
1.0126616e-07
8.7376487e-10
1.0088056e-07
8.4481998e-10
1.0050724e-07
8.1789214e-10
1.0014541e-07
7.9273194e-10
9.9794161e-08
7.6954414e-10
9.9452888e-08
7.4769498e-10
9.9119576e-08
7.3025891e-10
9.8795042e-08
7.1103465e-10
9.8469746e-08
7.1273404e-10
9.815979e-08
6.7921525e-10
9.7776131e-08
8.4016936e-10
5.2784194e-10
2.3100968e-06
9.6067777e-11
2.3100342e-06
2.8781576e-10
2.3099407e-06
4.2939679e-10
2.3098308e-06
5.042584e-10
2.3097074e-06
5.666454e-10
2.3095704e-06
6.2898796e-10
2.3094197e-06
6.9153294e-10
2.3092551e-06
7.5549395e-10
2.3090758e-06
8.2342678e-10
2.3088802e-06
8.9785465e-10
2.3086665e-06
9.81224e-10
2.3084321e-06
1.0765991e-09
2.3081734e-06
1.1881296e-09
2.3078855e-06
1.3224731e-09
2.3075617e-06
1.487862e-09
2.3071909e-06
1.7036366e-09
2.3067598e-06
1.9808179e-09
2.3062354e-06
2.4103435e-09
2.3055986e-06
2.9274185e-09
2.3046887e-06
4.1835379e-09
2.3035546e-06
5.2151906e-09
2.3004219e-06
1.441191e-08
2.2979709e-06
1.126876e-08
1.4316965e-06
4.5365842e-06
4.4051013e-07
4.8801471e-06
2.9846852e-07
3.8696e-07
2.7641637e-07
5.6971472e-08
2.6751208e-07
2.296863e-08
2.6116156e-07
1.6389085e-08
2.5573596e-07
1.4011725e-08
2.509396e-07
1.2389141e-08
2.4664968e-07
1.1080961e-08
2.4277225e-07
1.0015133e-08
2.3923238e-07
9.1431796e-09
2.3597512e-07
8.4132199e-09
2.3295974e-07
7.7883687e-09
2.3015436e-07
7.2458768e-09
2.2753288e-07
6.7707978e-09
2.2507366e-07
6.3516336e-09
2.2275864e-07
5.979118e-09
2.2057255e-07
5.6460329e-09
2.1850226e-07
5.346921e-09
2.1653631e-07
5.0773855e-09
2.1466478e-07
4.8334734e-09
2.1287894e-07
4.6121186e-09
2.1117121e-07
4.4103578e-09
2.0953494e-07
4.2257399e-09
2.0796409e-07
4.0567971e-09
2.0645334e-07
3.9015337e-09
2.0499804e-07
3.7582869e-09
2.0359384e-07
3.6263349e-09
2.0223681e-07
3.5044728e-09
2.0092357e-07
3.3913465e-09
1.9965097e-07
3.2864029e-09
1.9841599e-07
3.1892062e-09
1.9721606e-07
3.098694e-09
1.9604888e-07
3.0140899e-09
1.9491219e-07
2.9353434e-09
1.9380385e-07
2.8621125e-09
1.9272206e-07
2.7935494e-09
1.9166519e-07
2.7291724e-09
1.9063159e-07
2.6690736e-09
1.8961966e-07
2.6131073e-09
1.8862806e-07
2.5605821e-09
1.8765562e-07
2.5110998e-09
1.867011e-07
2.4648098e-09
1.8576328e-07
2.4216763e-09
1.8484111e-07
2.3812868e-09
1.8393365e-07
2.3432612e-09
1.8304001e-07
2.3075544e-09
1.8215926e-07
2.2742845e-09
1.8129047e-07
2.243372e-09
1.8043291e-07
2.214393e-09
1.795859e-07
2.1871316e-09
1.787487e-07
2.1617706e-09
1.7792057e-07
2.1383629e-09
1.7710083e-07
2.1167146e-09
1.7628889e-07
2.0965416e-09
1.7548421e-07
2.0777839e-09
1.7468617e-07
2.0606159e-09
1.7389415e-07
2.0451018e-09
1.7310758e-07
2.0309973e-09
1.7232601e-07
2.0180858e-09
1.7154894e-07
2.0064582e-09
1.7077582e-07
1.9962697e-09
1.7000607e-07
1.9875528e-09
1.6923922e-07
1.98005e-09
1.6847487e-07
1.97361e-09
1.6771251e-07
1.968439e-09
1.6695161e-07
1.9646786e-09
1.6619164e-07
1.9622682e-09
1.6543215e-07
1.9610116e-09
1.6467272e-07
1.9608622e-09
1.6391283e-07
1.9620613e-09
1.6315187e-07
1.9647826e-09
1.6238936e-07
1.9688164e-09
1.6162483e-07
1.9740032e-09
1.6085775e-07
1.9805905e-09
1.6008748e-07
1.9888134e-09
1.5931341e-07
1.9986278e-09
1.5853498e-07
2.0098721e-09
1.577516e-07
2.0226331e-09
1.5696258e-07
2.0372251e-09
1.5616715e-07
2.0537322e-09
1.5536466e-07
2.0719923e-09
1.5455436e-07
2.0921206e-09
1.5373539e-07
2.1145239e-09
1.5290682e-07
2.1392836e-09
1.5206779e-07
2.1662926e-09
1.5121731e-07
2.1958385e-09
1.5035421e-07
2.2284369e-09
1.4947739e-07
2.2638306e-09
1.4858537e-07
2.3031033e-09
1.477147e-07
2.2479456e-09
1.4688539e-07
2.1411427e-09
1.4609433e-07
2.0424018e-09
1.4533854e-07
1.9513411e-09
1.4461524e-07
1.8674361e-09
1.43922e-07
1.7898262e-09
1.4325669e-07
1.7177287e-09
1.426173e-07
1.6507971e-09
1.4200194e-07
1.5887304e-09
1.4140899e-07
1.5309046e-09
1.4083699e-07
1.4767749e-09
1.4028461e-07
1.4261488e-09
1.3975052e-07
1.3789056e-09
1.3923346e-07
1.334954e-09
1.3873231e-07
1.2938876e-09
1.3824581e-07
1.2560392e-09
1.3777313e-07
1.2203751e-09
1.3731149e-07
1.1919049e-09
1.36862e-07
1.160522e-09
1.3641149e-07
1.1632441e-09
1.3598224e-07
1.1084627e-09
1.3545076e-07
1.3716459e-09
8.6106577e-10
2.4685088e-06
1.1839933e-10
2.4684419e-06
3.547922e-10
2.4683418e-06
5.2942209e-10
2.4682243e-06
6.2179984e-10
2.4680922e-06
6.9876293e-10
2.4679455e-06
7.7564703e-10
2.4677843e-06
8.5276823e-10
2.4676082e-06
9.3162646e-10
2.4674162e-06
1.0153729e-09
2.4672069e-06
1.1071184e-09
2.4669783e-06
1.209879e-09
2.4667275e-06
1.3274317e-09
2.4664507e-06
1.4648912e-09
2.4661427e-06
1.6304624e-09
2.4657963e-06
1.834291e-09
2.4653997e-06
2.1002119e-09
2.4649387e-06
2.4418046e-09
2.4643779e-06
2.9711379e-09
2.463697e-06
3.6083485e-09
2.4627242e-06
5.1563103e-09
2.4615119e-06
6.4275288e-09
2.458164e-06
1.7759829e-08
2.4555437e-06
1.3889e-08
1.5962511e-06
5.3958769e-06
5.7945756e-07
5.8969406e-06
3.9905253e-07
5.6736503e-07
3.6961392e-07
8.6410088e-08
3.576937e-07
3.488885e-08
3.4920526e-07
2.4877525e-08
3.4195823e-07
2.125875e-08
3.3555274e-07
1.879463e-08
3.2982337e-07
1.6810332e-08
3.2464456e-07
1.5193949e-08
3.1991639e-07
1.3871348e-08
3.1556554e-07
1.2764067e-08
3.1153766e-07
1.1816255e-08
3.0779013e-07
1.0993402e-08
3.0428813e-07
1.0272801e-08
3.0100277e-07
9.636995e-09
2.9790995e-07
9.071935e-09
2.949893e-07
8.5666804e-09
2.9222327e-07
8.1129544e-09
2.8959657e-07
7.7040851e-09
2.8709596e-07
7.3340844e-09
2.8470979e-07
6.9982899e-09
2.8242792e-07
6.6922203e-09
2.8024151e-07
6.4121572e-09
2.7814244e-07
6.1558593e-09
2.7612366e-07
5.9203179e-09
2.7417894e-07
5.70301e-09
2.7230245e-07
5.5028243e-09
2.7048897e-07
5.3179459e-09
2.6873399e-07
5.1463276e-09
2.6703328e-07
4.9871171e-09
2.6538283e-07
4.8396516e-09
2.6377919e-07
4.7023345e-09
2.622193e-07
4.5739849e-09
2.6070013e-07
4.4545123e-09
2.5921884e-07
4.3434041e-09
2.57773e-07
4.2393857e-09
2.5636045e-07
4.1417211e-09
2.5497899e-07
4.0505388e-09
2.5362647e-07
3.9656227e-09
2.5230112e-07
3.8859351e-09
2.5100135e-07
3.8108677e-09
2.4972552e-07
3.7406366e-09
2.4847201e-07
3.6751913e-09
2.4723938e-07
3.6139131e-09
2.4602642e-07
3.5562259e-09
2.4483192e-07
3.5020552e-09
2.4365463e-07
3.4515771e-09
2.4249332e-07
3.4046752e-09
2.41347e-07
3.3607122e-09
2.4021478e-07
3.3193575e-09
2.3909567e-07
3.2808815e-09
2.3798866e-07
3.2453673e-09
2.3689285e-07
3.2125244e-09
2.3580747e-07
3.1819238e-09
2.3473178e-07
3.1534707e-09
2.3366497e-07
3.1274264e-09
2.3260618e-07
3.10389e-09
2.3155469e-07
3.0824958e-09
2.3050986e-07
3.0629146e-09
2.2947104e-07
3.0452798e-09
2.2843748e-07
3.0298264e-09
2.2740843e-07
3.0166056e-09
2.2638325e-07
3.0052307e-09
2.2536138e-07
2.9954703e-09
2.2434219e-07
2.9876328e-09
2.2332494e-07
2.9819346e-09
2.2230892e-07
2.9782859e-09
2.2129354e-07
2.9763911e-09
2.2027822e-07
2.9761768e-09
2.1926228e-07
2.9780068e-09
2.1824492e-07
2.9821456e-09
2.1722545e-07
2.9882794e-09
2.1620329e-07
2.9961648e-09
2.1517771e-07
3.0061738e-09
2.1414786e-07
3.0186636e-09
2.1311291e-07
3.0335705e-09
2.1207214e-07
3.0506495e-09
2.1102474e-07
3.0700302e-09
2.0996978e-07
3.0921883e-09
2.0890626e-07
3.1172538e-09
2.0783327e-07
3.1449821e-09
2.0674984e-07
3.175546e-09
2.056548e-07
3.2095614e-09
2.0454693e-07
3.2471546e-09
2.0342506e-07
3.2881638e-09
2.0228788e-07
3.3330229e-09
2.011338e-07
3.3825143e-09
1.9996138e-07
3.436251e-09
1.987686e-07
3.4958782e-09
1.9760438e-07
3.4121669e-09
1.9649546e-07
3.25006e-09
1.9543768e-07
3.1001903e-09
1.9442704e-07
2.9619773e-09
1.9345985e-07
2.8346242e-09
1.9253285e-07
2.7168263e-09
1.9164319e-07
2.6073952e-09
1.9078818e-07
2.5058036e-09
1.8996531e-07
2.4115951e-09
1.8917239e-07
2.3238243e-09
1.8840751e-07
2.2416638e-09
1.8766883e-07
2.16482e-09
1.8695463e-07
2.0931099e-09
1.8626319e-07
2.0263952e-09
1.8559302e-07
1.9640599e-09
1.8494245e-07
1.9066072e-09
1.8431035e-07
1.8524692e-09
1.8369302e-07
1.8092353e-09
1.8309195e-07
1.7615937e-09
1.8248956e-07
1.7656353e-09
1.8191561e-07
1.6824125e-09
1.8120481e-07
2.0824434e-09
1.3066093e-09
2.6637073e-06
1.4250731e-10
2.6636349e-06
4.2713065e-10
2.6635269e-06
6.3750407e-10
2.6633998e-06
7.4884629e-10
2.663257e-06
8.4158077e-10
2.6630984e-06
9.3418723e-10
2.6629242e-06
1.0270622e-09
2.6627338e-06
1.1220167e-09
2.6625263e-06
1.2228455e-09
2.6623001e-06
1.3332941e-09
2.662053e-06
1.4569939e-09
2.6617819e-06
1.5984918e-09
2.6614829e-06
1.7639444e-09
2.6611501e-06
1.963227e-09
2.6607759e-06
2.2085503e-09
2.6603475e-06
2.5286009e-09
2.6598496e-06
2.939719e-09
2.6592439e-06
3.5767817e-09
2.6585086e-06
4.3436561e-09
2.6574583e-06
6.2066047e-09
2.6561495e-06
7.7363322e-09
2.6525365e-06
2.1372848e-08
2.6497077e-06
1.671777e-08
1.7947714e-06
6.2508132e-06
7.4634458e-07
6.9453675e-06
5.2293779e-07
7.9077182e-07
4.8445956e-07
1.2488832e-07
4.6882108e-07
5.0527334e-08
4.5771078e-07
3.5987824e-08
4.4823298e-07
3.0736545e-08
4.3985697e-07
2.7170637e-08
4.3236443e-07
2.4302871e-08
4.2559107e-07
2.1967315e-08
4.1940656e-07
2.0055859e-08
4.1371516e-07
1.8455464e-08
4.0844584e-07
1.7085573e-08
4.0354293e-07
1.5896316e-08
3.989609e-07
1.4854824e-08
3.9466205e-07
1.393585e-08
3.9061489e-07
1.3119098e-08
3.867928e-07
1.2388771e-08
3.8317284e-07
1.173291e-08
3.7973505e-07
1.1141871e-08
3.7646213e-07
1.0607007e-08
3.7333884e-07
1.0121575e-08
3.7035196e-07
9.6791082e-09
3.6748988e-07
9.2742336e-09
3.6474205e-07
8.9036928e-09
3.620992e-07
8.5631631e-09
3.5955321e-07
8.2489974e-09
3.5709647e-07
7.9595658e-09
3.5472216e-07
7.6922635e-09
3.5242434e-07
7.4441419e-09
3.5019751e-07
7.2139494e-09
3.4803643e-07
7.0007256e-09
3.4593658e-07
6.8021847e-09
3.4389395e-07
6.616615e-09
3.419046e-07
6.4438656e-09
3.399648e-07
6.2832044e-09
3.3807138e-07
6.1328061e-09
3.362215e-07
5.9915987e-09
3.3441229e-07
5.8597517e-09
3.3264095e-07
5.7369596e-09
3.3090515e-07
5.6217393e-09
3.2920281e-07
5.5132047e-09
3.2753179e-07
5.4116533e-09
3.2588997e-07
5.3170168e-09
3.2427547e-07
5.2284121e-09
3.2268669e-07
5.1450067e-09
3.2112206e-07
5.0666836e-09
3.1957994e-07
4.9936937e-09
3.1805875e-07
4.9258741e-09
3.1655715e-07
4.8623127e-09
3.1507398e-07
4.8025266e-09
3.1360796e-07
4.7468968e-09
3.1215778e-07
4.6955469e-09
3.1072224e-07
4.6480633e-09
3.0930034e-07
4.6038284e-09
3.0789111e-07
4.5626993e-09
3.0649349e-07
4.525049e-09
3.0510635e-07
4.4910238e-09
3.0372875e-07
4.4601018e-09
3.0235985e-07
4.4318064e-09
3.0099881e-07
4.4063236e-09
2.9964464e-07
4.3839925e-09
2.9829636e-07
4.3648904e-09
2.9695313e-07
4.3484637e-09
2.9561422e-07
4.3343752e-09
2.9427879e-07
4.3230642e-09
2.9294588e-07
4.3148458e-09
2.9161457e-07
4.3095941e-09
2.9028408e-07
4.3068839e-09
2.8895365e-07
4.3066059e-09
2.8762237e-07
4.3092816e-09
2.8628922e-07
4.3152962e-09
2.849533e-07
4.3242018e-09
2.8361382e-07
4.3356449e-09
2.8226984e-07
4.3501573e-09
2.8092024e-07
4.3682575e-09
2.7956396e-07
4.3898575e-09
2.782e-07
4.4146039e-09
2.7682735e-07
4.4426805e-09
2.7544477e-07
4.4747737e-09
2.7405095e-07
4.5110755e-09
2.7264469e-07
4.5512342e-09
2.7122474e-07
4.5954964e-09
2.6978955e-07
4.6447513e-09
2.6833752e-07
4.699186e-09
2.6686712e-07
4.7585675e-09
2.6537662e-07
4.8235197e-09
2.6386396e-07
4.8951749e-09
2.6232723e-07
4.9729778e-09
2.607638e-07
5.05931e-09
2.5923777e-07
4.9381954e-09
2.5778422e-07
4.703618e-09
2.5639766e-07
4.4867485e-09
2.5507289e-07
4.2867454e-09
2.5380506e-07
4.1024548e-09
2.5258989e-07
3.9319916e-09
2.5142365e-07
3.7736354e-09
2.5030284e-07
3.6266209e-09
2.4922414e-07
3.4902885e-09
2.4818469e-07
3.363273e-09
2.4718198e-07
3.2443764e-09
2.4621363e-07
3.1331717e-09
2.4527734e-07
3.0293943e-09
2.443709e-07
2.9328443e-09
2.4349232e-07
2.8426323e-09
2.4263945e-07
2.7594827e-09
2.4181079e-07
2.6811294e-09
2.4100149e-07
2.6185316e-09
2.4021351e-07
2.5495794e-09
2.3942386e-07
2.5552844e-09
2.3867149e-07
2.4347762e-09
2.3773957e-07
3.0143647e-09
1.8906967e-09
2.898601e-06
1.68754e-10
2.8985222e-06
5.0592845e-10
2.8984044e-06
7.5529715e-10
2.8982659e-06
8.873541e-10
2.8981102e-06
9.9730342e-10
2.8979373e-06
1.1070569e-09
2.8977473e-06
1.2171055e-09
2.8975397e-06
1.3296016e-09
2.8973135e-06
1.4490414e-09
2.8970669e-06
1.5798622e-09
2.8967976e-06
1.7263655e-09
2.8965021e-06
1.8939373e-09
2.8961762e-06
2.089868e-09
2.8958136e-06
2.3258522e-09
2.8954058e-06
2.616348e-09
2.8949391e-06
2.9953235e-09
2.8943967e-06
3.482123e-09
2.893737e-06
4.2364506e-09
2.8929362e-06
5.1444574e-09
2.8917925e-06
7.3502494e-09
2.8903676e-06
9.1612833e-09
2.8864356e-06
2.5304804e-08
2.8833559e-06
1.9797518e-08
2.0323375e-06
7.1018316e-06
9.4829987e-07
8.0294051e-06
6.7680197e-07
1.0622697e-06
6.2720123e-07
1.7448906e-07
6.069562e-07
7.0772366e-08
5.9261709e-07
5.0326935e-08
5.8039642e-07
4.2957212e-08
5.6959762e-07
3.7969437e-08
5.5993633e-07
3.3964164e-08
5.5120069e-07
3.0702959e-08
5.4322323e-07
2.8033311e-08
5.3588083e-07
2.5797867e-08
5.2908203e-07
2.3884373e-08
5.2275516e-07
2.2223191e-08
5.1684163e-07
2.0768354e-08
5.112929e-07
1.9484572e-08
5.0606848e-07
1.8343518e-08
5.011341e-07
1.7323157e-08
4.9646022e-07
1.6406792e-08
4.9202113e-07
1.5580954e-08
4.8779456e-07
1.4833579e-08
4.837609e-07
1.415524e-08
4.7990308e-07
1.3536921e-08
4.7620619e-07
1.2971123e-08
4.7265662e-07
1.2453266e-08
4.6924244e-07
1.1977349e-08
4.6595316e-07
1.1538277e-08
4.6277898e-07
1.113374e-08
4.5971112e-07
1.0760127e-08
4.5674193e-07
1.0413332e-08
4.538643e-07
1.0091579e-08
4.510715e-07
9.7935244e-09
4.4835768e-07
9.5160052e-09
4.4571767e-07
9.2566236e-09
4.431464e-07
9.0151396e-09
4.4063906e-07
8.7905436e-09
4.3819155e-07
8.5803102e-09
4.3580022e-07
8.3829291e-09
4.3346136e-07
8.1986144e-09
4.3117137e-07
8.0269497e-09
4.2892722e-07
7.8658863e-09
4.2672625e-07
7.7141766e-09
4.2456569e-07
7.5722143e-09
4.224428e-07
7.439912e-09
4.2035516e-07
7.3160514e-09
4.1830069e-07
7.1994692e-09
4.1627739e-07
7.0899889e-09
4.1428313e-07
6.9879556e-09
4.1231585e-07
6.89315e-09
4.1037385e-07
6.8043106e-09
4.0845562e-07
6.7207547e-09
4.0655952e-07
6.6430009e-09
4.0468384e-07
6.5712272e-09
4.0282704e-07
6.5048651e-09
4.0098781e-07
6.4430546e-09
3.9916492e-07
6.3855875e-09
3.9735699e-07
6.3329783e-09
3.9556258e-07
6.2854365e-09
3.9378044e-07
6.2422423e-09
3.9200952e-07
6.2027284e-09
3.902487e-07
6.1671448e-09
3.8849673e-07
6.1359648e-09
3.8675232e-07
6.1093013e-09
3.8501439e-07
6.0863887e-09
3.8328201e-07
6.0667514e-09
3.8155408e-07
6.0509942e-09
3.7982937e-07
6.0395608e-09
3.7810668e-07
6.0322816e-09
3.76385e-07
6.0285648e-09
3.7466335e-07
6.0282526e-09
3.7294057e-07
6.0320687e-09
3.7121531e-07
6.0405556e-09
3.6948641e-07
6.0530952e-09
3.6775287e-07
6.0691911e-09
3.6601345e-07
6.0895785e-09
3.6426672e-07
6.1149853e-09
3.6251128e-07
6.1452945e-09
3.6074587e-07
6.1800133e-09
3.5896916e-07
6.2193938e-09
3.5717954e-07
6.2643939e-09
3.5537533e-07
6.3152879e-09
3.5355497e-07
6.371587e-09
3.5171684e-07
6.433632e-09
3.4985892e-07
6.5026643e-09
3.4797916e-07