#      distance             U_x             U_y             U_z wallShearStr... wallShearStr... wallShearStr...               p           omega               k             nut
  3.0219182e-06     0.018437291    2.628379e-09  -3.4462605e-23               0               0               0   0.00023274057       5570601.8    3.996567e-07   3.7388564e-13
  5.0865428e-06     0.031037027   6.6676683e-09  -1.4611937e-23               0               0               0   0.00023274078       1240850.2   1.8251435e-06   3.4556796e-12
  7.2269684e-06     0.044098657   1.3130218e-08  -3.7644264e-23               0               0               0   0.00023274099       495682.15   5.7565449e-06     1.93244e-11
  9.4750924e-06     0.057814811   2.2378483e-08  -5.6460357e-23               0               0               0   0.00023274121       256764.59   1.4416893e-05   7.8814638e-11
  1.1864417e-05     0.072383487   3.4923941e-08  -2.3401768e-23               0               0               0   0.00023274145       152802.37   3.1084399e-05   2.5988734e-10
  1.4430548e-05     0.088004099   5.1500978e-08   7.8884554e-23               0               0               0    0.0002327417       99058.137   6.0514863e-05   7.3654286e-10
  1.7211727e-05      0.10486543   7.3067684e-08   1.2748405e-22               0               0               0   0.00023274198       68139.827   0.00010939699   1.8610043e-09
  2.0249401e-05      0.12311936   1.0081896e-07   2.8786973e-23               0               0               0    0.0002327423       49052.651    0.0001865514   4.2811757e-09
  2.3588836e-05      0.14283528   1.3617866e-07  -3.0453705e-23               0               0               0   0.00023274269       36671.159   0.00030227107   9.0651357e-09
  2.7279799e-05      0.16394083   1.8073622e-07  -1.5226852e-23               0               0               0   0.00023274318       28321.676   0.00046601302    1.775447e-08
  3.1377293e-05      0.18617688   2.3612549e-07               0               0               0               0    0.0002327438       22484.097   0.00068232206   3.2246916e-08
  3.5942381e-05      0.20910998   3.0390824e-07   7.1952195e-23               0               0               0   0.00023274462        18243.87   0.00094678698   5.4495382e-08
  4.1043091e-05      0.23222091   3.8555573e-07   1.0791675e-22               0               0               0   0.00023274571       15039.506     0.001245283   8.6180507e-08
  4.6755437e-05      0.25502905   4.8251408e-07   1.2150172e-22               0               0               0   0.00023274713       12529.907    0.0015579768   1.2857162e-07
  5.3164546e-05      0.27719791   5.9645962e-07   1.2829203e-22               0               0               0   0.00023274892       10510.175     0.001865639     1.82049e-07
  6.0365928e-05      0.29856765   7.2961735e-07   -1.933158e-22               0               0               0   0.00023275117       8853.4811    0.0021544511   2.4683438e-07
    6.84669e-05      0.31908235   8.8470462e-07   -4.117517e-22               0               0               0   0.00023275396       7476.8525    0.0024168178   3.2494823e-07
  7.7588184e-05      0.33870508   1.0647333e-06  -2.1504917e-22               0               0               0   0.00023275744       6324.4759    0.0026492745   4.1961341e-07
   8.786571e-05      0.35741126   1.2730718e-06   6.1355596e-23               0               0               0   0.00023276173       5357.4763    0.0028510537   5.3376798e-07
  9.9452634e-05      0.37521067   1.5135915e-06   2.7236878e-22               0               0               0   0.00023276697       4546.5713    0.0030236532   6.6994332e-07
  0.00011252163      0.39215559   1.7908252e-06   5.6557288e-23               0               0               0   0.00023277329       3867.6183    0.0031701101   8.2954869e-07
  0.00012726745      0.40834018   2.1102693e-06  -1.5311794e-22               0               0               0   0.00023278077       3299.2432    0.0032941644   1.0127866e-06
  0.00014390985      0.42387649   2.4785036e-06  -3.8030179e-23               0               0               0   0.00023278957        2822.393    0.0033995265    1.221584e-06
  0.00016269684       0.4388585   2.9029478e-06   6.8213564e-23               0               0               0   0.00023279991       2420.9807    0.0034893042   1.4605764e-06
  0.00018390838      0.45335404    3.391898e-06    5.441139e-22               0               0               0   0.00023281204       2081.9793    0.0035658867   1.7344722e-06
  0.00020786057       0.4674183   3.9549356e-06   6.7967832e-22               0               0               0   0.00023282625       1794.8152     0.003631213   2.0476019e-06
  0.00023491035      0.48110061    4.603137e-06   2.0377799e-22               0               0               0   0.00023284285       1550.8272    0.0036869374   2.4048349e-06
  0.00026546084      0.49444495   5.3491971e-06               0               0               0               0   0.00023286219       1342.9111    0.0037344549   2.8116387e-06
   0.0002999673       0.5074904   6.2076814e-06               0               0               0               0   0.00023288467        1165.228    0.0037749328   3.2741437e-06
  0.00033894396      0.52027174   7.1953139e-06  -1.8513129e-22               0               0               0   0.00023291074       1012.9676    0.0038093418   3.7992119e-06
  0.00038297165      0.53281996   8.3313029e-06  -3.7026258e-22               0               0               0   0.00023294094       882.15537    0.0038384852   4.3945109e-06
  0.00043270649      0.54516274   9.6377155e-06   8.0095951e-22               0               0               0   0.00023297584       769.49718    0.0038630232   5.0685893e-06
  0.00048888965      0.55732492   1.1139912e-05    1.555452e-21               0               0               0   0.00023301612       672.25371    0.0038834948   5.8309542e-06
  0.00055235838      0.56932889   1.2867055e-05   5.6936123e-22               0               0               0   0.00023306254       588.13921    0.0039003344   6.6921464e-06
   0.0006240585        0.581195   1.4852693e-05               0               0               0               0   0.00023311596       515.23973    0.0039138864   7.6638112e-06
  0.00070505852      0.59294184   1.7135459e-05   2.3906285e-22               0               0               0   0.00023317737       451.94717     0.003924416   8.7587575e-06
  0.00079656552      0.60458657   1.9759876e-05    4.781257e-22               0               0               0   0.00023324785       396.90585     0.003932118   9.9910002e-06
  0.00089994316      0.61614524    2.277732e-05   2.3906285e-22               0               0               0   0.00023332864       348.96913    0.0039371231   1.1375773e-05
    0.001016732        0.627633   2.6247146e-05               0               0               0               0   0.00023342114       307.16413    0.0039395024   1.2929498e-05
   0.0011486725      0.63906441   3.0238045e-05   1.0417059e-21               0               0               0   0.00023352688       270.66297    0.0039392701   1.4669696e-05
   0.0012977308      0.65045371   3.4829667e-05  -7.8787238e-22               0               0               0   0.00023364759       238.75914    0.0039363848   1.6614811e-05
   0.0014661282      0.66181503   4.0114571e-05  -3.4904607e-21               0               0               0   0.00023378517       210.84816    0.0039307487   1.8783903e-05
   0.0016563743      0.67316274   4.6200615e-05  -2.6966758e-21               0               0               0   0.00023394171       186.41155    0.0039222057   2.1196189e-05
   0.0018713042      0.68451174   5.3213862e-05  -1.5854595e-21               0               0               0   0.00023411948       165.00369     0.003910538   2.3870349e-05
   0.0021141207       0.6958778     6.13022e-05  -5.4966605e-22               0               0               0   0.00023432094       146.24075    0.0038954598   2.6823528e-05
   0.0023884425        0.707278   7.0639839e-05  -4.0098101e-22               0               0               0   0.00023454867       129.79165    0.0038766102   3.0069947e-05
   0.0026983575      0.71873116   8.1432991e-05   1.2442863e-21               0               0               0   0.00023480536       115.37041    0.0038535422   3.3618982e-05
   0.0030484842      0.73025848   9.3927105e-05  -2.2367267e-21               0               0               0   0.00023509371       102.72979    0.0038257095   3.7472562e-05
   0.0034440402      0.74188423   0.00010841618  -5.6987124e-21               0               0               0   0.00023541629       91.655986    0.0037924477   4.1621719e-05
   0.0038909203      0.75363667   0.00012525491  -1.8167184e-21               0               0               0   0.00023577532       81.964231    0.0037529518   4.6042049e-05
    0.004395784      0.76554915   0.00014487474   3.1396541e-21               0               0               0   0.00023617241       73.495135    0.0037062443   5.0687882e-05
   0.0049661549      0.77766167   0.00016780589   -4.684219e-21               0               0               0    0.0002366081       66.111735    0.0036511359   5.5484919e-05
   0.0056105328      0.79002271   0.00019470755  -1.3756968e-20               0               0               0   0.00023708122       59.697195    0.0035861721   6.0321194e-05
   0.0063385204      0.80269186   0.00022640612   5.3442187e-21               0               0               0   0.00023758677       54.153203    0.0035095653   6.5036352e-05
   0.0071609664      0.81574322   0.00026392442   1.8557434e-20               0               0               0   0.00023811195       49.399205    0.0034191098   6.9409557e-05
   0.0080901272       0.8292822   0.00030863137   2.9289031e-20               0               0               0   0.00023864097       45.367459    0.0033117788   7.3009803e-05
   0.0091398493      0.84348077   0.00036253578   3.3937496e-20               0               0               0   0.00023915913        41.98924    0.0031827865    7.515797e-05
    0.010325776      0.85858775     0.000428552   1.5984927e-20               0               0               0    0.0002396303       39.181464    0.0030244823   7.5306822e-05
     0.01166558      0.87490344   0.00051061699   4.0563447e-21               0               0               0   0.00023998409       36.834381    0.0028250094   7.3118374e-05
    0.013179228      0.89276196   0.00061403845    1.790902e-20               0               0               0   0.00024012833       34.788168    0.0025669667    6.831376e-05
    0.014889277      0.91246684   0.00074575971   1.6570301e-20               0               0               0   0.00023991487       32.819795    0.0022286929     6.09176e-05
    0.016821209      0.93402402   0.00091055592   5.0714255e-20               0               0               0   0.00023902238       30.698752    0.0017939377   5.1473214e-05
    0.019003816      0.95678409    0.0011121507   7.7418171e-20               0               0               0   0.00023725431       28.147968    0.0012637709   4.0165715e-05
    0.021469624       0.9788279    0.0013396208   4.3863192e-20               0               0               0   0.00023444973       23.079477   0.00068864396   2.6273876e-05
    0.024255377       0.9952643    0.0015167277   2.4053901e-20               0               0               0    0.0002295842       14.334775    0.0002357569   1.2132801e-05
    0.027402591       1.0024691    0.0015844759   5.5558624e-21               0               0               0   0.00022277188       7.3136322   3.6712703e-05   3.1163185e-06
    0.030958166        1.003776    0.0015884665               0               0               0               0   0.00021581378       5.3270725   1.7772465e-06   3.2446315e-07
    0.034975088        1.003818    0.0015796673               0               0               0               0   0.00020932324        5.260357    6.559576e-07   1.2469861e-07
    0.039513219       1.0038156    0.0015695373   1.9703984e-20               0               0               0   0.00020286338       5.2618474   6.5391257e-07   1.2427305e-07
    0.044640187       1.0038177    0.0015603139   2.9552886e-20               0               0               0   0.00019620594        5.262259   6.5412429e-07   1.2430341e-07
    0.050432395       1.0038247    0.0015500267   9.8488666e-21               0               0               0    0.0001893483       5.2622369   6.5413618e-07   1.2430619e-07
    0.056976161       1.0038304    0.0015382149               0               0               0               0    0.0001823881       5.2622292   6.5413295e-07   1.2430576e-07
    0.064369002        1.003831     0.001525636               0               0               0               0   0.00017550006       5.2622235   6.5413175e-07   1.2430567e-07
    0.072721087        1.003828    0.0015119268               0               0               0               0   0.00016883723       5.2622134   6.5413014e-07    1.243056e-07
    0.082156882       1.0038228    0.0014972414               0               0               0               0   0.00016248707       5.2621959    6.541276e-07   1.2430553e-07
    0.092817002       1.0038151    0.0014813489               0               0               0               0   0.00015653047       5.2621687    6.541238e-07   1.2430545e-07
