/*--------------------------------*- C++ -*----------------------------------*\
  =========                 |
  \\      /  F ield         | OpenFOAM: The Open Source CFD Toolbox
   \\    /   O peration     | Website:  https://openfoam.org
    \\  /    A nd           | Version:  12
     \\/     M anipulation  |
\*---------------------------------------------------------------------------*/
FoamFile
{
    format      ascii;
    class       volScalarField;
    location    "1500";
    object      k;
}
// * * * * * * * * * * * * * * * * * * * * * * * * * * * * * * * * * * * * * //

dimensions      [0 2 -2 0 0 0 0];

internalField   nonuniform List<scalar> 
7480
(
9.1318749e-06
9.5177722e-06
1.0336551e-05
1.2715166e-05
0.0017675916
0.0035112061
0.0049554298
0.0060289203
0.0067626661
0.007223762
0.0074851573
0.0076041806
0.0076237421
0.0075751206
0.0074809547
0.0073574093
0.0072160722
0.0070660962
0.0069172438
0.006770489
0.006627735
0.006489475
0.0063578182
0.0062346763
0.006121328
0.0060185467
0.005926612
0.0058453171
0.0057740892
0.005712108
0.0056583897
0.0056119111
0.0055717903
0.0055372959
0.0055075532
0.0054815453
0.0054582038
0.0054366379
0.0054162003
0.0053964333
0.0053769274
0.0053573122
0.0053373024
0.0053166858
0.0052953582
0.0052732806
0.0052504143
0.0052266237
0.005201778
0.0051758933
0.0051490983
0.0051215166
0.0050932502
0.005064464
0.0050354104
0.0050062954
0.0049771878
0.004948099
0.004919088
0.0048902473
0.004861619
0.0048332281
0.0048051471
0.0047774502
0.0047501419
0.0047232154
0.0046966746
0.0046704798
0.0046445628
0.0046189153
0.0045935769
0.004568543
0.0045438148
0.0045194507
0.0044954257
0.0044716739
0.0044481984
0.0044249847
0.00440201
0.0043793171
0.004356921
0.0043347949
0.004312941
0.0042913285
0.0042699296
0.0042487675
0.0042278535
0.0042071874
0.0041867486
0.0041665136
0.004146488
0.0041266651
0.004107053
0.0040876241
0.0040683985
0.0040491606
0.0040305949
0.0040107609
0.0039932985
0.0039668011
8.9479232e-06
8.8222131e-06
8.7067596e-06
8.6318594e-06
4.7739418e-05
0.00014931525
0.00031207497
0.00052024841
0.0007516864
0.0009861487
0.0012045535
0.0013985102
0.0015688218
0.0017226115
0.0018691724
0.0020188677
0.0021844807
0.0023870925
0.0026128968
0.0028405207
0.0030742137
0.0033132706
0.0035546882
0.0037950601
0.0040310049
0.0042582746
0.0044728872
0.0046715533
0.004851705
0.0050116499
0.0051507431
0.0052695715
0.0053699276
0.0054549426
0.0055250939
0.0055801544
0.0056199955
0.0056466519
0.0056617318
0.005666664
0.005663023
0.0056524801
0.0056364829
0.0056159885
0.0055918107
0.0055646901
0.0055353209
0.0055043018
0.0054721436
0.0054395141
0.0054070157
0.0053750711
0.0053439438
0.0053138192
0.005284858
0.005256947
0.0052297001
0.0052029213
0.0051765685
0.0051507075
0.0051254381
0.0051008108
0.005076779
0.0050532434
0.0050301228
0.0050073322
0.0049845724
0.0049616962
0.004938751
0.0049158571
0.0048931319
0.004870656
0.0048484545
0.0048265301
0.0048047493
0.0047829835
0.0047612129
0.0047395124
0.0047179786
0.0046966638
0.0046756034
0.0046547272
0.0046339281
0.0046131889
0.004592566
0.0045721123
0.0045518746
0.0045318251
0.0045118893
0.004492046
0.0044723275
0.0044527792
0.0044334225
0.0044141904
0.0043950907
0.0043759812
0.0043573207
0.0043378088
0.0043221155
0.004288056
8.9433844e-06
8.8096632e-06
8.6758646e-06
8.5428127e-06
9.0513555e-06
1.1697496e-05
1.8654943e-05
3.1946352e-05
5.2805447e-05
8.1720318e-05
0.00011804449
0.00016044746
0.00020748264
0.00025789397
0.00031073508
0.00036554433
0.0004226402
0.0004839116
0.0005488443
0.00061893702
0.00069626954
0.00078459409
0.00088743304
0.0010087901
0.0011534283
0.0013105605
0.0014771019
0.0016535582
0.00183997
0.0020359376
0.0022407043
0.0024535153
0.0026715806
0.0028850764
0.0030921967
0.0032899505
0.0034739737
0.0036411511
0.0037923579
0.0039272761
0.0040470227
0.0041529031
0.0042443979
0.0043205708
0.0043832087
0.0044340392
0.0044747956
0.0045041398
0.0045256708
0.0045414573
0.0045527097
0.0045602569
0.004564859
0.004567386
0.0045685304
0.0045685275
0.0045673338
0.0045649847
0.0045616957
0.004557767
0.0045534087
0.0045486935
0.0045435761
0.0045379874
0.00453193
0.0045253646
0.0045179274
0.0045096381
0.004500691
0.0044912821
0.0044815407
0.0044715277
0.0044612677
0.0044507787
0.0044398342
0.0044283409
0.00441639
0.0044041218
0.0043916664
0.0043790906
0.0043664297
0.0043535579
0.0043403663
0.0043268923
0.004313251
0.0042995267
0.0042857777
0.0042719421
0.0042579291
0.0042437541
0.0042294888
0.0042152036
0.0042009194
0.0041865525
0.0041720848
0.0041575326
0.0041430574
0.0041280135
0.0041154783
0.0040888981
8.9432788e-06
8.8092229e-06
8.6750676e-06
8.5409232e-06
8.4160162e-06
8.3326059e-06
8.3606558e-06
8.6167261e-06
9.2641835e-06
1.0526164e-05
1.2643103e-05
1.5842493e-05
2.0314869e-05
2.6203482e-05
3.3609969e-05
4.2608343e-05
5.3273276e-05
6.5755194e-05
8.021556e-05
9.6857794e-05
0.00011593042
0.00013783141
0.00016312359
0.00019257531
0.00022725279
0.00026786196
0.00031514736
0.00037021413
0.00043469769
0.00051096264
0.00060237444
0.00071354765
0.0008429094
0.00098579513
0.0011431997
0.0013164879
0.0015062878
0.0017099718
0.0019169544
0.0021227147
0.0023236049
0.0025166299
0.0026988115
0.0028687253
0.0030250205
0.0031666391
0.0032943039
0.0034084607
0.003509585
0.0035961558
0.0036702571
0.0037338048
0.003788669
0.0038368127
0.0038792562
0.0039155866
0.0039459003
0.0039718751
0.003994679
0.0040151529
0.0040336207
0.004050165
0.0040648278
0.0040777648
0.0040892135
0.0040992433
0.0041077413
0.0041147295
0.004120414
0.0041249993
0.0041286082
0.0041312863
0.004133077
0.0041340379
0.0041339366
0.004132783
0.0041307559
0.0041280181
0.0041246941
0.0041208528
0.0041165354
0.0041115721
0.004105904
0.0040996413
0.0040929272
0.004085857
0.0040784938
0.0040707404
0.0040625165
0.0040538866
0.0040449544
0.0040358019
0.0040264411
0.0040167732
0.0040067876
0.0039965929
0.0039862145
0.0039753511
0.0039660271
0.0039455011
8.9432868e-06
8.8092212e-06
8.6750792e-06
8.5409335e-06
8.4069708e-06
8.2738279e-06
8.1431708e-06
8.0185037e-06
7.9059789e-06
7.8156287e-06
7.762115e-06
7.7653364e-06
7.8505336e-06
8.0481987e-06
8.3941828e-06
8.9297095e-06
9.7016916e-06
1.0764202e-05
1.2180326e-05
1.4021466e-05
1.6366176e-05
1.9307992e-05
2.2963067e-05
2.7477936e-05
3.3048982e-05
3.9922989e-05
4.8388032e-05
5.8795956e-05
7.1598594e-05
8.7395823e-05
0.00010700425
0.00013157933
0.00016239247
0.00020070421
0.00024820589
0.00030731336
0.00038143907
0.00047522696
0.00059227462
0.00072591454
0.00087559614
0.0010401338
0.0012193254
0.0014080442
0.0016000571
0.001791174
0.001977699
0.0021564237
0.0023251276
0.0024838272
0.0026300359
0.0027631897
0.002884293
0.0029953391
0.0030954113
0.0031836269
0.0032610707
0.0033295462
0.0033910128
0.0034466669
0.0034967963
0.0035418593
0.0035824549
0.0036193336
0.0036530255
0.0036834722
0.0037101928
0.0037340937
0.0037557413
0.0037754294
0.003793272
0.0038093222
0.003823721
0.0038365949
0.0038479297
0.0038577748
0.0038662825
0.003873604
0.0038798536
0.0038851043
0.003889411
0.0038926186
0.0038947612
0.0038960006
0.0038964766
0.0038962816
0.0038954793
0.0038939496
0.0038916553
0.0038887151
0.0038852487
0.0038813385
0.0038769837
0.0038720774
0.0038666452
0.0038608467
0.0038546525
0.0038479138
0.003842137
0.0038264262
8.9433094e-06
8.8092535e-06
8.6751216e-06
8.5409773e-06
8.4068831e-06
8.2729094e-06
8.1391483e-06
8.0057415e-06
7.8729233e-06
7.7410835e-06
7.6108494e-06
7.4831863e-06
7.3595042e-06
7.2417652e-06
7.132606e-06
7.0354571e-06
6.9546885e-06
6.8958044e-06
6.8657554e-06
6.8731786e-06
6.9284286e-06
7.0441784e-06
7.2363737e-06
7.5252882e-06
7.9379659e-06
8.5102392e-06
9.288112e-06
1.033113e-05
1.1718344e-05
1.3556058e-05
1.5988234e-05
1.9217108e-05
2.3518848e-05
2.9264491e-05
3.6951221e-05
4.7268418e-05
6.1189733e-05
8.0096208e-05
0.00010584809
0.0001401061
0.00018484097
0.00024250686
0.00031657462
0.00041007064
0.00052523216
0.00065787478
0.0008070249
0.00097007825
0.0011439735
0.0013215439
0.0014991402
0.0016733421
0.0018414585
0.002001818
0.0021552555
0.0022995679
0.0024330595
0.0025558022
0.0026693106
0.0027736963
0.0028674925
0.0029521067
0.0030289078
0.0030992894
0.0031637497
0.0032221951
0.0032746081
0.0033220091
0.00336533
0.003404926
0.0034410159
0.0034738932
0.0035039719
0.003531499
0.0035561381
0.0035783132
0.0035984518
0.0036167854
0.0036334361
0.0036484947
0.0036620508
0.0036741309
0.0036848169
0.003694236
0.0037025069
0.0037097234
0.0037159507
0.0037210909
0.0037251799
0.0037283692
0.0037307722
0.0037324654
0.0037334396
0.0037336001
0.0037330266
0.0037319002
0.0037301635
0.003727743
0.003725878
0.0037147065
8.9433413e-06
8.8092904e-06
8.6751599e-06
8.5410149e-06
8.4069184e-06
8.2729327e-06
8.1391185e-06
8.005536e-06
7.8722487e-06
7.7393247e-06
7.6068404e-06
7.474885e-06
7.3435742e-06
7.2130526e-06
7.0835075e-06
6.9551842e-06
6.8284039e-06
6.7035847e-06
6.5812711e-06
6.4621658e-06
6.3471494e-06
6.2373228e-06
6.1340791e-06
6.039189e-06
5.9549705e-06
5.8844953e-06
5.8317685e-06
5.8020904e-06
5.8026368e-06
5.8433003e-06
5.9378981e-06
6.1064518e-06
6.3783705e-06
6.7962975e-06
7.4223474e-06
8.3490804e-06
9.7164304e-06
1.1736919e-05
1.4736049e-05
1.9171122e-05
2.5682041e-05
3.5164926e-05
4.8891925e-05
6.8541883e-05
9.6276619e-05
0.00013420828
0.00018480441
0.00025105598
0.00033683759
0.00044289818
0.00056602776
0.00070558997
0.0008592443
0.0010229266
0.0011887852
0.0013542235
0.0015166572
0.0016740202
0.0018249828
0.0019707891
0.0021091694
0.0022387546
0.0023597227
0.0024732192
0.0025783822
0.0026740812
0.0027611499
0.0028408539
0.0029141223
0.0029808628
0.003041542
0.0030969677
0.0031478916
0.0031946182
0.0032369727
0.0032754045
0.003310556
0.0033427937
0.0033723113
0.0033993214
0.0034240568
0.0034463798
0.0034666094
0.0034850424
0.0035018433
0.0035171279
0.0035309652
0.0035433933
0.0035545026
0.0035644087
0.003573207
0.0035809746
0.0035877108
0.0035933716
0.0035980816
0.0036020141
0.0036050963
0.0036072962
0.0036097482
0.0036031743
8.9433833e-06
8.8093379e-06
8.675211e-06
8.5410689e-06
8.4069744e-06
8.2729891e-06
8.139173e-06
8.0055851e-06
7.8722847e-06
7.7393315e-06
7.6067854e-06
7.4747062e-06
7.343154e-06
7.2121909e-06
7.0818785e-06
6.9522815e-06
6.8234675e-06
6.6955091e-06
6.5684863e-06
6.4424893e-06
6.3176214e-06
6.1940015e-06
6.0717704e-06
5.9510974e-06
5.8321913e-06
5.7153161e-06
5.6008057e-06
5.4890884e-06
5.3807282e-06
5.2764833e-06
5.1773906e-06
5.0849206e-06
5.0012079e-06
4.9293504e-06
4.8738925e-06
4.8416791e-06
4.8432741e-06
4.895273e-06
5.0247781e-06
5.2755957e-06
5.717221e-06
6.4615533e-06
7.6900965e-06
9.6915682e-06
1.2914344e-05
1.8013051e-05
2.5929795e-05
3.8001395e-05
5.6111579e-05
8.2539011e-05
0.00011954759
0.00016975935
0.00023634868
0.00032382549
0.00042945337
0.00055120913
0.00068815756
0.00083774859
0.00099520094
0.0011515837
0.0013065375
0.0014584176
0.0016059554
0.0017488478
0.0018876233
0.0020197586
0.0021443056
0.0022615758
0.0023721854
0.002473303
0.0025660074
0.0026515069
0.002730554
0.0028030985
0.0028691749
0.0029294499
0.0029846963
0.003035268
0.003081499
0.0031238666
0.0031628321
0.0031983423
0.0032306965
0.0032603382
0.0032875669
0.0033125627
0.0033354679
0.0033562509
0.0033751644
0.0033924469
0.003408224
0.0034225909
0.003435594
0.0034472976
0.0034577993
0.0034672456
0.003475563
0.0034827532
0.003489983
0.0034881985
8.9434321e-06
8.8093931e-06
8.6752709e-06
8.5411317e-06
8.4070385e-06
8.2730527e-06
8.1392351e-06
8.0056451e-06
7.8723425e-06
7.7393869e-06
7.6068376e-06
7.4747538e-06
7.3431939e-06
7.2122159e-06
7.081877e-06
6.9522333e-06
6.8233401e-06
6.6952517e-06
6.5680214e-06
6.4417023e-06
6.3163465e-06
6.1920059e-06
6.0687318e-06
5.9465761e-06
5.825592e-06
5.7058349e-06
5.5873639e-06
5.4702429e-06
5.3545437e-06
5.2403499e-06
5.1277622e-06
5.016909e-06
4.9079607e-06
4.8011495e-06
4.6968005e-06
4.5953839e-06
4.4976035e-06
4.4045386e-06
4.3179242e-06
4.2405911e-06
4.177104e-06
4.1350038e-06
4.1270033e-06
4.1748074e-06
4.3160435e-06
4.6151849e-06
5.1819524e-06
6.2035349e-06
7.9961708e-06
1.1065536e-05
1.616782e-05
2.4408664e-05
3.7369167e-05
5.7379059e-05
8.6820958e-05
0.00012818047
0.00018436854
0.0002592703
0.00035529727
0.00046717341
0.00059367469
0.00073301501
0.00088147635
0.0010325758
0.001180661
0.0013269356
0.0014702737
0.001609538
0.0017461834
0.0018774716
0.0020021137
0.002120123
0.0022320217
0.0023356809
0.0024311759
0.0025194323
0.0026010068
0.0026757621
0.0027441751
0.0028069949
0.0028648157
0.0029176315
0.0029658085
0.0030099592
0.0030504955
0.0030876979
0.0031218826
0.003153143
0.0031817285
0.0032079572
0.0032320763
0.0032542434
0.003274497
0.0032929068
0.0033097573
0.0033252093
0.0033392072
0.0033518148
0.0033643594
0.0033675642
8.9434861e-06
8.8094541e-06
8.6753367e-06
8.5412006e-06
8.4071087e-06
8.2731229e-06
8.1393043e-06
8.0057129e-06
7.8724085e-06
7.7394508e-06
7.6068993e-06
7.4748129e-06
7.3432503e-06
7.2122692e-06
7.0819267e-06
6.9522787e-06
6.8233801e-06
6.6952842e-06
6.5680434e-06
6.4417085e-06
6.3163293e-06
6.1919534e-06
6.0686271e-06
5.9463948e-06
5.8252996e-06
5.7053831e-06
5.5866857e-06
5.4692462e-06
5.3531024e-06
5.2382908e-06
5.1248477e-06
5.0128091e-06
4.9022122e-06
4.7930968e-06
4.6855067e-06
4.5794927e-06
4.4751186e-06
4.3724691e-06
4.2716661e-06
4.1728962e-06
4.0764489e-06
3.982791e-06
3.8927e-06
3.8075028e-06
3.7295259e-06
3.6628634e-06
3.61471e-06
3.5979213e-06
3.6357912e-06
3.7706801e-06
4.0784985e-06
4.6941452e-06
5.8559805e-06
7.984052e-06
1.1742125e-05
1.8135208e-05
2.8631769e-05
4.5391411e-05
7.1229152e-05
0.00010871204
0.00016064793
0.00023078343
0.00032134094
0.00042994142
0.00055209744
0.00068618229
0.00082869641
0.00097506077
0.0011174203
0.001258537
0.0013974135
0.0015328757
0.0016663016
0.0017951977
0.0019182053
0.0020351278
0.0021462208
0.0022491344
0.0023443747
0.0024326961
0.0025145
0.0025895338
0.0026583384
0.002721547
0.0027795061
0.0028326115
0.0028814055
0.002926136
0.0029670356
0.0030045292
0.003039022
0.0030707607
0.0030998778
0.0031265017
0.0031509613
0.0031734955
0.0031941492
0.003212887
0.0032313843
0.003239622
8.9435442e-06
8.8095195e-06
8.6754074e-06
8.5412745e-06
8.4071843e-06
8.2731988e-06
8.1393794e-06
8.0057865e-06
7.8724802e-06
7.7395203e-06
7.6069663e-06
7.4748775e-06
7.3433123e-06
7.2123287e-06
7.0819836e-06
6.952333e-06
6.8234316e-06
6.695333e-06
6.5680893e-06
6.4417514e-06
6.3163687e-06
6.1919889e-06
6.0686579e-06
5.9464198e-06
5.8253171e-06
5.7053906e-06
5.5866796e-06
5.4692214e-06
5.3530516e-06
5.2382038e-06
5.12471e-06
5.0126002e-06
4.9019031e-06
4.7926457e-06
4.6848538e-06
4.5785513e-06
4.4737614e-06
4.3705064e-06
4.2688093e-06
4.1686952e-06
4.0701937e-06
3.9733426e-06
3.878196e-06
3.7848382e-06
3.6934101e-06
3.6041558e-06
3.5175041e-06
3.4342252e-06
3.3557299e-06
3.2846449e-06
3.2258555e-06
3.1884016e-06
3.1891905e-06
3.2605625e-06
3.4633024e-06
3.9101886e-06
4.8087979e-06
6.5382075e-06
9.7510755e-06
1.5469546e-05
2.5206553e-05
4.1212071e-05
6.6410723e-05
0.00010387031
0.00015642842
0.0002280334
0.00031910374
0.00042887907
0.00055103642
0.00068332431
0.00082228056
0.0009640156
0.0011019867
0.0012383138
0.0013728149
0.001504675
0.0016346186
0.0017600719
0.0018799533
0.0019942303
0.0021025617
0.0022029005
0.0022961215
0.0023826408
0.0024623792
0.0025357111
0.0026032393
0.0026652714
0.0027220485
0.0027740902
0.0028218972
0.0028657953
0.0029060886
0.0029430103
0.0029768951
0.0030080863
0.0030367935
0.00306294
0.0030885799
0.0031028593
8.9436057e-06
8.8095885e-06
8.6754818e-06
8.5413524e-06
8.4072641e-06
8.273279e-06
8.139459e-06
8.0058647e-06
7.8725566e-06
7.7395946e-06
7.6070383e-06
7.474947e-06
7.3433793e-06
7.212393e-06
7.0820452e-06
6.9523918e-06
6.8234876e-06
6.695386e-06
6.5681394e-06
6.4417986e-06
6.316413e-06
6.1920302e-06
6.0686962e-06
5.9464552e-06
5.8253497e-06
5.7054204e-06
5.5867066e-06
5.4692454e-06
5.3530724e-06
5.2382209e-06
5.1247228e-06
5.0126077e-06
4.9019037e-06
4.7926372e-06
4.6848326e-06
4.5785123e-06
4.4736968e-06
4.3704049e-06
4.2686534e-06
4.1684578e-06
4.0698321e-06
3.9727891e-06
3.8773404e-06
3.7834977e-06
3.6912744e-06
3.600688e-06
3.5117655e-06
3.4245514e-06
3.3391259e-06
3.2556392e-06
3.1743764e-06
3.095876e-06
3.021164e-06
2.9522372e-06
2.8929888e-06
2.8509537e-06
2.8407606e-06
2.8912914e-06
3.0597117e-06
3.4570439e-06
4.2953442e-06
5.9753631e-06
9.2063607e-06
1.5151261e-05
2.5539432e-05
4.2980612e-05
7.0592372e-05
0.00011185611
0.00016989913
0.00024771855
0.00034439601
0.00045875065
0.00058365051
0.00071576604
0.00085223092
0.00098953295
0.0011229822
0.0012552159
0.0013855
0.0015141768
0.0016401209
0.0017613663
0.0018773205
0.0019880022
0.0020916169
0.0021879968
0.0022776311
0.0023606347
0.0024370655
0.0025074011
0.0025720837
0.0026314407
0.0026859459
0.0027359524
0.0027817813
0.0028238753
0.0028626258
0.0028979615
0.0029323419
0.0029543484
8.94367e-06
8.8096603e-06
8.6755593e-06
8.5414335e-06
8.4073472e-06
8.2733629e-06
8.1395424e-06
8.005947e-06
7.8726371e-06
7.739673e-06
7.6071144e-06
7.4750206e-06
7.3434503e-06
7.2124613e-06
7.0821106e-06
6.9524543e-06
6.8235472e-06
6.6954427e-06
6.5681932e-06
6.4418494e-06
6.3164608e-06
6.1920751e-06
6.0687383e-06
5.9464945e-06
5.8253863e-06
5.7054544e-06
5.5867381e-06
5.4692746e-06
5.3530993e-06
5.2382458e-06
5.1247456e-06
5.0126287e-06
4.9019229e-06
4.7926545e-06
4.684848e-06
4.5785256e-06
4.4737077e-06
4.3704127e-06
4.2686573e-06
4.1684562e-06
4.0698227e-06
3.9727679e-06
3.8773012e-06
3.7834301e-06
3.6911607e-06
3.6004978e-06
3.5114455e-06
3.4240068e-06
3.3381854e-06
3.2539873e-06
3.1714253e-06
3.0905254e-06
3.0113406e-06
2.93398e-06
2.8586665e-06
2.785848e-06
2.7164187e-06
2.6521852e-06
2.5968303e-06
2.5578202e-06
2.5502399e-06
2.605032e-06
2.7857408e-06
3.2215019e-06
4.1678771e-06
6.1227705e-06
9.9711747e-06
1.7180286e-05
2.9963031e-05
5.1401759e-05
8.4939888e-05
0.00013438577
0.00020335226
0.0002911481
0.0003969979
0.00051759576
0.00064505312
0.00077694357
0.00091104349
0.0010433753
0.0011727611
0.0013011477
0.0014278422
0.0015529973
0.0016743024
0.0017906828
0.0019020706
0.002007403
0.0021054816
0.002196766
0.0022814876
0.0023596356
0.0024316665
0.0024979555
0.0025587743
0.0026146108
0.0026659765
0.0027128406
0.002758051
0.0027900408
8.9437367e-06
8.8097345e-06
8.6756391e-06
8.5415173e-06
8.4074332e-06
8.2734497e-06
8.139629e-06
8.0060325e-06
7.8727211e-06
7.7397549e-06
7.6071941e-06
7.4750978e-06
7.3435248e-06
7.212533e-06
7.0821795e-06
6.9525203e-06
6.8236101e-06
6.6955026e-06
6.5682501e-06
6.4419033e-06
6.3165116e-06
6.1921229e-06
6.0687831e-06
5.9465364e-06
5.8254253e-06
5.7054908e-06
5.5867719e-06
5.469306e-06
5.3531284e-06
5.2382728e-06
5.1247706e-06
5.0126519e-06
4.9019444e-06
4.7926746e-06
4.6848666e-06
4.5785429e-06
4.4737237e-06
4.3704276e-06
4.2686711e-06
4.1684689e-06
4.0698341e-06
3.9727779e-06
3.8773095e-06
3.7834362e-06
3.6911636e-06
3.600496e-06
3.5114359e-06
3.4239844e-06
3.3381407e-06
3.253903e-06
3.1712686e-06
3.0902343e-06
3.0107968e-06
2.932955e-06
2.8567128e-06
2.7820868e-06
2.7091186e-06
2.6379037e-06
2.5686518e-06
2.5018087e-06
2.4383076e-06
2.3801139e-06
2.331398e-06
2.3009874e-06
2.3074967e-06
2.3908875e-06
2.6362443e-06
3.2229917e-06
4.5191017e-06
7.2338201e-06
1.2615949e-05
2.269206e-05
4.050597e-05
6.953787e-05
0.00011357681
0.00017698405
0.000259753
0.00036064263
0.00047714929
0.00060219152
0.00073078174
0.00086159513
0.00099218331
0.0011195762
0.0012455523
0.0013700412
0.0014937459
0.0016142486
0.0017301818
0.0018413473
0.0019469533
0.0020453804
0.0021371155
0.0022223948
0.0023011126
0.0023736622
0.0024405588
0.0025017276
0.0025602828
0.0026049914
8.9438056e-06
8.8098106e-06
8.675721e-06
8.5416031e-06
8.4075214e-06
8.273539e-06
8.1397183e-06
8.0061209e-06
7.8728079e-06
7.7398399e-06
7.6072768e-06
7.475178e-06
7.3436024e-06
7.2126078e-06
7.0822514e-06
6.9525892e-06
6.823676e-06
6.6955654e-06
6.5683098e-06
6.4419598e-06
6.3165651e-06
6.1921732e-06
6.0688303e-06
5.9465806e-06
5.8254667e-06
5.7055294e-06
5.5868079e-06
5.4693395e-06
5.3531596e-06
5.2383017e-06
5.1247976e-06
5.0126769e-06
4.9019678e-06
4.7926964e-06
4.6848869e-06
4.5785619e-06
4.4737415e-06
4.3704442e-06
4.2686866e-06
4.1684834e-06
4.0698478e-06
3.9727907e-06
3.8773214e-06
3.7834472e-06
3.6911738e-06
3.6005054e-06
3.5114443e-06
3.4239915e-06
3.3381461e-06
3.2539058e-06
3.1712671e-06
3.0902251e-06
3.0107736e-06
2.9329051e-06
2.8566114e-06
2.7818841e-06
2.7087149e-06
2.6370978e-06
2.5670322e-06
2.4985311e-06
2.4316359e-06
2.3664501e-06
2.3032143e-06
2.2424646e-06
2.1853728e-06
2.1345267e-06
2.0956517e-06
2.0813798e-06
2.1197257e-06
2.272982e-06
2.6783177e-06
3.6327978e-06
5.7520778e-06
1.01758e-05
1.8815282e-05
3.4733623e-05
6.1594702e-05
0.00010328393
0.00016430561
0.0002451694
0.00034411389
0.00045832956
0.00058206859
0.00070849242
0.00083653231
0.00096488085
0.0010902717
0.0012137953
0.0013362124
0.0014581906
0.0015772891
0.0016920716
0.0018022666
0.0019070654
0.0020048132
0.0020959534
0.0021808111
0.0022588933
0.0023333602
0.0023938389
8.9438763e-06
8.8098885e-06
8.6758046e-06
8.5416907e-06
8.4076116e-06
8.2736304e-06
8.1398098e-06
8.0062117e-06
7.8728974e-06
7.7399275e-06
7.6073622e-06
7.475261e-06
7.3436827e-06
7.2126853e-06
7.082326e-06
6.9526608e-06
6.8237445e-06
6.6956308e-06
6.5683719e-06
6.4420189e-06
6.3166209e-06
6.1922259e-06
6.0688798e-06
5.9466271e-06
5.8255102e-06
5.7055701e-06
5.5868459e-06
5.4693749e-06
5.3531926e-06
5.2383324e-06
5.1248261e-06
5.0127036e-06
4.9019926e-06
4.7927196e-06
4.6849086e-06
4.5785821e-06
4.4737604e-06
4.3704619e-06
4.2687032e-06
4.1684991e-06
4.0698624e-06
3.9728045e-06
3.8773343e-06
3.7834594e-06
3.6911852e-06
3.600516e-06
3.5114543e-06
3.4240008e-06
3.3381547e-06
3.2539138e-06
3.1712743e-06
3.0902315e-06
3.0107788e-06
2.9329084e-06
2.8566116e-06
2.7818785e-06
2.7086981e-06
2.6370586e-06
2.5669474e-06
2.4983522e-06
2.4312613e-06
2.3656658e-06
2.3015641e-06
2.2389721e-06
2.1779438e-06
2.1186209e-06
2.0613439e-06
2.0069002e-06
1.9570946e-06
1.9160833e-06
1.8934267e-06
1.9111332e-06
2.0204566e-06
2.3390717e-06
3.1314566e-06
4.9776669e-06
9.0029627e-06
1.7150056e-05
3.2594701e-05
5.9249355e-05
0.00010117192
0.00016289643
0.00024463736
0.00034421019
0.00045807962
0.00058115299
0.00070593374
0.0008315883
0.00095748956
0.0010807078
0.0012019685
0.0013225632
0.0014426595
0.0015599122
0.0016730549
0.001781688
0.0018848845
0.0019808866
0.0020729232
0.0021518824
8.9439487e-06
8.8099678e-06
8.6758896e-06
8.5417798e-06
8.4077033e-06
8.2737235e-06
8.1399032e-06
8.0063046e-06
7.872989e-06
7.7400174e-06
7.60745e-06
7.4753464e-06
7.3437655e-06
7.2127653e-06
7.0824031e-06
6.9527348e-06
6.8238154e-06
6.6956985e-06
6.5684364e-06
6.4420801e-06
6.3166789e-06
6.1922806e-06
6.0689314e-06
5.9466755e-06
5.8255556e-06
5.7056126e-06
5.5868856e-06
5.469412e-06
5.3532272e-06
5.2383647e-06
5.1248562e-06
5.0127316e-06
4.9020188e-06
4.792744e-06
4.6849315e-06
4.5786035e-06
4.4737805e-06
4.3704808e-06
4.2687209e-06
4.1685157e-06
4.0698781e-06
3.9728191e-06
3.8773481e-06
3.7834723e-06
3.6911974e-06
3.6005275e-06
3.511465e-06
3.4240109e-06
3.3381642e-06
3.2539226e-06
3.1712826e-06
3.0902391e-06
3.0107859e-06
2.932915e-06
2.8566176e-06
2.7818837e-06
2.7087024e-06
2.6370613e-06
2.5669473e-06
2.4983467e-06
2.4312448e-06
2.3656261e-06
2.3014751e-06
2.2387766e-06
2.1775169e-06
2.1176871e-06
2.0592895e-06
2.0023539e-06
1.9469727e-06
1.8933875e-06
1.8421913e-06
1.7948003e-06
1.7546188e-06
1.7298195e-06
1.739892e-06
1.8321686e-06
2.1199103e-06
2.8675693e-06
4.6760169e-06
8.7515079e-06
1.7215955e-05
3.3525605e-05
6.1871818e-05
0.00010652909
0.00017150894
0.00025669994
0.0003589505
0.00047382587
0.00059643425
0.0007197698
0.000843358
0.0009667792
0.0010877838
0.0012069302
0.0013259456
0.0014440438
0.0015592185
0.0016701509
0.001779007
0.0018772198
8.9440227e-06
8.8100485e-06
8.6759758e-06
8.5418702e-06
8.4077964e-06
8.2738181e-06
8.1399983e-06
8.0063992e-06
7.8730826e-06
7.7401093e-06
7.6075399e-06
7.4754339e-06
7.3438504e-06
7.2128475e-06
7.0824823e-06
6.952811e-06
6.8238884e-06
6.6957683e-06
6.568503e-06
6.4421434e-06
6.3167389e-06
6.1923373e-06
6.0689848e-06
5.9467258e-06
5.8256028e-06
5.7056568e-06
5.586927e-06
5.4694507e-06
5.3532633e-06
5.2383984e-06
5.1248877e-06
5.012761e-06
4.9020463e-06
4.7927697e-06
4.6849556e-06
4.5786261e-06
4.4738016e-06
4.3705006e-06
4.2687395e-06
4.1685332e-06
4.0698945e-06
3.9728346e-06
3.8773626e-06
3.7834859e-06
3.6912102e-06
3.6005395e-06
3.5114764e-06
3.4240215e-06
3.3381741e-06
3.2539319e-06
3.1712913e-06
3.0902473e-06
3.0107935e-06
2.9329221e-06
2.8566241e-06
2.7818898e-06
2.708708e-06
2.6370664e-06
2.566952e-06
2.4983507e-06
2.4312479e-06
2.3656277e-06
2.3014737e-06
2.238769e-06
2.1774962e-06
2.1176373e-06
2.0591746e-06
2.0020919e-06
1.9463757e-06
1.8920215e-06
1.8390462e-06
1.7875179e-06
1.7376309e-06
1.6898907e-06
1.6455571e-06
1.6077835e-06
1.5844562e-06
1.5951379e-06
1.6891487e-06
1.9892168e-06
2.7923576e-06
4.7881448e-06
9.3801712e-06
1.9052772e-05
3.7672653e-05
6.9751931e-05
0.00011978328
0.00019052677
0.00028109951
0.00038725242
0.00050370868
0.00062565968
0.0007475192
0.0008692239
0.00099020011
0.0011089677
0.0012262528
0.001343666
0.0014618691
0.0015740949
8.9440982e-06
8.8101305e-06
8.6760631e-06
8.5419616e-06
8.4078907e-06
8.273914e-06
8.1400948e-06
8.0064955e-06
7.8731779e-06
7.7402031e-06
7.6076317e-06
7.4755235e-06
7.3439374e-06
7.2129317e-06
7.0825636e-06
6.9528892e-06
6.8239634e-06
6.6958401e-06
6.5685715e-06
6.4422085e-06
6.3168007e-06
6.1923958e-06
6.06904e-06
5.9467777e-06
5.8256516e-06
5.7057026e-06
5.5869699e-06
5.4694908e-06
5.3533008e-06
5.2384334e-06
5.1249204e-06
5.0127916e-06
4.9020749e-06
4.7927965e-06
4.6849806e-06
4.5786496e-06
4.4738236e-06
4.3705212e-06
4.2687589e-06
4.1685514e-06
4.0699117e-06
3.9728508e-06
3.8773778e-06
3.7835002e-06
3.6912237e-06
3.6005522e-06
3.5114882e-06
3.4240326e-06
3.3381846e-06
3.2539417e-06
3.1713005e-06
3.0902559e-06
3.0108015e-06
2.9329295e-06
2.8566311e-06
2.7818963e-06
2.708714e-06
2.637072e-06
2.5669571e-06
2.4983555e-06
2.4312522e-06
2.3656316e-06
2.3014772e-06
2.2387719e-06
2.1774981e-06
2.1176373e-06
2.0591709e-06
2.0020796e-06
1.9463441e-06
1.891945e-06
1.8388639e-06
1.7870855e-06
1.7366014e-06
1.6874225e-06
1.6396073e-06
1.593335e-06
1.5490958e-06
1.5081636e-06
1.4738535e-06
1.4547886e-06
1.473227e-06
1.5873714e-06
1.9473122e-06
2.9281536e-06
5.4032124e-06
1.1128757e-05
2.3180073e-05
4.5915776e-05
8.4109386e-05
0.00014227995
0.00022084278
0.00031793075
0.00042808086
0.00054605347
0.00066698608
0.00078726051
0.00090732337
0.0010256092
0.0011444784
0.0012604675
8.9441751e-06
8.8102135e-06
8.6761514e-06
8.542054e-06
8.4079859e-06
8.2740111e-06
8.1401926e-06
8.0065932e-06
7.8732747e-06
7.7402985e-06
7.6077253e-06
7.4756148e-06
7.3440262e-06
7.2130178e-06
7.0826467e-06
6.9529692e-06
6.8240403e-06
6.6959137e-06
6.5686417e-06
6.4422754e-06
6.3168643e-06
6.192456e-06
6.0690969e-06
5.9468313e-06
5.825702e-06
5.7057499e-06
5.5870142e-06
5.4695323e-06
5.3533396e-06
5.2384697e-06
5.1249543e-06
5.0128233e-06
4.9021046e-06
4.7928243e-06
4.6850067e-06
4.578674e-06
4.4738465e-06
4.3705427e-06
4.2687791e-06
4.1685704e-06
4.0699296e-06
3.9728676e-06
3.8773936e-06
3.7835151e-06
3.6912377e-06
3.6005653e-06
3.5115006e-06
3.4240442e-06
3.3381955e-06
3.2539519e-06
3.1713101e-06
3.0902648e-06
3.0108098e-06
2.9329373e-06
2.8566383e-06
2.781903e-06
2.7087202e-06
2.6370778e-06
2.5669625e-06
2.4983604e-06
2.4312568e-06
2.3656358e-06
2.301481e-06
2.2387754e-06
2.1775013e-06
2.1176402e-06
2.0591732e-06
2.0020813e-06
1.9463445e-06
1.8919427e-06
1.8388555e-06
1.7870625e-06
1.7365432e-06
1.6872782e-06
1.6392509e-06
1.5924516e-06
1.5468901e-06
1.5026261e-06
1.4598509e-06
1.4191071e-06
1.3818606e-06
1.3520759e-06
1.340468e-06
1.3758605e-06
1.53617e-06
2.0282465e-06
3.3800328e-06
6.7935061e-06
1.4603442e-05
3.0713679e-05
5.9879139e-05
0.00010705585
0.00017513207
0.00026300844
0.00036689217
0.0004805126
0.00059971255
0.00071885064
0.00083980566
0.00095731732
8.9442532e-06
8.8102976e-06
8.6762406e-06
8.5421473e-06
8.4080821e-06
8.2741091e-06
8.1402915e-06
8.006692e-06
7.8733728e-06
7.7403954e-06
7.6078204e-06
7.4757077e-06
7.3441167e-06
7.2131055e-06
7.0827316e-06
6.953051e-06
6.8241189e-06
6.695989e-06
6.5687137e-06
6.442344e-06
6.3169294e-06
6.1925177e-06
6.0691552e-06
5.9468863e-06
5.8257538e-06
5.7057986e-06
5.5870599e-06
5.469575e-06
5.3533796e-06
5.2385071e-06
5.1249893e-06
5.0128561e-06
4.9021353e-06
4.7928531e-06
4.6850336e-06
4.5786992e-06
4.4738702e-06
4.370565e-06
4.2688001e-06
4.1685901e-06
4.0699481e-06
3.972885e-06
3.87741e-06
3.7835305e-06
3.6912521e-06
3.600579e-06
3.5115134e-06
3.4240563e-06
3.3382067e-06
3.2539625e-06
3.17132e-06
3.0902741e-06
3.0108185e-06
2.9329454e-06
2.8566459e-06
2.78191e-06
2.7087267e-06
2.6370838e-06
2.566968e-06
2.4983656e-06
2.4312615e-06
2.3656402e-06
2.301485e-06
2.2387791e-06
2.1775046e-06
2.1176432e-06
2.059176e-06
2.0020838e-06
1.9463467e-06
1.8919446e-06
1.8388568e-06
1.7870629e-06
1.7365414e-06
1.6872714e-06
1.6392316e-06
1.592401e-06
1.5467597e-06
1.5022908e-06
1.4589854e-06
1.4168567e-06
1.3759772e-06
1.3365826e-06
1.2993602e-06
1.266237e-06
1.2426178e-06
1.2436324e-06
1.3116981e-06
1.5648518e-06
2.3233433e-06
4.4003547e-06
9.5482629e-06
2.1005989e-05
4.3455442e-05
8.1952819e-05
0.00014100681
0.00022052777
0.00031820649
0.00042753214
0.00054593635
0.00066446954
8.9443326e-06
8.8103827e-06
8.6763307e-06
8.5422413e-06
8.408179e-06
8.2742079e-06
8.1403912e-06
8.0067919e-06
7.8734722e-06
7.7404935e-06
7.6079168e-06
7.4758021e-06
7.3442087e-06
7.2131949e-06
7.082818e-06
6.9531344e-06
6.8241991e-06
6.6960659e-06
6.5687872e-06
6.4424141e-06
6.3169961e-06
6.192581e-06
6.069215e-06
5.9469428e-06
5.8258069e-06
5.7058485e-06
5.5871068e-06
5.469619e-06
5.3534208e-06
5.2385457e-06
5.1250254e-06
5.0128898e-06
4.9021669e-06
4.7928827e-06
4.6850614e-06
4.5787253e-06
4.4738947e-06
4.370588e-06
4.2688217e-06
4.1686104e-06
4.0699672e-06
3.972903e-06
3.8774269e-06
3.7835464e-06
3.6912671e-06
3.600593e-06
3.5115266e-06
3.4240687e-06
3.3382184e-06
3.2539734e-06
3.1713302e-06
3.0902836e-06
3.0108274e-06
2.9329537e-06
2.8566536e-06
2.7819172e-06
2.7087334e-06
2.63709e-06
2.5669738e-06
2.4983709e-06
2.4312664e-06
2.3656447e-06
2.3014892e-06
2.2387829e-06
2.1775081e-06