/*--------------------------------*- C++ -*----------------------------------*\
  =========                 |
  \\      /  F ield         | OpenFOAM: The Open Source CFD Toolbox
   \\    /   O peration     | Website:  https://openfoam.org
    \\  /    A nd           | Version:  12
     \\/     M anipulation  |
\*---------------------------------------------------------------------------*/
FoamFile
{
    format      ascii;
    class       volScalarField;
    location    "1500";
    object      nut;
}
// * * * * * * * * * * * * * * * * * * * * * * * * * * * * * * * * * * * * * //

dimensions      [0 2 -1 0 0 0 0];

internalField   nonuniform List<scalar> 
7480
(
8.0754796e-08
4.2960261e-08
3.1055455e-08
2.8364624e-08
3.1794348e-06
5.3315357e-06
6.3338063e-06
6.9862455e-06
7.39917e-06
7.6472574e-06
7.4894045e-06
7.2192879e-06
6.8979936e-06
6.557486e-06
6.2182132e-06
5.8930939e-06
5.5905265e-06
5.3200063e-06
5.0762561e-06
4.8645066e-06
4.6803192e-06
4.5210293e-06
4.3859616e-06
4.2746045e-06
4.1861317e-06
4.119917e-06
4.0748759e-06
4.0495194e-06
4.0421414e-06
4.0508616e-06
4.0736329e-06
4.1083538e-06
4.1529711e-06
4.2076825e-06
4.2711381e-06
4.3412973e-06
4.4158232e-06
4.4924019e-06
4.5696429e-06
4.6465341e-06
4.7219605e-06
4.7948112e-06
4.8642105e-06
4.9294449e-06
4.98995e-06
5.0454009e-06
5.0952838e-06
5.1411878e-06
5.1827379e-06
5.2191981e-06
5.2501294e-06
5.275439e-06
5.2954476e-06
5.3109105e-06
5.322648e-06
5.3314937e-06
5.3383896e-06
5.3438516e-06
5.3481596e-06
5.3513954e-06
5.3534934e-06
5.3545274e-06
5.3547536e-06
5.3543683e-06
5.3534209e-06
5.3520207e-06
5.3504725e-06
5.3487985e-06
5.3468488e-06
5.3445726e-06
5.3419365e-06
5.3388384e-06
5.3353596e-06
5.3316221e-06
5.3276067e-06
5.323365e-06
5.3189759e-06
5.3143118e-06
5.3093227e-06
5.3041113e-06
5.2986425e-06
5.292955e-06
5.2871561e-06
5.2811707e-06
5.2749653e-06
5.2685889e-06
5.2620286e-06
5.2553189e-06
5.2484724e-06
5.2414913e-06
5.2343816e-06
5.2271142e-06
5.2197116e-06
5.2122015e-06
5.2045018e-06
5.1967678e-06
5.1889097e-06
5.1803443e-06
5.1684721e-06
5.1776458e-06
1.6699855e-07
1.6479304e-07
1.6275578e-07
1.6152401e-07
7.8952154e-07
2.0014117e-06
3.2199313e-06
4.1000704e-06
4.6102264e-06
4.8536922e-06
4.9291639e-06
4.9200191e-06
4.9202462e-06
4.967264e-06
5.0575278e-06
5.193702e-06
5.4000937e-06
5.7434753e-06
5.8737888e-06
6.1613393e-06
6.4632355e-06
6.781933e-06
7.1155571e-06
7.4621204e-06
7.8193848e-06
8.187519e-06
8.5617764e-06
8.9378399e-06
9.3126744e-06
9.6838787e-06
1.004974e-05
1.0409597e-05
1.0764437e-05
1.1116888e-05
1.1464009e-05
1.1800516e-05
1.2120603e-05
1.2422169e-05
1.2708291e-05
1.2978505e-05
1.3231761e-05
1.3467491e-05
1.3684929e-05
1.3883342e-05
1.4063242e-05
1.4225436e-05
1.4370817e-05
1.4498983e-05
1.4609896e-05
1.4704789e-05
1.4785475e-05
1.4853897e-05
1.491211e-05
1.4962373e-05
1.500649e-05
1.5046452e-05
1.5083797e-05
1.5118066e-05
1.5149249e-05
1.5177568e-05
1.5203242e-05
1.5226705e-05
1.5248437e-05
1.5268632e-05
1.5287268e-05
1.5304437e-05
1.5320357e-05
1.5334572e-05
1.5346772e-05
1.5357101e-05
1.5365753e-05
1.5372801e-05
1.5378551e-05
1.5383179e-05
1.5386486e-05
1.5388395e-05
1.5388916e-05
1.5387944e-05
1.5385687e-05
1.538246e-05
1.537827e-05
1.5373146e-05
1.5367047e-05
1.5359786e-05
1.5351483e-05
1.5342352e-05
1.5332487e-05
1.5321931e-05
1.5310569e-05
1.5298389e-05
1.5285471e-05
1.5271902e-05
1.5257798e-05
1.524312e-05
1.5227664e-05
1.5211883e-05
1.5195227e-05
1.517744e-05
1.5157301e-05
1.5154073e-05
1.6882499e-07
1.6856652e-07
1.6827216e-07
1.6795702e-07
1.79985e-07
2.3387146e-07
3.7066152e-07
6.1993987e-07
9.7979418e-07
1.4139698e-06
1.8590262e-06
2.2551401e-06
2.5711499e-06
2.8049363e-06
2.9700332e-06
3.0862792e-06
3.1760848e-06
3.2764379e-06
3.4092225e-06
3.5801732e-06
3.7897928e-06
4.0379676e-06
4.3259898e-06
4.6573644e-06
5.0375087e-06
5.4517192e-06
5.908682e-06
6.4112304e-06
6.9626197e-06
7.5669457e-06
8.2300899e-06
8.961866e-06
9.7491091e-06
1.0441519e-05
1.1159147e-05
1.1897352e-05
1.264454e-05
1.3390947e-05
1.4133882e-05
1.4866979e-05
1.5587516e-05
1.629282e-05
1.6970315e-05
1.7614498e-05
1.8230704e-05
1.8817264e-05
1.93745e-05
1.9795229e-05
2.0168133e-05
2.0510628e-05
2.0826887e-05
2.1119937e-05
2.1392599e-05
2.1648052e-05
2.1888903e-05
2.2115084e-05
2.2325384e-05
2.2520992e-05
2.2703912e-05
2.2876121e-05
2.3038977e-05
2.3193494e-05
2.3340302e-05
2.3479758e-05
2.3612235e-05
2.3737968e-05
2.3855876e-05
2.3965821e-05
2.4068508e-05
2.4164894e-05
2.4255624e-05
2.4340994e-05
2.4421492e-05
2.4497416e-05
2.456791e-05
2.4632833e-05
2.4692627e-05
2.474769e-05
2.4798708e-05
2.4846147e-05
2.48901e-05
2.493029e-05
2.4966448e-05
2.4998643e-05
2.5027482e-05
2.5053408e-05
2.5076683e-05
2.5097182e-05
2.511456e-05
2.5129008e-05
2.5140894e-05
2.5150531e-05
2.5158112e-05
2.5163321e-05
2.5166051e-05
2.5166812e-05
2.5165934e-05
2.5159493e-05
2.5161604e-05
2.511741e-05
1.6885092e-07
1.6864765e-07
1.6843956e-07
1.6822689e-07
1.6818697e-07
1.6896547e-07
1.7200448e-07
1.7977399e-07
1.9582171e-07
2.2501169e-07
2.7252107e-07
3.4287714e-07
4.3897964e-07
5.6140265e-07
7.0817528e-07
8.7496458e-07
1.0557645e-06
1.2452682e-06
1.4385561e-06
1.6317242e-06
1.8219118e-06
2.0080653e-06
2.1905458e-06
2.3709995e-06
2.5526807e-06
2.7515924e-06
2.97135e-06
3.2171186e-06
3.4959221e-06
3.8170441e-06
4.1928058e-06
4.6394663e-06
5.1787726e-06
5.7986423e-06
6.5088601e-06
7.3170111e-06
8.2236624e-06
9.2226307e-06
1.0049987e-05
1.0924413e-05
1.183995e-05
1.2790966e-05
1.3770298e-05
1.4770372e-05
1.5777342e-05
1.6778584e-05
1.7768231e-05
1.8737492e-05
1.9673886e-05
2.0577685e-05
2.1449672e-05
2.2286222e-05
2.3084698e-05
2.3843233e-05
2.456424e-05
2.5198303e-05
2.5728652e-05
2.6228851e-05
2.670401e-05
2.7157647e-05
2.759143e-05
2.8006537e-05
2.8404106e-05
2.8785379e-05
2.9151427e-05
2.950209e-05
2.9834491e-05
3.0149417e-05
3.0448627e-05
3.07338e-05
3.1006004e-05
3.12658e-05
3.1514041e-05
3.1751398e-05
3.1976508e-05
3.2189336e-05
3.2390839e-05
3.2581808e-05
3.2763197e-05
3.2935739e-05
3.3099741e-05
3.3254641e-05
3.3400311e-05
3.3537193e-05
3.3666202e-05
3.378804e-05
3.3903154e-05
3.401126e-05
3.4112019e-05
3.4205937e-05
3.4293687e-05
3.437578e-05
3.4452453e-05
3.452327e-05
3.4588152e-05
3.4648293e-05
3.4703436e-05
3.4750414e-05
3.4799349e-05
3.4801285e-05
1.6885091e-07
1.6864881e-07
1.6844344e-07
1.68235e-07
1.6802596e-07
1.6782788e-07
1.6767385e-07
1.6763636e-07
1.6784747e-07
1.6852886e-07
1.7001425e-07
1.7276999e-07
1.774052e-07
1.8467652e-07
1.9549422e-07
2.1091907e-07
2.3215764e-07
2.6056958e-07
2.9767693e-07
3.4508185e-07
4.0434516e-07
4.7703229e-07
5.646996e-07
6.6880704e-07
7.9073744e-07
9.3170921e-07
1.0920365e-06
1.2711833e-06
1.4680036e-06
1.6810707e-06
1.9091733e-06
2.1522006e-06
2.4111395e-06
2.7048991e-06
3.0418813e-06
3.4340904e-06
3.8967862e-06
4.4486898e-06
5.1204544e-06
5.8938784e-06
6.7769431e-06
7.7760476e-06
8.8968711e-06
9.8759053e-06
1.0795348e-05
1.1789313e-05
1.2840816e-05
1.3945109e-05
1.5095313e-05
1.62814e-05
1.747887e-05
1.8671581e-05
1.9852467e-05
2.101662e-05
2.2173114e-05
2.3311842e-05
2.4419874e-05
2.5488335e-05
2.6510572e-05
2.7490228e-05
2.8432421e-05
2.9342389e-05
3.0222285e-05
3.1070776e-05
3.1885287e-05
3.2646284e-05
3.3283959e-05
3.3893536e-05
3.4478557e-05
3.5040925e-05
3.5581693e-05
3.6101712e-05
3.660231e-05
3.7084384e-05
3.7544627e-05
3.7983199e-05
3.8402062e-05
3.8802675e-05
3.9186306e-05
3.9553983e-05
3.9906318e-05
4.0242222e-05
4.056173e-05
4.0865775e-05
4.1155594e-05
4.1432175e-05
4.1696196e-05
4.194715e-05
4.218483e-05
4.2410144e-05
4.2624067e-05
4.2827324e-05
4.3020171e-05
4.3202072e-05
4.3373163e-05
4.3535266e-05
4.3687631e-05
4.382814e-05
4.3962099e-05
4.4045852e-05
1.6885054e-07
1.6864852e-07
1.6844335e-07
1.682351e-07
1.6802387e-07
1.6780987e-07
1.6759378e-07
1.6737735e-07
1.6716434e-07
1.6696204e-07
1.6678328e-07
1.6664905e-07
1.6659147e-07
1.6665712e-07
1.6691092e-07
1.6744037e-07
1.6836063e-07
1.6982121e-07
1.7201616e-07
1.7519299e-07
1.7965687e-07
1.8578904e-07
1.9407552e-07
2.0513713e-07
2.1979644e-07
2.39134e-07
2.6451599e-07
2.9766775e-07
3.4078292e-07
3.9663182e-07
4.686471e-07
5.6110913e-07
6.789327e-07
8.275773e-07
1.0123639e-06
1.2380869e-06
1.508253e-06
1.8239522e-06
2.1824239e-06
2.5773488e-06
3.0271801e-06
3.5420915e-06
4.1404404e-06
4.8350265e-06
5.6785234e-06
6.6480543e-06
7.7518302e-06
8.990514e-06
1.0304385e-05
1.1260178e-05
1.2309313e-05
1.3434692e-05
1.462767e-05
1.5879988e-05
1.7190125e-05
1.8535116e-05
1.9894587e-05
2.1253697e-05
2.2601081e-05
2.3963859e-05
2.5324069e-05
2.6670977e-05
2.7991848e-05
2.9278195e-05
3.0534425e-05
3.1762351e-05
3.2953284e-05
3.4103756e-05
3.520773e-05
3.6267732e-05
3.7290141e-05
3.8281268e-05
3.9239244e-05
4.0164606e-05
4.0960894e-05
4.1697127e-05
4.2405421e-05
4.3087584e-05
4.3744836e-05
4.4378374e-05
4.4989123e-05
4.5574074e-05
4.6133455e-05
4.6669189e-05
4.7183025e-05
4.7676269e-05
4.8149832e-05
4.8602707e-05
4.9034785e-05
4.9447446e-05
4.9842002e-05
5.0219442e-05
5.0580013e-05
5.0923028e-05
5.1248992e-05
5.1560252e-05
5.1855702e-05
5.2134337e-05
5.2396908e-05
5.2603688e-05
1.6885022e-07
1.6864815e-07
1.6844296e-07
1.6823471e-07
1.6802347e-07
1.6780928e-07
1.6759217e-07
1.673722e-07
1.6714947e-07
1.6692418e-07
1.6669676e-07
1.6646793e-07
1.6623901e-07
1.6601212e-07
1.6579049e-07
1.6557896e-07
1.6538448e-07
1.6521684e-07
1.6508961e-07
1.6502123e-07
1.6503595e-07
1.6516542e-07
1.6545122e-07
1.6594794e-07
1.667289e-07
1.6789344e-07
1.6957412e-07
1.7194983e-07
1.752664e-07
1.7986649e-07
1.8623294e-07
1.9506912e-07
2.0740805e-07
2.2475102e-07
2.4927091e-07
2.8415119e-07
3.340608e-07
4.057257e-07
5.0858336e-07
6.5401464e-07
8.5471334e-07
1.1225578e-06
1.4654801e-06
1.880156e-06
2.3509036e-06
2.8754632e-06
3.4691678e-06
4.1467309e-06
4.94236e-06
5.8960427e-06
6.9899208e-06
8.2365179e-06
9.6368319e-06
1.117877e-05
1.2324692e-05
1.3447026e-05
1.4658213e-05
1.5950749e-05
1.7316183e-05
1.8758814e-05
2.0247934e-05
2.1757123e-05
2.3270507e-05
2.4793573e-05
2.6355899e-05
2.7929695e-05
2.9503387e-05
3.1052181e-05
3.2578206e-05
3.4080794e-05
3.555953e-05
3.7009281e-05
3.8418609e-05
3.9788036e-05
4.1111612e-05
4.2389398e-05
4.3618792e-05
4.4800124e-05
4.5938827e-05
4.7040166e-05
4.810811e-05
4.9041121e-05
4.9901959e-05
5.0731339e-05
5.1531215e-05
5.2302882e-05
5.3047382e-05
5.376203e-05
5.444675e-05
5.5103881e-05
5.5735228e-05
5.6342066e-05
5.6924465e-05
5.7481268e-05
5.8013542e-05
5.8524088e-05
5.9011686e-05
5.9476225e-05
5.9914911e-05
6.0289767e-05
1.6884998e-07
1.6864786e-07
1.6844266e-07
1.6823442e-07
1.680232e-07
1.6780903e-07
1.6759193e-07
1.6737191e-07
1.6714897e-07
1.6692315e-07
1.6669447e-07
1.6646298e-07
1.6622872e-07
1.6599182e-07
1.6575241e-07
1.6551074e-07
1.6526716e-07
1.650222e-07
1.6477665e-07
1.6453162e-07
1.6428867e-07
1.6404992e-07
1.6381828e-07
1.6359764e-07
1.6339334e-07
1.6321265e-07
1.630654e-07
1.6296496e-07
1.629297e-07
1.6298531e-07
1.6316795e-07
1.6353019e-07
1.6414981e-07
1.6514196e-07
1.6667877e-07
1.6902344e-07
1.7258757e-07
1.7802517e-07
1.8641229e-07
1.9950555e-07
2.2011073e-07
2.5272672e-07
3.0450336e-07
3.8631013e-07
5.1350585e-07
7.0504304e-07
9.8101277e-07
1.356502e-06
1.8328886e-06
2.384442e-06
3.001051e-06
3.6958278e-06
4.4870626e-06
5.4552122e-06
6.5846092e-06
7.8711633e-06
9.327988e-06
1.0952307e-05
1.2719061e-05
1.3969837e-05
1.5211807e-05
1.6548249e-05
1.7971001e-05
1.9480202e-05
2.1073608e-05
2.271257e-05
2.4377538e-05
2.6051245e-05
2.7804091e-05
2.9589721e-05
3.1385362e-05
3.3162804e-05
3.4927699e-05
3.6682537e-05
3.84314e-05
4.015921e-05
4.1845683e-05
4.3488827e-05
4.5094124e-05
4.6660145e-05
4.8181843e-05
4.9645244e-05
5.1050948e-05
5.2404418e-05
5.3707549e-05
5.4963623e-05
5.6180982e-05
5.7262686e-05
5.8254958e-05
5.9211908e-05
6.0135567e-05
6.1027227e-05
6.1886172e-05
6.2709831e-05
6.350064e-05
6.426187e-05
6.4992501e-05
6.5692651e-05
6.635739e-05
6.6948113e-05
1.6884981e-07
1.6864764e-07
1.6844243e-07
1.6823419e-07
1.6802298e-07
1.6780881e-07
1.6759171e-07
1.6737169e-07
1.6714876e-07
1.6692294e-07
1.6669424e-07
1.6646269e-07
1.6622832e-07
1.6599113e-07
1.6575117e-07
1.6550846e-07
1.6526303e-07
1.6501495e-07
1.6476427e-07
1.6451107e-07
1.6425547e-07
1.6399761e-07
1.6373769e-07
1.6347599e-07
1.6321287e-07
1.6294883e-07
1.6268456e-07
1.62421e-07
1.6215944e-07
1.6190167e-07
1.6165022e-07
1.6140871e-07
1.6118246e-07
1.6097928e-07
1.6081075e-07
1.606944e-07
1.6065734e-07
1.6074234e-07
1.6101954e-07
1.6160561e-07
1.626928e-07
1.6460483e-07
1.6789666e-07
1.7353055e-07
1.8319547e-07
1.9982365e-07
2.2843438e-07
2.7750124e-07
3.6084196e-07
4.9873316e-07
7.1677114e-07
1.0416286e-06
1.4904322e-06
2.0607464e-06
2.7109626e-06
3.4481278e-06
4.2810426e-06
5.2759356e-06
6.4970834e-06
7.8847438e-06
9.45069e-06
1.1199233e-05
1.3109895e-05
1.4942152e-05
1.6247295e-05
1.7652392e-05
1.9153636e-05
2.0749768e-05
2.2455802e-05
2.4229481e-05
2.6042808e-05
2.7872275e-05
2.9799545e-05
3.1784307e-05
3.3791837e-05
3.5795801e-05
3.7806237e-05
3.9820735e-05
4.1826805e-05
4.3804455e-05
4.574268e-05
4.76543e-05
4.9535795e-05
5.1369453e-05
5.314753e-05
5.4874897e-05
5.655655e-05
5.8174355e-05
5.9722464e-05
6.1211043e-05
6.2646626e-05
6.4033085e-05
6.5328999e-05
6.6469587e-05
6.7569697e-05
6.8632523e-05
6.9657479e-05
7.0643344e-05
7.1584606e-05
7.2441106e-05
1.6884969e-07
1.6864749e-07
1.6844226e-07
1.6823402e-07
1.6802281e-07
1.6780864e-07
1.6759154e-07
1.6737152e-07
1.671486e-07
1.6692278e-07
1.6669409e-07
1.6646254e-07
1.6622816e-07
1.6599097e-07
1.6575099e-07
1.6550824e-07
1.6526276e-07
1.6501456e-07
1.6476368e-07
1.6451016e-07
1.6425401e-07
1.6399529e-07
1.6373404e-07
1.6347028e-07
1.6320409e-07
1.6293552e-07
1.6266465e-07
1.6239156e-07
1.6211638e-07
1.6183925e-07
1.6156037e-07
1.6128001e-07
1.6099856e-07
1.6071655e-07
1.6043478e-07
1.6015441e-07
1.5987719e-07
1.5960586e-07
1.593448e-07
1.5910119e-07
1.5888681e-07
1.5872145e-07
1.5863899e-07
1.5869869e-07
1.5900661e-07
1.5975344e-07
1.6128178e-07
1.642161e-07
1.6970826e-07
1.798852e-07
1.9861341e-07
2.3280884e-07
2.9452091e-07
4.0401553e-07
5.8980933e-07
8.8609003e-07
1.3218477e-06
1.9047624e-06
2.6010468e-06
3.4048862e-06
4.3142593e-06
5.4039575e-06
6.7369714e-06
8.2947724e-06
1.0036692e-05
1.197e-05
1.4070527e-05
1.6297356e-05
1.7758015e-05
1.9267291e-05
2.0878313e-05
2.259346e-05
2.4430057e-05
2.6345515e-05
2.8308697e-05
3.0313679e-05
3.2447773e-05
3.465025e-05
3.6873057e-05
3.9103954e-05
4.1354992e-05
4.3620256e-05
4.5881005e-05
4.8114117e-05
5.0315369e-05
5.2486403e-05
5.4613253e-05
5.6694947e-05
5.8730816e-05
6.0712866e-05
6.2633712e-05
6.4494912e-05
6.6296123e-05
6.8018891e-05
6.9671785e-05
7.1260114e-05
7.2806793e-05
7.420688e-05
7.5472843e-05
7.6647895e-05
1.6884961e-07
1.6864738e-07
1.6844214e-07
1.682339e-07
1.6802269e-07
1.6780852e-07
1.6759142e-07
1.673714e-07
1.6714848e-07
1.6692266e-07
1.6669397e-07
1.6646242e-07
1.6622804e-07
1.6599085e-07
1.6575087e-07
1.6550812e-07
1.6526264e-07
1.6501444e-07
1.6476356e-07
1.6451002e-07
1.6425386e-07
1.6399511e-07
1.637338e-07
1.6346996e-07
1.6320363e-07
1.6293484e-07
1.6266363e-07
1.6239005e-07
1.6211414e-07
1.6183593e-07
1.6155549e-07
1.6127285e-07
1.609881e-07
1.6070129e-07
1.6041251e-07
1.6012189e-07
1.5982957e-07
1.5953575e-07
1.5924075e-07
1.5894504e-07
1.5864935e-07
1.5835491e-07
1.5806374e-07
1.5777934e-07
1.5750797e-07
1.5726087e-07
1.5705845e-07
1.5693825e-07
1.5697061e-07
1.572892e-07
1.581482e-07
1.6002896e-07
1.6385074e-07
1.7140292e-07
1.8610203e-07
2.1436875e-07
2.6797973e-07
3.6772634e-07
5.4624172e-07
8.4540238e-07
1.3030217e-06
1.9316039e-06
2.6964469e-06
3.5949813e-06
4.6181902e-06
5.8785509e-06
7.396668e-06
9.1868355e-06
1.117219e-05
1.3348953e-05
1.5686477e-05
1.8145029e-05
1.976812e-05
2.1413806e-05
2.3166068e-05
2.5033883e-05
2.7029871e-05
2.9108983e-05
3.1234941e-05
3.3467293e-05
3.5836295e-05
3.8258766e-05
4.0702289e-05
4.3183955e-05
4.5701114e-05
4.8225718e-05
5.0726526e-05
5.3206412e-05
5.5671912e-05
5.8101061e-05
6.0475465e-05
6.2796804e-05
6.5068697e-05
6.7289305e-05
6.944519e-05
7.1529771e-05
7.3562205e-05
7.5518451e-05
7.7321234e-05
7.9468891e-05
1.6884957e-07
1.6864732e-07
1.6844207e-07
1.6823382e-07
1.6802261e-07
1.6780844e-07
1.6759134e-07
1.6737132e-07
1.671484e-07
1.6692258e-07
1.6669388e-07
1.6646234e-07
1.6622796e-07
1.6599076e-07
1.6575078e-07
1.6550803e-07
1.6526255e-07
1.6501435e-07
1.6476346e-07
1.6450993e-07
1.6425376e-07
1.6399501e-07
1.6373369e-07
1.6346984e-07
1.632035e-07
1.6293471e-07
1.6266349e-07
1.6238988e-07
1.6211393e-07
1.6183567e-07
1.6155515e-07
1.612724e-07
1.6098746e-07
1.6070038e-07
1.6041122e-07
1.6012e-07
1.5982679e-07
1.5953164e-07
1.5923461e-07
1.5893576e-07
1.5863519e-07
1.5833301e-07
1.5802938e-07
1.5772453e-07
1.5741887e-07
1.5711308e-07
1.5680836e-07
1.5650689e-07
1.5621275e-07
1.5593376e-07
1.5568495e-07
1.5549531e-07
1.5542115e-07
1.5557419e-07
1.5617684e-07
1.5766966e-07
1.6092747e-07
1.6771104e-07
1.8156204e-07
2.0945508e-07
2.6470828e-07
3.7168087e-07
5.6963151e-07
9.1068894e-07
1.438442e-06
2.1590702e-06
3.0371577e-06
4.0713426e-06
5.2929659e-06
6.7995516e-06
8.5920601e-06
1.0685202e-05
1.2979514e-05
1.5446709e-05
1.8057461e-05
2.0592882e-05
2.2316599e-05
2.4129321e-05
2.6054529e-05
2.8118353e-05
3.03027e-05
3.2560294e-05
3.4897556e-05
3.7411025e-05
4.0032333e-05
4.2686179e-05
4.5388384e-05
4.8149007e-05
5.0936189e-05
5.3715147e-05
5.647867e-05
5.9224624e-05
6.1933405e-05
6.4599929e-05
6.7221969e-05
6.9782256e-05
7.2283687e-05
7.4737639e-05
7.7012852e-05
8.0061041e-05
1.6884955e-07
1.6864728e-07
1.6844202e-07
1.6823378e-07
1.6802256e-07
1.678084e-07
1.675913e-07
1.6737128e-07
1.6714835e-07
1.6692253e-07
1.6669383e-07
1.6646229e-07
1.662279e-07
1.6599071e-07
1.6575072e-07
1.6550797e-07
1.6526248e-07
1.6501428e-07
1.647634e-07
1.6450985e-07
1.6425369e-07
1.6399493e-07
1.6373361e-07
1.6346976e-07
1.6320342e-07
1.6293462e-07
1.626634e-07
1.6238979e-07
1.6211384e-07
1.6183558e-07
1.6155505e-07
1.6127229e-07
1.6098734e-07
1.6070026e-07
1.6041107e-07
1.6011982e-07
1.5982657e-07
1.5953134e-07
1.5923419e-07
1.5893517e-07
1.5863433e-07
1.583317e-07
1.5802736e-07
1.5772134e-07
1.5741372e-07
1.5710458e-07
1.5679403e-07
1.5648223e-07
1.5616945e-07
1.5585616e-07
1.5554326e-07
1.5523242e-07
1.5492694e-07
1.5463338e-07
1.5436498e-07
1.541485e-07
1.5403815e-07
1.5414535e-07
1.5470176e-07
1.5618774e-07
1.5959661e-07
1.6700663e-07
1.8275732e-07
2.1578043e-07
2.8367532e-07
4.1926149e-07
6.7438131e-07
1.1133875e-06
1.7776753e-06
2.6396515e-06
3.6855779e-06
4.9210429e-06
6.4630591e-06
8.3075479e-06
1.0476916e-05
1.2944387e-05
1.558383e-05
1.8372646e-05
2.1284607e-05
2.3554597e-05
2.5459151e-05
2.746945e-05
2.9614232e-05
3.1907447e-05
3.4299802e-05
3.6761637e-05
3.9427715e-05
4.2248526e-05
4.5114537e-05
4.8048801e-05
5.1064417e-05
5.4115212e-05
5.7162804e-05
6.0207183e-05
6.3244834e-05
6.6242822e-05
6.91951e-05
7.2118666e-05
7.4840823e-05
7.8510619e-05
1.6884955e-07
1.6864728e-07
1.6844201e-07
1.6823376e-07
1.6802255e-07
1.6780838e-07
1.6759128e-07
1.6737126e-07
1.6714833e-07
1.6692251e-07
1.6669381e-07
1.6646226e-07
1.6622788e-07
1.6599068e-07
1.6575069e-07
1.6550794e-07
1.6526245e-07
1.6501424e-07
1.6476335e-07
1.6450981e-07
1.6425364e-07
1.6399488e-07
1.6373355e-07
1.634697e-07
1.6320336e-07
1.6293455e-07
1.6266333e-07
1.6238972e-07
1.6211376e-07
1.618355e-07
1.6155497e-07
1.6127221e-07
1.6098726e-07
1.6070017e-07
1.6041098e-07
1.6011973e-07
1.5982647e-07
1.5953125e-07
1.592341e-07
1.5893507e-07
1.5863421e-07
1.5833156e-07
1.5802717e-07
1.577211e-07
1.5741337e-07
1.5710405e-07
1.5679318e-07
1.5648081e-07
1.5616701e-07
1.5585183e-07
1.5553538e-07
1.5521778e-07
1.5489925e-07
1.5458021e-07
1.5426144e-07
1.5394451e-07
1.5363263e-07
1.5333243e-07
1.530579e-07
1.528386e-07
1.52737e-07
1.5288679e-07
1.5357715e-07
1.5543432e-07
1.5980943e-07
1.6965917e-07
1.9138138e-07
2.3859113e-07
3.3869348e-07
5.4069468e-07
9.1602833e-07
1.5335376e-06
2.3972407e-06
3.4759746e-06
4.7535753e-06
6.3658036e-06
8.3163218e-06
1.0616774e-05
1.3257941e-05
1.611882e-05
1.9119926e-05
2.2247593e-05
2.5121138e-05
2.7167629e-05
2.9280553e-05
3.1527769e-05
3.3944509e-05
3.6478208e-05
3.9088014e-05
4.1931304e-05
4.4960713e-05
4.8052035e-05
5.1232042e-05
5.4508176e-05
5.7828908e-05
6.1156927e-05
6.449383e-05
6.7836903e-05
7.098606e-05
7.5135671e-05
1.6884957e-07
1.6864729e-07
1.6844202e-07
1.6823377e-07
1.6802256e-07
1.6780839e-07
1.6759129e-07
1.6737127e-07
1.6714834e-07
1.6692251e-07
1.6669382e-07
1.6646226e-07
1.6622788e-07
1.6599068e-07
1.6575069e-07
1.6550793e-07
1.6526243e-07
1.6501422e-07
1.6476333e-07
1.6450978e-07
1.6425361e-07
1.6399484e-07
1.6373352e-07
1.6346966e-07
1.6320331e-07
1.6293451e-07
1.6266328e-07
1.6238966e-07
1.621137e-07
1.6183544e-07
1.615549e-07
1.6127214e-07
1.6098719e-07
1.607001e-07
1.6041091e-07
1.6011966e-07
1.598264e-07
1.5953117e-07
1.5923402e-07
1.5893499e-07
1.5863413e-07
1.5833148e-07
1.580271e-07
1.5772102e-07
1.5741329e-07
1.5710396e-07
1.5679307e-07
1.5648067e-07
1.5616682e-07
1.5585154e-07
1.555349e-07
1.5521694e-07
1.5489771e-07
1.5457729e-07
1.5425574e-07
1.5393321e-07
1.536099e-07
1.5328624e-07
1.5296305e-07
1.5264211e-07
1.5232714e-07
1.5202623e-07
1.5175717e-07
1.5155915e-07
1.5151862e-07
1.5182956e-07
1.5292995e-07
1.5580919e-07
1.6270925e-07
1.7870671e-07
2.1513399e-07
2.9640993e-07
4.7056873e-07
8.1454232e-07
1.4135636e-06
2.3004469e-06
3.4375285e-06
4.7984602e-06
6.526393e-06
8.6359285e-06
1.1125526e-05
1.3978684e-05
1.7097904e-05
2.034591e-05
2.3713745e-05
2.7054746e-05
2.9260492e-05
3.1493658e-05
3.3868597e-05
3.642733e-05
3.9112431e-05
4.1905587e-05
4.4960712e-05
4.8210173e-05
5.1544292e-05
5.4993044e-05
5.8550095e-05
6.2166763e-05
6.5664406e-05
7.0151709e-05
1.688496e-07
1.6864732e-07
1.6844205e-07
1.682338e-07
1.6802259e-07
1.6780842e-07
1.6759132e-07
1.673713e-07
1.6714837e-07
1.6692254e-07
1.6669384e-07
1.6646229e-07
1.662279e-07
1.6599069e-07
1.657507e-07
1.6550794e-07
1.6526244e-07
1.6501423e-07
1.6476333e-07
1.6450978e-07
1.642536e-07
1.6399483e-07
1.637335e-07
1.6346964e-07
1.6320329e-07
1.6293447e-07
1.6266324e-07
1.6238963e-07
1.6211366e-07
1.6183539e-07
1.6155485e-07
1.6127209e-07
1.6098714e-07
1.6070005e-07
1.6041085e-07
1.601196e-07
1.5982634e-07
1.5953111e-07
1.5923396e-07
1.5893493e-07
1.5863407e-07
1.5833142e-07
1.5802703e-07
1.5772095e-07
1.5741322e-07
1.5710389e-07
1.56793e-07
1.5648061e-07
1.5616675e-07
1.5585147e-07
1.5553482e-07
1.5521684e-07
1.5489758e-07
1.5457708e-07
1.5425539e-07
1.5393256e-07
1.5360864e-07
1.5328369e-07
1.529578e-07
1.526311e-07
1.5230385e-07
1.5197654e-07
1.5165025e-07
1.5132734e-07
1.5101306e-07
1.5071933e-07
1.5047361e-07
1.5033905e-07
1.5046207e-07
1.5118619e-07
1.5331958e-07
1.5876599e-07
1.7204481e-07
2.0369847e-07
2.7745536e-07
4.4323495e-07
7.8622057e-07
1.4067649e-06
2.3489461e-06
3.5788119e-06
5.070269e-06
6.9760972e-06
9.3061589e-06
1.2049285e-05
1.5169149e-05
1.8577259e-05
2.2099212e-05
2.5730506e-05
2.9370606e-05
3.1738738e-05
3.4114215e-05
3.6647641e-05
3.9372978e-05
4.2225314e-05
4.524745e-05
4.8551797e-05
5.2039041e-05
5.5655314e-05
5.9323216e-05
6.3879639e-05
1.6884965e-07
1.6864737e-07
1.6844209e-07
1.6823385e-07
1.6802263e-07
1.6780847e-07
1.6759137e-07
1.6737135e-07
1.6714841e-07
1.6692259e-07
1.6669388e-07
1.6646233e-07
1.6622793e-07
1.6599073e-07
1.6575073e-07
1.6550797e-07
1.6526246e-07
1.6501425e-07
1.6476335e-07
1.6450979e-07
1.6425361e-07
1.6399483e-07
1.637335e-07
1.6346963e-07
1.6320327e-07
1.6293446e-07
1.6266322e-07
1.623896e-07
1.6211364e-07
1.6183536e-07
1.6155482e-07
1.6127205e-07
1.609871e-07
1.607e-07
1.6041081e-07
1.6011956e-07
1.5982629e-07
1.5953106e-07
1.5923391e-07
1.5893488e-07
1.5863401e-07
1.5833136e-07
1.5802698e-07
1.5772089e-07
1.5741316e-07
1.5710383e-07
1.5679294e-07
1.5648055e-07
1.5616669e-07
1.5585141e-07
1.5553476e-07
1.5521678e-07
1.5489751e-07
1.5457701e-07
1.5425532e-07
1.5393247e-07
1.5360852e-07
1.5328351e-07
1.5295747e-07
1.5263047e-07
1.5230254e-07
1.5197377e-07
1.5164423e-07
1.5131412e-07
1.5098376e-07
1.5065388e-07
1.5032615e-07
1.5000443e-07
1.4969775e-07
1.4942769e-07
1.4924602e-07
1.4927722e-07
1.4982541e-07
1.5163674e-07
1.5653364e-07
1.69031e-07
2.0011381e-07
2.7551253e-07
4.5134987e-07
8.2642827e-07
1.5162758e-06
2.5581326e-06
3.9242496e-06
5.6109265e-06
7.7593895e-06
1.0384969e-05
1.3450703e-05
1.689098e-05
2.0611301e-05
2.4429124e-05
2.834675e-05
3.2092083e-05
3.4623783e-05
3.7167456e-05
3.989292e-05
4.2805202e-05
4.5844576e-05
4.915411e-05
5.273399e-05
5.6919133e-05
1.688497e-07
1.6864742e-07
1.6844215e-07
1.6823391e-07
1.680227e-07
1.6780853e-07
1.6759143e-07
1.6737141e-07
1.6714847e-07
1.6692265e-07
1.6669394e-07
1.6646238e-07
1.6622799e-07
1.6599078e-07
1.6575078e-07
1.6550801e-07
1.652625e-07
1.6501428e-07
1.6476338e-07
1.6450982e-07
1.6425363e-07
1.6399485e-07
1.6373351e-07
1.6346964e-07
1.6320328e-07
1.6293446e-07
1.6266322e-07
1.6238959e-07
1.6211362e-07
1.6183535e-07
1.615548e-07
1.6127203e-07
1.6098707e-07
1.6069998e-07
1.6041078e-07
1.6011952e-07
1.5982626e-07
1.5953102e-07
1.5923387e-07
1.5893483e-07
1.5863397e-07
1.5833132e-07
1.5802693e-07
1.5772085e-07
1.5741312e-07
1.5710378e-07
1.567929e-07
1.564805e-07
1.5616664e-07
1.5585136e-07
1.555347e-07
1.5521672e-07
1.5489746e-07
1.5457696e-07
1.5425526e-07
1.5393242e-07
1.5360846e-07
1.5328345e-07
1.529574e-07
1.5263038e-07
1.5230243e-07
1.5197357e-07
1.5164387e-07
1.5131336e-07
1.509821e-07
1.5065016e-07
1.5031769e-07
1.4998493e-07
1.4965245e-07
1.4932157e-07
1.4899546e-07
1.4868187e-07
1.4839994e-07
1.4819768e-07
1.4819495e-07
1.4869636e-07
1.5048019e-07
1.5552422e-07
1.689167e-07
2.0353069e-07
2.9054971e-07
4.9887956e-07
9.4843321e-07
1.7669633e-06
2.972941e-06
4.5240221e-06
6.4867688e-06
8.9607491e-06
1.1958519e-05
1.5410551e-05
1.9214935e-05
2.3261829e-05
2.739173e-05
3.161668e-05
3.5256198e-05
3.7942727e-05
4.0688635e-05
4.362821e-05
4.6817468e-05
5.0145058e-05
1.6884977e-07
1.6864749e-07
1.6844222e-07
1.6823398e-07
1.6802277e-07
1.6780861e-07
1.6759151e-07
1.6737148e-07
1.6714855e-07
1.6692272e-07
1.6669401e-07
1.6646245e-07
1.6622805e-07
1.6599084e-07
1.6575084e-07
1.6550807e-07
1.6526256e-07
1.6501433e-07
1.6476342e-07
1.6450986e-07
1.6425367e-07
1.6399488e-07
1.6373354e-07
1.6346966e-07
1.632033e-07
1.6293447e-07
1.6266323e-07
1.623896e-07
1.6211362e-07
1.6183534e-07
1.6155479e-07
1.6127202e-07
1.6098706e-07
1.6069996e-07
1.6041076e-07
1.601195e-07
1.5982623e-07
1.59531e-07
1.5923384e-07
1.589348e-07
1.5863394e-07
1.5833129e-07
1.5802689e-07
1.5772081e-07
1.5741308e-07
1.5710374e-07
1.5679285e-07
1.5648046e-07
1.5616659e-07
1.5585131e-07
1.5553466e-07
1.5521668e-07
1.5489741e-07
1.5457691e-07
1.5425522e-07
1.5393237e-07
1.5360841e-07
1.532834e-07
1.5295735e-07
1.5263033e-07
1.5230237e-07
1.5197352e-07
1.516438e-07
1.5131327e-07
1.5098196e-07
1.5064992e-07
1.5031718e-07
1.499838e-07
1.4964985e-07
1.4931543e-07
1.4898076e-07
1.4864632e-07
1.4831331e-07
1.4798468e-07
1.4766793e-07
1.4738238e-07
1.4717841e-07
1.4718708e-07
1.477546e-07
1.4980136e-07
1.5576127e-07
1.7212716e-07
2.1590296e-07
3.2931341e-07
6.0428115e-07
1.188885e-06
2.204115e-06
3.6347707e-06
5.4465433e-06
7.7889379e-06
1.0682221e-05
1.4126878e-05
1.8008457e-05
2.2209166e-05
2.659315e-05
3.1050552e-05
3.560912e-05
3.8892065e-05
4.1879509e-05
4.4483097e-05
1.6884984e-07
1.6864756e-07
1.684423e-07
1.6823406e-07
1.6802285e-07
1.6780869e-07
1.6759159e-07
1.6737157e-07
1.6714863e-07
1.669228e-07
1.666941e-07
1.6646253e-07
1.6622813e-07
1.6599092e-07
1.6575091e-07
1.6550814e-07
1.6526262e-07
1.6501439e-07
1.6476348e-07
1.6450991e-07
1.6425371e-07
1.6399493e-07
1.6373357e-07
1.634697e-07
1.6320332e-07
1.629345e-07
1.6266325e-07
1.6238961e-07
1.6211363e-07
1.6183535e-07
1.6155479e-07
1.6127202e-07
1.6098705e-07
1.6069995e-07
1.6041075e-07
1.6011949e-07
1.5982622e-07
1.5953098e-07
1.5923382e-07
1.5893478e-07
1.5863391e-07
1.5833126e-07
1.5802687e-07
1.5772078e-07
1.5741305e-07
1.5710371e-07
1.5679282e-07
1.5648042e-07
1.5616656e-07
1.5585128e-07
1.5553462e-07
1.5521664e-07
1.5489737e-07
1.5457687e-07
1.5425517e-07
1.5393233e-07
1.5360837e-07
1.5328335e-07
1.5295731e-07
1.5263029e-07
1.5230233e-07
1.5197347e-07
1.5164375e-07
1.5131322e-07
1.5098191e-07
1.5064986e-07
1.5031711e-07
1.499837e-07
1.4964966e-07
1.4931505e-07
1.4897989e-07
1.4864426e-07
1.4830825e-07
1.4797207e-07
1.476362e-07
1.4730183e-07
1.4697209e-07
1.4665524e-07
1.4637343e-07
1.4618679e-07
1.4625814e-07
1.4703505e-07
1.4975517e-07
1.5782795e-07
1.8065225e-07
2.4347648e-07
4.0930196e-07
8.071834e-07
1.6117376e-06
2.8948277e-06
4.608681e-06
6.8184706e-06
9.6274542e-06
1.3040665e-05
1.6997223e-05
2.1338581e-05
2.5963394e-05
3.0678237e-05
3.556746e-05
3.9577687e-05
1.6884991e-07
1.6864764e-07
1.6844238e-07
1.6823414e-07
1.6802294e-07
1.6780879e-07
1.6759169e-07
1.6737166e-07
1.6714873e-07
1.669229e-07
1.6669419e-07
1.6646262e-07
1.6622822e-07
1.65991e-07
1.6575099e-07
1.6550822e-07
1.652627e-07
1.6501447e-07
1.6476355e-07
1.6450997e-07
1.6425377e-07
1.6399498e-07
1.6373362e-07
1.6346974e-07
1.6320336e-07
1.6293453e-07
1.6266327e-07
1.6238964e-07
1.6211365e-07
1.6183536e-07
1.6155481e-07
1.6127203e-07
1.6098706e-07
1.6069995e-07
1.6041074e-07
1.6011948e-07
1.5982621e-07
1.5953097e-07
1.5923381e-07
1.5893477e-07
1.586339e-07
1.5833124e-07
1.5802685e-07
1.5772076e-07
1.5741302e-07
1.5710369e-07
1.5679279e-07
1.5648039e-07
1.5616653e-07
1.5585124e-07
1.5553459e-07
1.5521661e-07
1.5489734e-07
1.5457684e-07
1.5425514e-07
1.5393229e-07
1.5360833e-07
1.5328331e-07
1.5295727e-07
1.5263025e-07
1.5230228e-07
1.5197343e-07
1.5164371e-07
1.5131318e-07
1.5098187e-07
1.5064982e-07
1.5031706e-07
1.4998365e-07
1.4964961e-07
1.4931498e-07
1.489798e-07
1.4864411e-07
1.4830793e-07
1.4797132e-07
1.4763434e-07
1.4729708e-07
1.4695976e-07
1.466229e-07
1.4628788e-07
1.4595847e-07
1.4564501e-07
1.4537646e-07
1.4523458e-07
1.4545031e-07
1.4668363e-07
1.5082716e-07
1.633074e-07
1.9949935e-07
3.0120922e-07
5.6915718e-07
1.1820941e-06
2.304393e-06
3.9325944e-06
6.038668e-06
8.7810316e-06
1.2170051e-05
1.6195882e-05
2.0679595e-05
2.5594198e-05
3.0577143e-05
1.6885e-07
1.6864773e-07
1.6844247e-07
1.6823424e-07
1.6802304e-07
1.6780889e-07
1.6759179e-07
1.6737177e-07
1.6714883e-07
1.66923e-07
1.6669429e-07
1.6646272e-07
1.6622832e-07