#      distance             U_x             U_y             U_z wallShearStr... wallShearStr... wallShearStr...               p         epsilon               k             nut
              0      0.99931389               0               0               0               0               0    0.0083586806    0.0014422139   5.6435696e-05   1.9875785e-07
   0.0021021021      0.99929385               0               0               0               0               0    0.0083927743    0.0014412816   5.6360797e-05   1.9835896e-07
   0.0042042042      0.99927381               0               0               0               0               0     0.008426868    0.0014403493   5.6285898e-05   1.9796006e-07
   0.0063063063      0.99925377               0               0               0               0               0    0.0084609617    0.0014394169   5.6210998e-05   1.9756117e-07
   0.0084084084      0.99923373               0               0               0               0               0    0.0084950554    0.0014384846   5.6136099e-05   1.9716228e-07
    0.010510511      0.99921067               0               0               0               0               0    0.0085336055     0.001437623   5.6065702e-05   1.9678595e-07
    0.012612613      0.99918574               0               0               0               0               0    0.0085749232    0.0014368053   5.5998101e-05   1.9642363e-07
    0.014714715      0.99916081               0               0               0               0               0     0.008616241    0.0014359876   5.5930499e-05    1.960613e-07
    0.016816817      0.99913587               0               0               0               0               0    0.0086575588    0.0014351699   5.5862898e-05   1.9569898e-07
    0.018918919      0.99911094               0               0               0               0               0    0.0086988766    0.0014343522   5.5795296e-05   1.9533666e-07
    0.021021021      0.99908521               0               0               0               0               0    0.0087413178    0.0014335476   5.5728468e-05   1.9497808e-07
    0.023123123      0.99905413               0               0               0               0               0    0.0087913114    0.0014328309   5.5666839e-05   1.9464462e-07
    0.025225225      0.99902305               0               0               0               0               0    0.0088413049    0.0014321142   5.5605209e-05   1.9431115e-07
    0.027327327      0.99899197               0               0               0               0               0    0.0088912985    0.0014313975    5.554358e-05   1.9397769e-07
    0.029429429      0.99896089               0               0               0               0               0    0.0089412921    0.0014306808    5.548195e-05   1.9364423e-07
    0.031531532      0.99892783               0               0               0               0               0      0.00899397    0.0014299879   5.5421614e-05   1.9331672e-07
    0.033633634      0.99888899               0               0               0               0               0    0.0090544881     0.001429365   5.5365055e-05   1.9300661e-07
    0.035735736      0.99885014               0               0               0               0               0    0.0091150063     0.001428742   5.5308497e-05   1.9269649e-07
    0.037837838      0.99881129               0               0               0               0               0    0.0091755244     0.001428119   5.5251938e-05   1.9238638e-07
     0.03993994      0.99877245               0               0               0               0               0    0.0092360426     0.001427496   5.5195379e-05   1.9207627e-07
    0.042042042       0.9987245               0               0               0               0               0    0.0093083582    0.0014269568   5.5142916e-05   1.9178387e-07
    0.044144144       0.9986757               0               0               0               0               0    0.0093817794    0.0014264254   5.5090836e-05   1.9149314e-07
    0.046246246      0.99862691               0               0               0               0               0    0.0094552006     0.001425894   5.5038756e-05   1.9120241e-07
    0.048348348      0.99857764               0               0               0               0               0    0.0095292128    0.0014253661   5.4986827e-05   1.9091229e-07
     0.05045045      0.99851604               0               0               0               0               0    0.0096187387    0.0014249283   5.4938863e-05   1.9063806e-07
    0.052552553      0.99845445               0               0               0               0               0    0.0097082647    0.0014244905   5.4890899e-05   1.9036384e-07
    0.054654655      0.99839285               0               0               0               0               0    0.0097977906    0.0014240528   5.4842935e-05   1.9008961e-07
    0.056756757      0.99832165               0               0               0               0               0    0.0098986955    0.0014236708   5.4797192e-05   1.8982356e-07
    0.058858859      0.99824288               0               0               0               0               0     0.010008571    0.0014233328   5.4753199e-05   1.8956395e-07
    0.060960961      0.99816411               0               0               0               0               0     0.010118447    0.0014229948   5.4709205e-05   1.8930434e-07
    0.063063063      0.99807584               0               0               0               0               0     0.010239731    0.0014227037   5.4666879e-05   1.8905017e-07
    0.065165165      0.99797474               0               0               0               0               0     0.010376438    0.0014224762   5.4626808e-05   1.8880336e-07
    0.067267267      0.99787363               0               0               0               0               0     0.010513146    0.0014222487   5.4586736e-05   1.8855656e-07
    0.069369369      0.99775256               0               0               0               0               0      0.01067041    0.0014220911   5.4549251e-05   1.8831855e-07
    0.071471471      0.99761726               0               0               0               0               0     0.010842331    0.0014219834   5.4513611e-05   1.8808681e-07
    0.073573574      0.99748195               0               0               0               0               0     0.011014251    0.0014218758   5.4477971e-05   1.8785507e-07
    0.075675676      0.99730597               0               0               0               0               0     0.011238505    0.0014219658   5.4445923e-05   1.8762235e-07
    0.077777778      0.99712952               0               0               0               0               0     0.011463352    0.0014220582   5.4413915e-05   1.8738961e-07
     0.07987988      0.99689742               0               0               0               0               0     0.011729749     0.001422065   5.4387552e-05   1.8720711e-07
    0.081981982       0.9966279               0               0               0               0               0      0.01202408    0.0014220143   5.4364983e-05   1.8705838e-07
    0.084084084      0.99632809               0               0               0               0               0     0.012374933    0.0014227642    5.434059e-05   1.8679303e-07
    0.086186186      0.99597728               0               0               0               0               0     0.012820998    0.0014248625   5.4313123e-05   1.8633124e-07
    0.088288288      0.99546483               0  -1.0266231e-21               0               0               0     0.013310379    0.0014245244   5.4294496e-05   1.8625463e-07
     0.09039039      0.99452879               0  -4.7435675e-21               0               0               0     0.013913269    0.0014178015   5.4299031e-05   1.8718744e-07
    0.092492492       0.9936522               0   1.3861996e-17               0               0               0     0.014856381    0.0014953729   5.4321865e-05   1.8205463e-07
    0.094594595      0.99293241               0   6.4303178e-17               0               0               0     0.016696606    0.0017952165   5.4392951e-05   1.6092765e-07
    0.096696697      0.90499729               0   9.7784353e-17  -0.00068490873  -3.1380905e-06               0     0.018114467       5.8622295     4.96505e-05   1.3010263e-07
    0.098798799      0.64490821               0   9.7788246e-17   -0.0027217559  -1.2470444e-05               0     0.018698622       23.289958   3.5406626e-05   8.0134716e-08
      0.1009009      0.38484099               0   7.5830851e-17   -0.0045525021  -1.7828084e-05  -1.6159042e-18     0.017928616         42.4782   2.1146617e-05   3.9998963e-08
       0.103003      0.12480289               0   2.4591741e-17   -0.0061084471  -1.7886105e-05  -5.3863474e-18     0.015353062       64.013793   6.8650942e-06   1.2972765e-08
     0.10510511               0               0               0   -0.0065441446  -1.3111762e-05  -5.8446033e-18     0.013104299       75.659851   1.1169565e-08   1.6694064e-12
     0.10720721               0               0               0   -0.0059460126  -3.8778323e-06  -3.2461802e-18     0.011157118       78.179273   1.1864007e-08    1.438693e-12
     0.10930931               0               0               0    -0.005584867   -1.224693e-07  -5.0112769e-19     0.010093266       77.346029   1.1599832e-08   1.3034046e-12
     0.11141141               0               0               0   -0.0053842834  -7.8922237e-08   2.3432687e-18    0.0096278857       74.241299   1.0686178e-08   1.2327682e-12
     0.11351351               0               0               0   -0.0052265885  -5.7902334e-08   1.6448662e-18    0.0093009942       71.410399   9.8887717e-09    1.178258e-12
     0.11561562               0               0               0   -0.0050913694  -4.8687809e-08  -9.1014354e-19    0.0090466781          68.723   9.1522857e-09   1.1321988e-12
     0.11771772               0               0               0   -0.0049803873  -4.2330939e-08  -1.0832816e-18    0.0088071626       66.475554   8.5632023e-09   1.0949826e-12
     0.11981982               0               0               0   -0.0048798166  -3.7201607e-08  -2.3325876e-19    0.0085740049       64.417095   8.0374374e-09   1.0615649e-12
     0.12192192               0               0               0   -0.0047926326  -3.3618375e-08               0    0.0083760236        62.62673   7.5980349e-09   1.0329826e-12
     0.12402402               0               0               0   -0.0047105114  -3.0619874e-08               0    0.0081913461       60.937758   7.1912946e-09   1.0062289e-12
     0.12612613               0               0               0   -0.0046376221  -2.8218439e-08               0    0.0080396977       59.443661   6.8441198e-09   9.8276132e-13
     0.12822823               0               0               0   -0.0045680838  -2.6033716e-08               0    0.0079000377       58.020295    6.518565e-09   9.6048652e-13
     0.13033033               0               0               0   -0.0045058242  -2.4166357e-08               0    0.0077787596       56.753601   6.2378469e-09    9.407474e-13
     0.13243243               0               0               0   -0.0044463509  -2.2420487e-08               0     0.007664518        55.54688   5.9742925e-09   9.2197894e-13
     0.13453453               0               0               0    -0.004392502  -2.0922851e-08  -3.7522423e-19    0.0075583059       54.461502    5.743588e-09     9.05134e-13
     0.13663664               0               0               0   -0.0043411412   -1.953503e-08  -9.1644069e-19    0.0074556458       53.429802   5.5274157e-09   8.8913997e-13
     0.13873874               0               0               0   -0.0042939237  -1.8332465e-08  -1.1094578e-18    0.0073596847        52.48741   5.3343812e-09   8.7454312e-13
     0.14084084               0               0               0    -0.004249003  -1.7232593e-08  -1.1094579e-18     0.007267437       51.594524   5.1541728e-09   8.6072077e-13
     0.14294294               0               0               0    -0.004207053   -1.625256e-08  -1.0450042e-18    0.0071820166       50.765299   4.9898408e-09   8.4788795e-13
     0.14504505               0               0               0   -0.0041673202  -1.5361968e-08  -9.3244515e-19    0.0071016919       49.983589   4.8373582e-09   8.3579369e-13
     0.14714715               0               0               0    -0.004129658  -1.4544608e-08  -6.9590216e-19    0.0070266005        49.24567   4.6954086e-09   8.2438072e-13
     0.14924925               0               0               0   -0.0040942363  -1.3806489e-08  -3.2520299e-19    0.0069571716       48.555136   4.5648562e-09   8.1370494e-13
     0.15135135               0               0               0   -0.0040601435  -1.3114217e-08  -6.1812987e-20      0.00688982       47.892352   4.4407587e-09   8.0346142e-13
     0.15345345               0               0               0   -0.0040283564  -1.2501502e-08    1.536813e-20    0.0068260729       47.277721   4.3278619e-09     7.93968e-13
     0.15555556               0               0               0   -0.0039972587  -1.1912788e-08  -7.5868943e-21      0.00676319       46.677455   4.2182138e-09   7.8469688e-13
     0.15765766               0               0               0   -0.0039684989   -1.140548e-08  -3.7018462e-19    0.0067032385        46.12591   4.1195844e-09    7.761798e-13
     0.15975976               0               0               0   -0.0039399066  -1.0903372e-08  -6.6985271e-19    0.0066436894       45.577839   4.0217211e-09    7.677163e-13
     0.16186186               0               0               0   -0.0039136938  -1.0475154e-08  -7.5291873e-20    0.0065898574       45.079127   3.9347446e-09   7.6001427e-13
     0.16396396               0               0               0   -0.0038874809  -1.0046936e-08   5.1926896e-19    0.0065360253       44.580415    3.847768e-09   7.5231223e-13
     0.16606607               0               0               0   -0.0038632076  -9.6722034e-09   5.9129124e-19    0.0064862556       44.121441   3.7693373e-09   7.4522559e-13
     0.16816817               0               0               0   -0.0038392016  -9.3048426e-09    5.912913e-19    0.0064370459       43.667944   3.6920845e-09   7.3822376e-13
     0.17027027               0               0               0    -0.003816472  -8.9719005e-09   3.4065552e-19     0.006389759        43.24046   3.6202953e-09    7.316239e-13
     0.17237237               0               0               0    -0.003794382  -8.6562086e-09  -3.5595339e-20    0.0063434357       42.826014   3.5512442e-09   7.2522549e-13
     0.17447447               0               0               0   -0.0037730036  -8.3585689e-09  -2.5132734e-19    0.0062985649       42.426017   3.4851632e-09   7.1904968e-13
     0.17657658               0               0               0   -0.0037525816  -8.0851909e-09  -2.5132738e-19    0.0062556464       42.045438   3.4230737e-09   7.1317305e-13
     0.17867868               0               0               0   -0.0037323939  -7.8173124e-09  -2.6400855e-19    0.0062131841       41.669584   3.3619354e-09   7.0736927e-13
     0.18078078               0               0               0    -0.003713443  -7.5784474e-09  -3.4359082e-19    0.0061731289        41.31865   3.3058152e-09   7.0194983e-13
     0.18288288               0               0               0   -0.0036944922  -7.3395824e-09  -4.2317308e-19    0.0061330737       40.967717    3.249695e-09   6.9653039e-13
     0.18498498               0               0               0   -0.0036766675  -7.1257024e-09  -2.8363176e-19    0.0060951267       40.639351   3.1980303e-09   6.9145875e-13
     0.18708709               0               0               0   -0.0036590212  -6.9157794e-09  -1.0938771e-19    0.0060575136       40.314559   3.1470713e-09    6.864422e-13
     0.18918919               0               0               0   -0.0036420009  -6.7189653e-09   7.0189164e-20    0.0060211089       40.002243   3.0985293e-09   6.8161782e-13
     0.19129129               0               0               0   -0.0036255196  -6.5334367e-09     2.54357e-19    0.0059857444       39.700669   3.0520682e-09    6.769589e-13
     0.19339339               0               0               0   -0.0036092269  -6.3516705e-09   3.7464674e-19    0.0059507231       39.402837    3.006319e-09   6.7235756e-13
      0.1954955               0               0               0   -0.0035937905  -6.1869818e-09   2.0499818e-19    0.0059172598       39.121988   2.9638013e-09   6.6801763e-13
      0.1975976               0               0               0   -0.0035783541  -6.0222931e-09   3.5349609e-20    0.0058837965       38.841139   2.9212835e-09    6.636777e-13
      0.1996997               0               0               0   -0.0035636637  -5.8714725e-09               0    0.0058518451       38.575011   2.8815186e-09   6.5956425e-13
      0.2018018               0               0               0   -0.0035491697  -5.7243021e-09               0    0.0058202916       38.312758   2.8424783e-09   6.5551042e-13
      0.2039039               0               0               0   -0.0035349923  -5.5826984e-09  -4.7494416e-20    0.0057893223       38.056715   2.8045795e-09   6.5155219e-13
     0.20600601               0               0               0   -0.0035213552  -5.4505945e-09  -1.7604355e-19      0.00575935        37.81127   2.7686289e-09   6.4775712e-13
     0.20810811               0               0               0   -0.0035077182  -5.3184906e-09  -3.0459269e-19    0.0057293778       37.565826   2.7326783e-09   6.4396205e-13
     0.21021021               0               0               0   -0.0034947933  -5.1983597e-09   -3.158005e-19    0.0057006561       37.334301   2.6992446e-09   6.4038089e-13
     0.21231231               0               0               0   -0.0034819363  -5.0793724e-09  -3.1580055e-19    0.0056720538       37.104106   2.6660514e-09   6.3682015e-13
     0.21441441               0               0               0     -0.00346938   -4.965019e-09  -2.6331608e-19    0.0056440996        36.87976   2.6338985e-09   6.3334927e-13
     0.21651652               0               0               0   -0.0034572383  -4.8570545e-09  -1.3847011e-19    0.0056170391       36.663478     2.60318e-09   6.3000225e-13
     0.21861862               0               0               0   -0.0034450965  -4.7490899e-09  -1.3624131e-20    0.0055899786       36.447196   2.5724614e-09   6.2665524e-13
     0.22072072               0               0               0   -0.0034335433  -4.6499692e-09               0    0.0055639976       36.242288   2.5437332e-09   6.2348318e-13
     0.22282282               0               0               0   -0.0034220622  -4.5519318e-09               0    0.0055381489       36.038774   2.5152488e-09   6.2033254e-13
     0.22492492               0               0               0   -0.0034107771  -4.4568579e-09               0    0.0055126416       35.839035   2.4874154e-09   6.1723989e-13
     0.22702703               0               0               0   -0.0033999029  -4.3679998e-09               0    0.0054878504       35.647215   2.4609472e-09   6.1426885e-13
     0.22912913               0               0               0   -0.0033890288  -4.2791416e-09               0    0.0054630593       35.455395   2.4344789e-09   6.1129781e-13
     0.23123123               0               0               0   -0.0033785545  -4.1959163e-09  -6.4843364e-20    0.0054391369       35.271247   2.4093145e-09   6.0844455e-13
     0.23333333               0               0               0   -0.0033682397  -4.1149375e-09  -1.5554598e-19    0.0054155609       35.090159     2.38467e-09   6.0563827e-13
     0.23543544               0               0               0   -0.0033579589  -4.0344184e-09  -2.3475224e-19    0.0053920503       34.909719   2.3601342e-09   6.0284197e-13
     0.23753754               0               0               0   -0.0033481638  -3.9604608e-09  -1.4990355e-19    0.0053694718       34.738534   2.3371488e-09   6.0018805e-13
     0.23963964               0               0               0   -0.0033383687  -3.8865031e-09  -6.5054864e-20    0.0053468933        34.56735   2.3141635e-09   5.9753414e-13
     0.24174174               0               0               0   -0.0033287531  -3.8150072e-09   2.0893211e-20    0.0053246111       34.399575   2.2917416e-09   5.9493264e-13
     0.24384384               0               0               0   -0.0033194393  -3.7476487e-09   1.0868902e-19    0.0053028268        34.23753   2.2702667e-09   5.9241924e-13
     0.24594595               0               0               0   -0.0033101254  -3.6802902e-09   1.9648482e-19    0.0052810426       34.075486   2.2487918e-09   5.8990585e-13
     0.24804805               0               0               0   -0.0033010946  -3.6166101e-09   1.7626127e-19    0.0052598149       33.918804   2.2281921e-09   5.8747479e-13
     0.25015015               0               0               0   -0.0032922259   -3.555036e-09   9.4189334e-20    0.0052389058       33.765192   2.2080935e-09   5.8509089e-13
     0.25225225               0               0               0   -0.0032833572   -3.493462e-09   1.2117394e-20    0.0052179968        33.61158   2.1879949e-09   5.8270698e-13
     0.25435435               0               0               0   -0.0032748428  -3.4360612e-09               0     0.005197855       33.464643   2.1689713e-09   5.8042569e-13
     0.25645646               0               0               0   -0.0032663897  -3.3793833e-09               0     0.005177846       33.318861    2.150134e-09   5.7816217e-13
     0.25855856               0               0               0   -0.0032579447  -3.3227984e-09   1.3483963e-21    0.0051578515        33.17323   2.1313206e-09   5.7590098e-13
     0.26066066               0               0               0   -0.0032498816  -3.2706362e-09   6.6820772e-20    0.0051385423       33.034753   2.1136444e-09   5.7374993e-13
     0.26276276               0               0               0   -0.0032418185   -3.218474e-09   1.3229315e-19    0.0051192332       32.896277   2.0959682e-09   5.7159889e-13
     0.26486486               0               0               0   -0.0032338059  -3.1668999e-09   1.8868257e-19    0.0051000097       32.758744   2.0784403e-09   5.6946237e-13
     0.26696697               0               0               0    -0.003226107  -3.1189763e-09   1.8868262e-19    0.0050813183       32.627073   2.0618327e-09   5.6741599e-13
     0.26906907               0               0               0   -0.0032184081  -3.0710526e-09   1.8868266e-19    0.0050626269       32.495403   2.0452252e-09   5.6536961e-13
     0.27117117               0               0               0   -0.0032107791  -3.0238781e-09   1.7575175e-19    0.0050440837       32.365033   2.0288195e-09   5.6334321e-13
     0.27327327               0               0               0   -0.0032034211  -2.9796124e-09   1.1260707e-19     0.005026116       32.239715   2.0131976e-09   5.6139443e-13
     0.27537538               0               0               0   -0.0031960632  -2.9353467e-09    4.946239e-20    0.0050081483       32.114397   1.9975756e-09   5.5944565e-13
     0.27747748               0               0               0    -0.003188775  -2.8917706e-09  -1.1734794e-20    0.0049903279       31.990372   1.9821517e-09   5.5751677e-13
     0.27957958               0               0               0   -0.0031817391  -2.8506873e-09  -6.5891646e-20    0.0049730398       31.871022   1.9674438e-09   5.5565982e-13
     0.28168168               0               0               0   -0.0031747032  -2.8096041e-09   -1.200485e-19    0.0049557518       31.751671   1.9527358e-09   5.5380288e-13
     0.28378378               0               0               0   -0.0031677198  -2.7690483e-09  -1.6487671e-19    0.0049385547       31.633288   1.9381742e-09   5.5196083e-13
     0.28588589               0               0               0   -0.0031609884  -2.7310272e-09  -1.6487675e-19    0.0049217945       31.519552   1.9243157e-09   5.5019036e-13
     0.28798799               0               0               0    -0.003154257  -2.6930061e-09  -1.6487679e-19    0.0049050344       31.405816   1.9104571e-09   5.4841989e-13
     0.29009009               0               0               0   -0.0031475455  -2.6551876e-09  -1.6127011e-19     0.004888309       31.292444   1.8966531e-09   5.4665503e-13
     0.29219219               0               0               0   -0.0031411004  -2.6200934e-09  -1.0916057e-19    0.0048720504       31.183975   1.8835821e-09   5.4496557e-13
     0.29429429               0               0               0   -0.0031346552  -2.5849991e-09  -5.7051025e-20    0.0048557919       31.075505   1.8705112e-09   5.4327611e-13
      0.2963964               0               0               0   -0.0031282101  -2.5499049e-09  -4.9414802e-21    0.0048395333       30.967036   1.8574403e-09   5.4158665e-13
      0.2984985               0               0               0    -0.003122009  -2.5171216e-09               0    0.0048238008       30.863042   1.8450314e-09   5.3996602e-13
      0.3006006               0               0               0   -0.0031158334  -2.4845804e-09               0    0.0048081233       30.759517   1.8326919e-09   5.3835259e-13
      0.3027027               0               0               0   -0.0031096578  -2.4520391e-09               0    0.0047924458       30.655991   1.8203523e-09   5.3673917e-13
      0.3048048               0               0               0   -0.0031036557  -2.4210098e-09   2.8582732e-20    0.0047771393       30.555629   1.8084752e-09   5.3517447e-13
     0.30690691               0               0               0    -0.003097736  -2.3906997e-09    7.076464e-20    0.0047620093       30.456772   1.7968181e-09   5.3363295e-13
     0.30900901               0               0               0   -0.0030918164  -2.3603897e-09   1.1294655e-19    0.0047468794       30.357915    1.785161e-09   5.3209144e-13
     0.31111111               0               0               0   -0.0030859901  -2.3309033e-09   1.3132861e-19    0.0047319147       30.260753   1.7737489e-09   5.3057607e-13
     0.31321321               0               0               0   -0.0030803138  -2.3027388e-09   1.1151112e-19    0.0047172153       30.166313     1.76273e-09   5.2910266e-13
     0.31531532               0               0               0   -0.0030746374  -2.2745744e-09   9.1693622e-20    0.0047025159       30.071872   1.7517111e-09   5.2762925e-13
     0.31741742               0               0               0   -0.0030689659  -2.2464541e-09   7.2228069e-20    0.0046878248        29.97752   1.7407048e-09    5.261572e-13
     0.31951952               0               0               0   -0.0030635197  -2.2203734e-09   6.9025313e-20    0.0046735169       29.887247   1.7302817e-09     5.24748e-13
     0.32162162               0               0               0   -0.0030580734  -2.1942927e-09   6.5822558e-20    0.0046592089       29.796975   1.7198586e-09    5.233388e-13
     0.32372372               0               0               0   -0.0030526272   -2.168212e-09   6.2619803e-20    0.0046449009       29.706702   1.7094354e-09    5.219296e-13
     0.32582583               0               0               0   -0.0030473085  -2.1432173e-09   7.2434361e-20    0.0046308584       29.618735   1.6993385e-09   5.2055589e-13
     0.32792793               0               0               0   -0.0030420797  -2.1189881e-09   9.1422616e-20     0.004617003       29.532392   1.6894715e-09   5.1920719e-13
     0.33003003               0               0               0   -0.0030368509  -2.0947589e-09   1.1041087e-19    0.0046031475        29.44605   1.6796045e-09   5.1785849e-13
     0.33213213               0               0               0   -0.0030316381  -2.0706511e-09   1.2518907e-19    0.0045893282       29.359995   1.6697777e-09   5.1651422e-13
     0.33423423               0               0               0   -0.0030266166  -2.0479991e-09   8.9530438e-20    0.0045759424       29.277378   1.6604322e-09   5.1522298e-13
     0.33633634               0               0               0    -0.003021595  -2.0253471e-09   5.3871811e-20    0.0045625565       29.194761   1.6510867e-09   5.1393173e-13
     0.33843844               0               0               0   -0.0030165734   -2.002695e-09   1.8213184e-20    0.0045491706       29.112145   1.6417412e-09   5.1264048e-13
     0.34054054               0               0               0    -0.003011649  -1.9807719e-09  -2.2664517e-20     0.004535967       29.031265    1.632636e-09   5.1137606e-13
     0.34264264               0               0               0   -0.0030068259  -1.9596098e-09  -6.8990973e-20    0.0045229538       28.952197   1.6237816e-09   5.1013962e-13
     0.34474474               0               0               0   -0.0030020028  -1.9384476e-09  -1.1531743e-19    0.0045099406        28.87313   1.6149272e-09   5.0890319e-13
     0.34684685               0               0               0   -0.0029971798  -1.9172855e-09  -1.6164388e-19    0.0044969274       28.794062   1.6060728e-09   5.0766676e-13
     0.34894895               0               0               0   -0.0029925116  -1.8973598e-09  -1.6999473e-19    0.0044841613       28.717759   1.5975968e-09   5.0647297e-13
     0.35105105               0               0               0   -0.0029878776   -1.877706e-09   -1.699948e-19    0.0044714496       28.642063    1.589204e-09   5.0528857e-13
     0.35315315               0               0               0   -0.0029832435  -1.8580522e-09  -1.6999486e-19    0.0044587378       28.566366   1.5808112e-09   5.0410416e-13