# Selection     : all 
# Volume        : 5.16250000e-02
# Time          	min(p)	location	cell	processor	min(U)	min(k)	location	cell	processor	min(omega)	location	cell	processor	min(nut)	location	cell	processor	min(ReThetat)	location	cell	processor	min(gammaInt)	location	cell	processor
0               	0.00000000e+00	(5.55420652e-01 1.01701236e-05 5.00000000e-02)	0	3	(5.40000000e+00 0.00000000e+00 0.00000000e+00)	5.00000000e-02	(5.55420652e-01 1.01701236e-05 5.00000000e-02)	0	3	2.65000000e+02	(5.55420652e-01 1.01701236e-05 5.00000000e-02)	0	3	1.88679245e-04	(5.55420652e-01 1.01701236e-05 5.00000000e-02)	0	3	1.60990000e+02	(5.55420652e-01 1.01701236e-05 5.00000000e-02)	0	3	1.00000000e+00	(5.55420652e-01 1.01701236e-05 5.00000000e-02)	0	3
1               	1.82163519e-04	(2.88500438e+00 1.50737428e-01 5.00000000e-02)	16376	3	(4.10836365e+00 -1.44264415e-07 -3.10236629e-19)	2.73584784e-02	(2.88500438e+00 1.57000272e-04 5.00000000e-02)	1112	3	1.37238969e+02	(2.88500438e+00 1.69914938e-01 5.00000000e-02)	16694	3	1.43198880e-08	(2.88500438e+00 5.33941767e-05 5.00000000e-02)	476	3	1.60990004e+02	(1.07397368e-03 1.01701236e-05 5.00000000e-02)	3691	1	1.00000000e+00	(1.92304091e+00 1.18636634e-03 5.00000000e-02)	4094	3
2               	5.17996307e-04	(2.88500438e+00 1.50737428e-01 5.00000000e-02)	16376	3	(1.13462161e+00 -2.85880906e-03 -5.72275780e-19)	1.83575632e-02	(2.88500438e+00 1.87008177e-04 5.00000000e-02)	1271	3	3.26675419e-02	(2.99912419e-05 1.02105369e-04 5.00000000e-02)	4171	1	3.86846200e-09	(2.88500438e+00 1.01701236e-05 5.00000000e-02)	158	3	1.60990030e+02	(2.56121894e-03 1.01701236e-05 5.00000000e-02)	3710	1	1.30911487e-01	(2.88500438e+00 1.01701236e-05 5.00000000e-02)	158	3
3               	3.71523010e-04	(2.88500438e+00 9.33901361e-03 5.00000000e-02)	9062	3	(5.82096682e-01 -2.87819308e-03 -4.97961556e-19)	1.69755012e-02	(6.25483922e-02 1.87008177e-04 5.00000000e-02)	1220	0	3.38495302e-02	(2.12770039e-04 2.18863888e-04 5.00000000e-02)	4670	1	1.50427349e-09	(2.99912419e-05 1.01701236e-05 5.00000000e-02)	3675	1	1.60990130e+02	(3.37481238e-03 1.01701236e-05 5.00000000e-02)	3719	1	5.42483095e-02	(2.88500438e+00 1.01701236e-05 5.00000000e-02)	158	3
4               	3.19381802e-04	(2.88500438e+00 6.42563470e-03 5.00000000e-02)	8108	3	(4.10551621e-01 -3.97909023e-03 -3.13205937e-19)	1.31204700e-02	(2.88500438e+00 5.33941767e-05 5.00000000e-02)	476	3	3.36315852e-02	(2.12770039e-04 1.57000272e-04 5.00000000e-02)	4422	1	1.31648399e-09	(2.99912419e-05 1.01701236e-05 5.00000000e-02)	3675	1	1.60990173e+02	(9.02865036e-05 1.57000272e-04 5.00000000e-02)	4420	1	4.17486602e-02	(2.88500438e+00 1.01701236e-05 5.00000000e-02)	158	3
5               	2.93409895e-04	(2.88500438e+00 4.98929477e-03 5.00000000e-02)	7472	3	(3.29279323e-01 -4.22668032e-03 -1.70102001e-19)	1.04601016e-02	(2.88500438e+00 5.33941767e-05 5.00000000e-02)	476	3	3.43503878e-02	(5.30332311e-04 3.26691153e-04 5.00000000e-02)	5047	1	1.23350305e-09	(2.99912419e-05 1.01701236e-05 5.00000000e-02)	3675	1	1.60990356e+02	(1.51210583e-04 1.01701236e-05 5.00000000e-02)	3677	1	3.61620785e-02	(2.88500438e+00 1.01701236e-05 5.00000000e-02)	158	3
6               	-2.58255597e-02	(3.37821652e-04 1.01701236e-05 5.00000000e-02)	3680	1	(2.79834528e-01 -3.34190777e-03 -1.04205057e-19)	9.72601599e-03	(2.88500438e+00 7.70222945e-05 5.00000000e-02)	635	3	3.43564112e-02	(-3.19474650e-05 1.28732992e-04 5.00000000e-02)	209	1	1.24371463e-09	(2.99912419e-05 1.01701236e-05 5.00000000e-02)	3675	1	1.60990492e+02	(2.74971497e-04 1.01701236e-05 5.00000000e-02)	3679	1	3.29126224e-02	(2.88500438e+00 1.01701236e-05 5.00000000e-02)	158	3
7               	2.66305231e-04	(2.88500438e+00 4.11625143e-03 5.00000000e-02)	6995	3	(2.45740822e-01 -1.81628452e-03 -9.17737252e-20)	8.85121319e-03	(2.88500438e+00 7.70222945e-05 5.00000000e-02)	635	3	4.05852448e+01	(2.88500438e+00 1.69914938e-01 5.00000000e-02)	16694	3	1.23029539e-09	(2.99912419e-05 1.01701236e-05 5.00000000e-02)	3675	1	1.60990639e+02	(3.37821652e-04 1.01701236e-05 5.00000000e-02)	3680	1	3.07592561e-02	(2.88500438e+00 1.01701236e-05 5.00000000e-02)	158	3
8               	2.58228294e-04	(2.88500438e+00 3.61536126e-03 5.00000000e-02)	6677	3	(2.20324655e-01 -2.85921308e-04 -8.17670724e-20)	8.50201979e-03	(2.88500438e+00 7.70222945e-05 5.00000000e-02)	635	3	3.73812001e+01	(2.88500438e+00 1.69914938e-01 5.00000000e-02)	16694	3	1.24016536e-09	(2.99912419e-05 1.01701236e-05 5.00000000e-02)	3675	1	1.60990804e+02	(4.65495188e-04 1.01701236e-05 5.00000000e-02)	3682	1	2.92114057e-02	(2.88500438e+00 1.01701236e-05 5.00000000e-02)	158	3
9               	2.51995288e-04	(2.88500438e+00 3.38649000e-03 5.00000000e-02)	6518	3	(2.00488089e-01 -4.51682064e-05 -7.39179293e-20)	8.10817706e-03	(2.88500438e+00 1.69914938e-01 5.00000000e-02)	16694	3	3.48711168e+01	(2.88500438e+00 1.69914938e-01 5.00000000e-02)	16694	3	1.22500551e-09	(2.99912419e-05 1.01701236e-05 5.00000000e-02)	3675	1	1.60991006e+02	(5.30332311e-04 1.01701236e-05 5.00000000e-02)	3683	1	2.80376321e-02	(2.88500438e+00 1.01701236e-05 5.00000000e-02)	158	3
10              	2.47367703e-04	(2.88500438e+00 3.17089454e-03 5.00000000e-02)	6359	3	(1.84442681e-01 -4.03722583e-09 -7.65763221e-20)	7.44729716e-03	(2.88500438e+00 1.69914938e-01 5.00000000e-02)	16694	3	3.28607833e+01	(2.88500438e+00 1.69914938e-01 5.00000000e-02)	16694	3	1.22866928e-09	(2.99912419e-05 1.01701236e-05 5.00000000e-02)	3675	1	1.60991228e+02	(6.62042164e-04 1.01701236e-05 5.00000000e-02)	3685	1	2.71127723e-02	(2.88500438e+00 1.01701236e-05 5.00000000e-02)	158	3
11              	2.43970436e-04	(2.88500438e+00 2.96780481e-03 5.00000000e-02)	6200	3	(1.71144853e-01 -2.82492526e-06 -7.89537211e-20)	6.89897710e-03	(2.88500438e+00 1.69914938e-01 5.00000000e-02)	16694	3	3.12219086e+01	(2.88500438e+00 1.69914938e-01 5.00000000e-02)	16694	3	1.22139823e-09	(2.99912419e-05 1.01701236e-05 5.00000000e-02)	3675	1	1.60991494e+02	(7.96513540e-04 1.01701236e-05 5.00000000e-02)	3687	1	2.63632236e-02	(2.88500438e+00 1.01701236e-05 5.00000000e-02)	158	3
12              	2.41421714e-04	(2.88500438e+00 1.01701236e-05 5.00000000e-02)	158	3	(1.59894944e-01 -1.34981033e-05 -8.07099033e-20)	6.43849490e-03	(2.88500438e+00 1.69914938e-01 5.00000000e-02)	16694	3	2.98663395e+01	(2.88500438e+00 1.69914938e-01 5.00000000e-02)	16694	3	1.22155135e-09	(2.99912419e-05 1.01701236e-05 5.00000000e-02)	3675	1	1.60991806e+02	(8.64802847e-04 1.01701236e-05 5.00000000e-02)	3688	1	2.57423061e-02	(2.88500438e+00 1.01701236e-05 5.00000000e-02)	158	3
13              	2.39669706e-04	(2.88500438e+00 1.01701236e-05 5.00000000e-02)	158	3	(1.50228953e-01 -1.02003785e-05 -8.19117810e-20)	6.04784150e-03	(2.88500438e+00 1.69914938e-01 5.00000000e-02)	16694	3	2.87315287e+01	(2.88500438e+00 1.69914938e-01 5.00000000e-02)	16694	3	1.21780468e-09	(2.99912419e-05 1.01701236e-05 5.00000000e-02)	3675	1	1.60992172e+02	(1.00352545e-03 1.01701236e-05 5.00000000e-02)	3690	1	2.52189368e-02	(2.88500438e+00 1.01701236e-05 5.00000000e-02)	158	3
14              	2.38644327e-04	(2.88500438e+00 1.01701236e-05 5.00000000e-02)	158	3	(1.41810795e-01 2.50942450e-10 -8.27008390e-20)	5.71358345e-03	(2.88500438e+00 1.69914938e-01 5.00000000e-02)	16694	3	2.77718763e+01	(2.88500438e+00 1.69914938e-01 5.00000000e-02)	16694	3	1.21740539e-09	(2.99912419e-05 1.01701236e-05 5.00000000e-02)	3675	1	1.60992611e+02	(1.14515661e-03 1.01701236e-05 5.00000000e-02)	3692	1	2.47714541e-02	(2.88500438e+00 1.01701236e-05 5.00000000e-02)	158	3
15              	2.38078837e-04	(2.88500438e+00 1.01701236e-05 5.00000000e-02)	158	3	(1.34398778e-01 -7.63322224e-10 -8.31966179e-20)	5.42549302e-03	(2.88500438e+00 1.69914938e-01 5.00000000e-02)	16694	3	2.69533638e+01	(2.88500438e+00 1.69914938e-01 5.00000000e-02)	16694	3	1.21498649e-09	(2.99912419e-05 1.01701236e-05 5.00000000e-02)	3675	1	1.60993114e+02	(1.21708191e-03 1.01701236e-05 5.00000000e-02)	3693	1	2.43842803e-02	(2.88500438e+00 1.01701236e-05 5.00000000e-02)	158	3
16              	2.37973091e-04	(2.88500438e+00 1.01701236e-05 5.00000000e-02)	158	3	(1.27809495e-01 -9.68371429e-10 -8.34879971e-20)	5.17564269e-03	(2.88500438e+00 1.69914938e-01 5.00000000e-02)	16694	3	2.62500974e+01	(2.88500438e+00 1.69914938e-01 5.00000000e-02)	16694	3	1.21423737e-09	(2.99912419e-05 1.01701236e-05 5.00000000e-02)	3675	1	1.60993698e+02	(1.36319065e-03 1.01701236e-05 5.00000000e-02)	3695	1	2.40458767e-02	(2.88500438e+00 1.01701236e-05 5.00000000e-02)	158	3
17              	2.38107051e-04	(2.88500438e+00 1.01701236e-05 5.00000000e-02)	158	3	(1.21903750e-01 -1.10890720e-09 -8.36352648e-20)	4.95779042e-03	(2.88500438e+00 1.69914938e-01 5.00000000e-02)	16694	3	2.56420217e+01	(2.88500438e+00 1.69914938e-01 5.00000000e-02)	16694	3	1.21271665e-09	(2.99912419e-05 1.01701236e-05 5.00000000e-02)	3675	1	1.60994370e+02	(1.51236281e-03 1.01701236e-05 5.00000000e-02)	3697	1	2.37474973e-02	(2.88500438e+00 1.01701236e-05 5.00000000e-02)	158	3
18              	2.38599190e-04	(2.88500438e+00 1.01701236e-05 5.00000000e-02)	158	3	(1.16572304e-01 -1.21519459e-09 -8.36884649e-20)	4.76695250e-03	(2.88500438e+00 1.69914938e-01 5.00000000e-02)	16694	3	2.51133651e+01	(2.88500438e+00 1.69914938e-01 5.00000000e-02)	16694	3	1.21181806e-09	(2.99912419e-05 1.01701236e-05 5.00000000e-02)	3675	1	1.60995138e+02	(1.58811769e-03 1.01701236e-05 5.00000000e-02)	3698	1	2.34823691e-02	(2.88500438e+00 1.01701236e-05 5.00000000e-02)	158	3
19              	2.39520355e-04	(2.88500438e+00 1.01701236e-05 5.00000000e-02)	158	3	(1.11728981e-01 -1.59752246e-09 -8.36841712e-20)	4.59910030e-03	(2.88500438e+00 1.69914938e-01 5.00000000e-02)	16694	3	2.46515556e+01	(2.88500438e+00 1.69914938e-01 5.00000000e-02)	16694	3	1.21061717e-09	(2.99912419e-05 1.01701236e-05 5.00000000e-02)	3675	1	1.60996003e+02	(1.74200583e-03 1.01701236e-05 5.00000000e-02)	3700	1	2.32451520e-02	(2.88500438e+00 1.01701236e-05 5.00000000e-02)	158	3
20              	2.40437707e-04	(2.88500438e+00 1.01701236e-05 5.00000000e-02)	158	3	(1.07304314e-01 -1.26152136e-09 -8.36473645e-20)	4.45094095e-03	(2.88500438e+00 1.69914938e-01 5.00000000e-02)	16694	3	2.42464514e+01	(2.88500438e+00 1.69914938e-01 5.00000000e-02)	16694	3	1.20953337e-09	(2.99912419e-05 1.01701236e-05 5.00000000e-02)	3675	1	1.60996986e+02	(1.89912051e-03 1.01701236e-05 5.00000000e-02)	3702	1	2.30315704e-02	(2.88500438e+00 1.01701236e-05 5.00000000e-02)	158	3
21              	2.41762201e-04	(2.88500438e+00 1.01701236e-05 5.00000000e-02)	158	3	(1.03241896e-01 -1.17897193e-09 -8.35967584e-20)	4.31975599e-03	(2.88500438e+00 1.69914938e-01 5.00000000e-02)	16694	3	2.38897829e+01	(2.88500438e+00 1.69914938e-01 5.00000000e-02)	16694	3	1.20841282e-09	(2.99912419e-05 1.01701236e-05 5.00000000e-02)	3675	1	1.60998099e+02	(2.05952936e-03 1.01701236e-05 5.00000000e-02)	3704	1	2.28381624e-02	(2.88500438e+00 1.01701236e-05 5.00000000e-02)	158	3
22              	2.43156716e-04	(2.88500438e+00 1.01701236e-05 5.00000000e-02)	158	3	(9.94952509e-02 -1.18063747e-09 -8.35442098e-20)	4.20328109e-03	(2.88500438e+00 1.69914938e-01 5.00000000e-02)	16694	3	2.35747384e+01	(2.88500438e+00 1.69914938e-01 5.00000000e-02)	16694	3	1.20745794e-09	(2.99912419e-05 1.01701236e-05 5.00000000e-02)	3675	1	1.60999355e+02	(2.22330146e-03 1.01701236e-05 5.00000000e-02)	3706	1	2.26621046e-02	(2.88500438e+00 1.01701236e-05 5.00000000e-02)	158	3
23              	2.44711351e-04	(2.88500438e+00 1.01701236e-05 5.00000000e-02)	158	3	(9.60257941e-02 -7.76047824e-10 -8.34936296e-20)	4.09961491e-03	(2.88500438e+00 1.69914938e-01 5.00000000e-02)	16694	3	2.32956638e+01	(2.88500438e+00 1.69914938e-01 5.00000000e-02)	16694	3	1.20670501e-09	(2.99912419e-05 1.01701236e-05 5.00000000e-02)	3675	1	1.61000769e+02	(2.39050732e-03 1.01701236e-05 5.00000000e-02)	3708	1	2.25010830e-02	(2.88500438e+00 1.01701236e-05 5.00000000e-02)	158	3
24              	2.46355896e-04	(2.88500438e+00 1.01701236e-05 5.00000000e-02)	158	3	(9.28011577e-02 -1.67735561e-09 -8.34472179e-20)	4.00714950e-03	(2.88500438e+00 1.69914938e-01 5.00000000e-02)	16694	3	2.30478183e+01	(2.88500438e+00 1.69914938e-01 5.00000000e-02)	16694	3	1.20599581e-09	(2.99912419e-05 1.01701236e-05 5.00000000e-02)	3675	1	1.61002354e+02	(2.56121894e-03 1.01701236e-05 5.00000000e-02)	3710	1	2.23531938e-02	(2.88500438e+00 1.01701236e-05 5.00000000e-02)	158	3
25              	2.47909932e-04	(2.88500438e+00 1.01701236e-05 5.00000000e-02)	158	3	(8.97939985e-02 -1.16876167e-09 -8.34059178e-20)	3.92451610e-03	(2.88500438e+00 1.69914938e-01 5.00000000e-02)	16694	3	2.28272104e+01	(2.88500438e+00 1.69914938e-01 5.00000000e-02)	16694	3	1.20519815e-09	(2.99912419e-05 1.01701236e-05 5.00000000e-02)	3675	1	1.61004127e+02	(2.73550983e-03 1.01701236e-05 5.00000000e-02)	3712	1	2.22168617e-02	(2.88500438e+00 1.01701236e-05 5.00000000e-02)	158	3
26              	2.49745962e-04	(2.88500438e+00 1.01701236e-05 5.00000000e-02)	158	3	(8.69810331e-02 -1.94354877e-09 -8.33700600e-20)	3.85054290e-03	(2.88500438e+00 1.69914938e-01 5.00000000e-02)	16694	3	2.26304464e+01	(2.88500438e+00 1.69914938e-01 5.00000000e-02)	16694	3	1.20441195e-09	(2.99912419e-05 1.01701236e-05 5.00000000e-02)	3675	1	1.61006102e+02	(2.91345502e-03 1.01701236e-05 5.00000000e-02)	3714	1	2.20907739e-02	(2.88500438e+00 1.01701236e-05 5.00000000e-02)	158	3
27              	2.51609786e-04	(2.88500438e+00 1.01701236e-05 5.00000000e-02)	158	3	(8.43423131e-02 -7.34479919e-10 -8.33391549e-20)	3.78422131e-03	(2.88500438e+00 1.69914938e-01 5.00000000e-02)	16694	3	2.24546325e+01	(2.88500438e+00 1.69914938e-01 5.00000000e-02)	16694	3	1.20360626e-09	(2.99912419e-05 1.01701236e-05 5.00000000e-02)	3675	1	1.61008296e+02	(3.09513114e-03 1.01701236e-05 5.00000000e-02)	3716	1	2.19738270e-02	(2.88500438e+00 1.01701236e-05 5.00000000e-02)	158	3
28              	2.53480374e-04	(2.88500438e+00 1.01701236e-05 5.00000000e-02)	158	3	(8.18606303e-02 -1.10745764e-09 -8.33123297e-20)	3.72467900e-03	(2.88500438e+00 1.69914938e-01 5.00000000e-02)	16694	3	2.22972817e+01	(2.88500438e+00 1.69914938e-01 5.00000000e-02)	16694	3	1.20278262e-09	(2.99912419e-05 1.01701236e-05 5.00000000e-02)	3675	1	1.61010724e+02	(3.28061642e-03 1.01701236e-05 5.00000000e-02)	3718	1	2.18650843e-02	(2.88500438e+00 1.01701236e-05 5.00000000e-02)	158	3
29              	2.55375715e-04	(2.88500438e+00 1.01701236e-05 5.00000000e-02)	158	3	(7.95210499e-02 -1.13139847e-09 -8.32881911e-20)	3.67115804e-03	(2.88500438e+00 1.69914938e-01 5.00000000e-02)	16694	3	2.21562505e+01	(2.88500438e+00 1.69914938e-01 5.00000000e-02)	16694	3	1.20195529e-09	(2.99912419e-05 1.01701236e-05 5.00000000e-02)	3675	1	1.61013401e+02	(3.46999071e-03 1.01701236e-05 5.00000000e-02)	3720	1	2.17637434e-02	(2.88500438e+00 1.01701236e-05 5.00000000e-02)	158	3
30              	2.57079640e-04	(2.88500438e+00 1.01701236e-05 5.00000000e-02)	158	3	(7.73105484e-02 -1.05764160e-09 -8.32654688e-20)	3.62299705e-03	(2.88500438e+00 1.69914938e-01 5.00000000e-02)	16694	3	2.20296810e+01	(2.88500438e+00 1.69914938e-01 5.00000000e-02)	16694	3	1.20111284e-09	(2.99912419e-05 1.01701236e-05 5.00000000e-02)	3675	1	1.61016344e+02	(3.66333556e-03 1.01701236e-05 5.00000000e-02)	3722	1	2.16691107e-02	(2.88500438e+00 1.01701236e-05 5.00000000e-02)	158	3
31              	2.58805685e-04	(2.88500438e+00 1.01701236e-05 5.00000000e-02)	158	3	(7.52177247e-02 -1.78615174e-10 -8.32430273e-20)	3.57961663e-03	(2.88500438e+00 1.69914938e-01 5.00000000e-02)	16694	3	2.19159582e+01	(2.88500438e+00 1.69914938e-01 5.00000000e-02)	16694	3	1.20026648e-09	(2.99912419e-05 1.01701236e-05 5.00000000e-02)	3675	1	1.61019570e+02	(3.86073421e-03 1.01701236e-05 5.00000000e-02)	3724	1	2.15805822e-02	(2.88500438e+00 1.01701236e-05 5.00000000e-02)	158	3
32              	2.60530879e-04	(2.88500438e+00 1.01701236e-05 5.00000000e-02)	158	3	(7.32325572e-02 -6.03856541e-10 -8.32203840e-20)	3.54050726e-03	(2.88500438e+00 1.69914938e-01 5.00000000e-02)	16694	3	2.18136723e+01	(2.88500438e+00 1.69914938e-01 5.00000000e-02)	16694	3	1.19941137e-09	(2.99912419e-05 1.01701236e-05 5.00000000e-02)	3675	1	1.61023095e+02	(4.06227167e-03 1.01701236e-05 5.00000000e-02)	3726	1	2.14976291e-02	(2.88500438e+00 1.01701236e-05 5.00000000e-02)	158	3
33              	2.62415115e-04	(2.88500438e+00 1.01701236e-05 5.00000000e-02)	158	3	(7.13461985e-02 -5.49535401e-10 -8.31978185e-20)	3.50521951e-03	(2.88500438e+00 1.69914938e-01 5.00000000e-02)	16694	3	2.17215889e+01	(2.88500438e+00 1.69914938e-01 5.00000000e-02)	16694	3	1.19855221e-09	(2.99912419e-05 1.01701236e-05 5.00000000e-02)	3675	1	1.61026933e+02	(4.26803471e-03 1.01701236e-05 5.00000000e-02)	3728	1	2.14197853e-02	(2.88500438e+00 1.01701236e-05 5.00000000e-02)	158	3
34              	2.64183563e-04	(2.88500438e+00 1.01701236e-05 5.00000000e-02)	158	3	(6.95508049e-02 3.04986179e-10 -8.31741709e-20)	3.47335576e-03	(2.88500438e+00 1.69914938e-01 5.00000000e-02)	16694	3	2.16386240e+01	(2.88500438e+00 1.69914938e-01 5.00000000e-02)	16694	3	1.19768811e-09	(2.99912419e-05 1.01701236e-05 5.00000000e-02)	3675	1	1.61031099e+02	(4.47811192e-03 1.01701236e-05 5.00000000e-02)	3730	1	2.13466386e-02	(2.88500438e+00 1.01701236e-05 5.00000000e-02)	158	3
35              	2.65856725e-04	(2.88500438e+00 1.01701236e-05 5.00000000e-02)	158	3	(6.78393934e-02 3.28342232e-11 -8.31492243e-20)	3.44456348e-03	(2.88500438e+00 1.69914938e-01 5.00000000e-02)	16694	3	2.15638222e+01	(2.88500438e+00 1.69914938e-01 5.00000000e-02)	16694	3	1.19682099e-09	(2.99912419e-05 1.01701236e-05 5.00000000e-02)	3675	1	1.61035607e+02	(4.69259377e-03 1.01701236e-05 5.00000000e-02)	3732	1	2.12778225e-02	(2.88500438e+00 1.01701236e-05 5.00000000e-02)	158	3
36              	2.67417910e-04	(2.88500438e+00 1.01701236e-05 5.00000000e-02)	158	3	(6.62057253e-02 3.31870000e-11 -8.31233748e-20)	3.41852951e-03	(2.88500438e+00 1.69914938e-01 5.00000000e-02)	16694	3	2.14963397e+01	(2.88500438e+00 1.69914938e-01 5.00000000e-02)	16694	3	1.19595142e-09	(2.99912419e-05 1.01701236e-05 5.00000000e-02)	3675	1	1.61040457e+02	(5.02277776e-03 1.01701236e-05 5.00000000e-02)	3735	1	2.12130102e-02	(2.88500438e+00 1.01701236e-05 5.00000000e-02)	158	3
37              	2.68884843e-04	(2.88500438e+00 1.01701236e-05 5.00000000e-02)	158	3	(6.46442066e-02 1.20298677e-10 -8.30971559e-20)	3.39497523e-03	(2.88500438e+00 1.69914938e-01 5.00000000e-02)	16694	3	2.14354284e+01	(2.88500438e+00 1.69914938e-01 5.00000000e-02)	16694	3	1.19508051e-09	(2.99912419e-05 1.01701236e-05 5.00000000e-02)	3675	1	1.61045667e+02	(5.24867946e-03 1.01701236e-05 5.00000000e-02)	3737	1	2.11519085e-02	(2.88500438e+00 1.01701236e-05 5.00000000e-02)	158	3
38              	2.70020137e-04	(2.88500438e+00 1.01701236e-05 5.00000000e-02)	158	3	(6.31498050e-02 1.83204635e-10 -8.30711657e-20)	3.37365252e-03	(2.88500438e+00 1.69914938e-01 5.00000000e-02)	16694	3	2.13804244e+01	(2.88500438e+00 1.69914938e-01 5.00000000e-02)	16694	3	1.19420914e-09	(2.99912419e-05 1.01701236e-05 5.00000000e-02)	3675	1	1.61051251e+02	(5.47931758e-03 1.01701236e-05 5.00000000e-02)	3739	1	2.10942541e-02	(2.88500438e+00 1.01701236e-05 5.00000000e-02)	158	3
39              	2.71153187e-04	(2.88500438e+00 1.01701236e-05 5.00000000e-02)	158	3	(6.17179745e-02 5.10543429e-10 -8.30459431e-20)	3.35434006e-03	(2.88500438e+00 1.69914938e-01 5.00000000e-02)	16694	3	2.13307362e+01	(2.88500438e+00 1.69914938e-01 5.00000000e-02)	16694	3	1.19333824e-09	(2.99912419e-05 1.01701236e-05 5.00000000e-02)	3675	1	1.61057205e+02	(5.83437334e-03 1.01701236e-05 5.00000000e-02)	3742	1	2.10398090e-02	(2.88500438e+00 1.01701236e-05 5.00000000e-02)	158	3
40              	2.72176777e-04	(2.88500438e+00 1.01701236e-05 5.00000000e-02)	158	3	(6.03445952e-02 4.87668671e-10 -8.30215363e-20)	3.33684033e-03	(2.88500438e+00 1.69914938e-01 5.00000000e-02)	16694	3	2.12858363e+01	(2.88500438e+00 1.69914938e-01 5.00000000e-02)	16694	3	1.19246869e-09	(2.99912419e-05 1.01701236e-05 5.00000000e-02)	3675	1	1.61063541e+02	(6.07729154e-03 1.01701236e-05 5.00000000e-02)	3744	1	2.09883577e-02	(2.88500438e+00 1.01701236e-05 5.00000000e-02)	158	3
41              	2.73084590e-04	(2.88500438e+00 1.01701236e-05 5.00000000e-02)	158	3	(5.90259251e-02 5.06791127e-10 -8.29980845e-20)	3.32097673e-03	(2.88500438e+00 1.69914938e-01 5.00000000e-02)	16694	3	2.12452534e+01	(2.88500438e+00 1.69914938e-01 5.00000000e-02)	16694	3	1.19160136e-09	(2.99912419e-05 1.01701236e-05 5.00000000e-02)	3675	1	1.61070263e+02	(6.45125187e-03 1.01701236e-05 5.00000000e-02)	3747	1	2.09397038e-02	(2.88500438e+00 1.01701236e-05 5.00000000e-02)	158	3
42              	2.74060852e-04	(2.88500438e+00 1.01701236e-05 5.00000000e-02)	158	3	(5.77585598e-02 5.15351030e-10 -8.29757342e-20)	3.30659123e-03	(2.88500438e+00 1.69914938e-01 5.00000000e-02)	16694	3	2.12085654e+01	(2.88500438e+00 1.69914938e-01 5.00000000e-02)	16694	3	1.19073704e-09	(2.99912419e-05 1.01701236e-05 5.00000000e-02)	3675	1	1.61077376e+02	(6.70710399e-03 1.01701236e-05 5.00000000e-02)	3749	1	2.08936680e-02	(2.88500438e+00 1.01701236e-05 5.00000000e-02)	158	3
43              	2.74809263e-04	(2.88500438e+00 1.01701236e-05 5.00000000e-02)	158	3	(5.65393935e-02 -1.03155869e-10 -8.29545615e-20)	3.29354220e-03	(2.88500438e+00 1.69914938e-01 5.00000000e-02)	16694	3	2.11753944e+01	(2.88500438e+00 1.69914938e-01 5.00000000e-02)	16694	3	1.18987646e-09	(2.99912419e-05 1.01701236e-05 5.00000000e-02)	3675	1	1.61084873e+02	(7.10097543e-03 1.01701236e-05 5.00000000e-02)	3752	1	2.08500860e-02	(2.88500438e+00 1.01701236e-05 5.00000000e-02)	158	3
44              	2.75327057e-04	(2.88500438e+00 1.01701236e-05 5.00000000e-02)	158	3	(5.53655825e-02 3.98910044e-10 -8.29346134e-20)	3.28170250e-03	(2.88500438e+00 1.69914938e-01 5.00000000e-02)	16694	3	2.11454012e+01	(2.88500438e+00 1.69914938e-01 5.00000000e-02)	16694	3	1.18902027e-09	(2.99912419e-05 1.01701236e-05 5.00000000e-02)	3675	1	1.61092769e+02	(7.50729887e-03 1.01701236e-05 5.00000000e-02)	3755	1	2.08088067e-02	(2.88500438e+00 1.01701236e-05 5.00000000e-02)	158	3
45              	2.75604931e-04	(2.88500438e+00 1.01701236e-05 5.00000000e-02)	158	3	(5.42345144e-02 4.16512351e-10 -8.29159157e-20)	3.27095788e-03	(2.88500438e+00 1.69914938e-01 5.00000000e-02)	16694	3	2.11182816e+01	(2.88500438e+00 1.69914938e-01 5.00000000e-02)	16694	3	1.18816901e-09	(2.99912419e-05 1.01701236e-05 5.00000000e-02)	3675	1	1.61101060e+02	(7.78529283e-03 1.01701236e-05 5.00000000e-02)	3757	1	2.07696910e-02	(2.88500438e+00 1.01701236e-05 5.00000000e-02)	158	3
46              	2.75640913e-04	(2.88500438e+00 1.01701236e-05 5.00000000e-02)	158	3	(5.31437819e-02 3.14914948e-10 -8.28984501e-20)	3.26120554e-03	(2.88500438e+00 1.69914938e-01 5.00000000e-02)	16694	3	2.10937617e+01	(2.88500438e+00 1.69914938e-01 5.00000000e-02)	16694	3	1.18732317e-09	(2.99912419e-05 1.01701236e-05 5.00000000e-02)	3675	1	1.61109742e+02	(8.21325053e-03 1.01701236e-05 5.00000000e-02)	3760	1	2.07326105e-02	(2.88500438e+00 1.01701236e-05 5.00000000e-02)	158	3
47              	2.75415670e-04	(2.88500438e+00 1.01701236e-05 5.00000000e-02)	158	3	(5.20911602e-02 3.71424562e-10 -8.28821514e-20)	3.25235294e-03	(2.88500438e+00 1.69914938e-01 5.00000000e-02)	16694	3	2.10715952e+01	(2.88500438e+00 1.69914938e-01 5.00000000e-02)	16694	3	1.18648311e-09	(2.99912419e-05 1.01701236e-05 5.00000000e-02)	3675	1	1.61118827e+02	(8.65473783e-03 1.01701236e-05 5.00000000e-02)	3763	1	2.06974461e-02	(2.88500438e+00 1.01701236e-05 5.00000000e-02)	158	3
48              	2.74724543e-04	(2.88500438e+00 1.01701236e-05 5.00000000e-02)	158	3	(5.10745888e-02 -2.47954253e-11 -8.28670611e-20)	3.24431675e-03	(2.88500438e+00 1.69914938e-01 5.00000000e-02)	16694	3	2.10515600e+01	(2.88500438e+00 1.69914938e-01 5.00000000e-02)	16694	3	1.18564918e-09	(2.99912419e-05 1.01701236e-05 5.00000000e-02)	3675	1	1.61128321e+02	(9.11018247e-03 1.01701236e-05 5.00000000e-02)	3766	1	2.06640876e-02	(2.88500438e+00 1.01701236e-05 5.00000000e-02)	158	3
49              	2.73962200e-04	(2.88500438e+00 1.01701236e-05 5.00000000e-02)	158	3	(5.00921556e-02 6.13121534e-10 -8.28532437e-20)	3.23702204e-03	(2.88500438e+00 1.69914938e-01 5.00000000e-02)	16694	3	2.10334551e+01	(2.88500438e+00 1.69914938e-01 5.00000000e-02)	16694	3	1.18482165e-09	(2.99912419e-05 1.01701236e-05 5.00000000e-02)	3675	1	1.61138230e+02	(9.58002571e-03 1.01701236e-05 5.00000000e-02)	3769	1	2.06324321e-02	(2.88500438e+00 1.01701236e-05 5.00000000e-02)	158	3
50              	2.72645412e-04	(2.88500438e+00 1.01701236e-05 5.00000000e-02)	158	3	(4.91420839e-02 -1.11564086e-09 -8.28404162e-20)	3.23040162e-03	(2.88500438e+00 1.69914938e-01 5.00000000e-02)	16694	3	2.10170986e+01	(2.88500438e+00 1.69914938e-01 5.00000000e-02)	16694	3	1.18399101e-09	(2.99912419e-05 1.01701236e-05 5.00000000e-02)	3675	1	1.61148553e+02	(9.90147795e-03 1.01701236e-05 5.00000000e-02)	3771	1	2.06023838e-02	(2.88500438e+00 1.01701236e-05 5.00000000e-02)	158	3
51              	2.71300440e-04	(2.88500438e+00 1.01701236e-05 5.00000000e-02)	158	3	(4.82227168e-02 -7.22784954e-10 -8.28311319e-20)	3.22439549e-03	(2.88500438e+00 1.69914938e-01 5.00000000e-02)	16694	3	2.10023246e+01	(2.88500438e+00 1.69914938e-01 5.00000000e-02)	16694	3	1.18317043e-09	(2.99912419e-05 1.01701236e-05 5.00000000e-02)	3675	1	1.61159309e+02	(1.03963375e-02 1.01701236e-05 5.00000000e-02)	3774	1	2.05738531e-02	(2.88500438e+00 1.01701236e-05 5.00000000e-02)	158	3
52              	2.69401362e-04	(2.88500438e+00 1.01701236e-05 5.00000000e-02)	158	3	(4.73325104e-02 -1.60336716e-09 -8.28222452e-20)	3.21895047e-03	(2.88500438e+00 1.69914938e-01 5.00000000e-02)	16694	3	2.09889816e+01	(2.88500438e+00 1.69914938e-01 5.00000000e-02)	16694	3	1.18235710e-09	(2.99912419e-05 1.01701236e-05 5.00000000e-02)	3675	1	1.61170519e+02	(1.07349051e-02 1.01701236e-05 5.00000000e-02)	3776	1	2.05467564e-02	(2.88500438e+00 1.01701236e-05 5.00000000e-02)	158	3
53              	2.67215343e-04	(2.88500438e+00 1.01701236e-05 5.00000000e-02)	158	3	(4.64700243e-02 -1.76847190e-09 -8.28140019e-20)	3.21401987e-03	(2.88500438e+00 1.69914938e-01 5.00000000e-02)	16694	3	2.09769300e+01	(2.88500438e+00 1.69914938e-01 5.00000000e-02)	16694	3	1.18154826e-09	(2.99912419e-05 1.01701236e-05 5.00000000e-02)	3675	1	1.61182170e+02	(1.12561129e-02 1.01701236e-05 5.00000000e-02)	3779	1	2.05200682e-02	(2.88500438e+00 1.28732992e-04 5.00000000e-02)	953	3
54              	2.64698585e-04	(2.88500438e+00 1.01701236e-05 5.00000000e-02)	158	3	(4.56339182e-02 -7.26055216e-10 -8.28062560e-20)	3.20956335e-03	(2.88500438e+00 1.69914938e-01 5.00000000e-02)	16694	3	2.09660402e+01	(2.88500438e+00 1.69914938e-01 5.00000000e-02)	16694	3	1.18074673e-09	(2.99912419e-05 1.01701236e-05 5.00000000e-02)	3675	1	1.61194305e+02	(1.16127072e-02 1.01701236e-05 5.00000000e-02)	3781	1	2.04940208e-02	(2.88500438e+00 1.57000272e-04 5.00000000e-02)	1112	3
55              	2.62044594e-04	(2.88500438e+00 1.01701236e-05 5.00000000e-02)	158	3	(4.48229426e-02 -4.21820177e-11 -8.27990221e-20)	3.20551647e-03	(2.88500438e+00 3.78891055e-02 5.00000000e-02)	12719	3	2.09561909e+01	(2.88500438e+00 1.69914938e-01 5.00000000e-02)	16694	3	1.17995108e-09	(2.99912419e-05 1.01701236e-05 5.00000000e-02)	3675	1	1.61206910e+02	(1.21616662e-02 1.01701236e-05 5.00000000e-02)	3784	1	2.04692983e-02	(2.88500438e+00 1.57000272e-04 5.00000000e-02)	1112	3
56              	2.58808102e-04	(2.88500438e+00 1.01701236e-05 5.00000000e-02)	158	3	(4.40359322e-02 -2.80537394e-09 -8.27920687e-20)	3.19827700e-03	(2.88500438e+00 3.78891055e-02 5.00000000e-02)	12719	3	2.09472670e+01	(2.88500438e+00 1.69914938e-01 5.00000000e-02)	16694	3	1.17916196e-09	(2.99912419e-05 1.01701236e-05 5.00000000e-02)	3675	1	1.61220009e+02	(1.25372469e-02 1.01701236e-05 5.00000000e-02)	3786	1	2.04454087e-02	(2.88500438e+00 1.87008177e-04 5.00000000e-02)	1271	3
57              	2.55153918e-04	(2.88500438e+00 1.01701236e-05 5.00000000e-02)	158	3	(4.32717979e-02 -9.84179375e-10 -8.27853620e-20)	3.19120947e-03	(2.88500438e+00 3.56721684e-02 5.00000000e-02)	12560	3	2.09391581e+01	(2.88500438e+00 1.69914938e-01 5.00000000e-02)	16694	3	1.17837908e-09	(2.99912419e-05 1.01701236e-05 5.00000000e-02)	3675	1	1.61233615e+02	(1.29207024e-02 1.01701236e-05 5.00000000e-02)	3788	1	2.04227825e-02	(2.88500438e+00 1.87008177e-04 5.00000000e-02)	1271	3
58              	2.51319862e-04	(2.88500438e+00 1.01701236e-05 5.00000000e-02)	158	3	(4.25295217e-02 -2.56828671e-10 -8.27788967e-20)	3.18430692e-03	(2.88500438e+00 3.56721684e-02 5.00000000e-02)	12560	3	2.09317567e+01	(2.88500438e+00 1.69914938e-01 5.00000000e-02)	16694	3	1.17760238e-09	(2.99912419e-05 1.01701236e-05 5.00000000e-02)	3675	1	1.61247732e+02	(1.33121977e-02 1.01701236e-05 5.00000000e-02)	3790	1	2.04009568e-02	(2.88500438e+00 2.18863888e-04 5.00000000e-02)	1430	3
59              	2.46799193e-04	(2.88500438e+00 1.01701236e-05 5.00000000e-02)	158	3	(4.18081506e-02 -1.87615253e-09 -8.27726574e-20)	3.17738257e-03	(2.88500438e+00 3.35838259e-02 5.00000000e-02)	12401	3	2.09249570e+01	(2.88500438e+00 1.69914938e-01 5.00000000e-02)	16694	3	1.17683193e-09	(2.99912419e-05 1.01701236e-05 5.00000000e-02)	3675	1	1.61262363e+02	(1.39148850e-02 1.01701236e-05 5.00000000e-02)	3793	1	2.03802381e-02	(2.88500438e+00 2.18863888e-04 5.00000000e-02)	1430	3
60              	2.41798616e-04	(2.88500438e+00 1.01701236e-05 5.00000000e-02)	158	3	(4.11067898e-02 -2.13905498e-09 -8.27666557e-20)	3.17073526e-03	(2.88500438e+00 3.35838259e-02 5.00000000e-02)	12401	3	2.09186536e+01	(2.88500438e+00 1.69914938e-01 5.00000000e-02)	16694	3	1.17606769e-09	(2.99912419e-05 1.01701236e-05 5.00000000e-02)	3675	1	1.61276332e+02	(-4.68052535e-02 1.01701236e-05 5.00000000e-02)	0	1	2.03603858e-02	(2.88500438e+00 2.52681188e-04 5.00000000e-02)	1589	3