/*--------------------------------*- C++ -*----------------------------------*\
  =========                 |
  \\      /  F ield         | OpenFOAM: The Open Source CFD Toolbox
   \\    /   O peration     | Website:  https://openfoam.org
    \\  /    A nd           | Version:  12
     \\/     M anipulation  |
\*---------------------------------------------------------------------------*/
FoamFile
{
    format      ascii;
    class       volScalarField;
    location    "100";
    object      p;
}
// * * * * * * * * * * * * * * * * * * * * * * * * * * * * * * * * * * * * * //

dimensions      [0 2 -2 0 0 0 0];

internalField   nonuniform List<scalar> 
3000
(
13.0793817607
13.0819681625
13.0856796484
13.0910700042
13.0976290941
13.1050086957
13.1129871134
13.1213987138
13.1301121627
13.1390224932
13.1480441946
13.1571051026
13.1661417904
13.1750965598
13.1839158739
13.1925499577
13.2009532079
13.2090850359
13.2169108007
13.2244025698
13.2315395428
13.2383081035
13.2447016174
13.250719958
13.256367529
13.2616483607
13.2665704343
13.2712004388
13.2757103493
13.2798430692
12.3845891898
12.3840675219
12.3799169537
12.3740603526
12.3670654648
12.3592828113
12.3510038171
12.3424798035
12.3339296836
12.3255448528
12.3174898413
12.3099006032
12.3028824056
12.2965085817
12.2908208152
12.2858311402
12.2815254569
12.2778681342
12.27480717
12.2722794081
12.2702154017
12.2685436381
12.2671939616
12.2661001899
12.2652021569
12.2644472462
12.2637891817
12.2631796484
12.2625707984
12.2620243985
12.4488280531
12.4485911876
12.448717133
12.4493395149
12.4501430324
12.4509926583
12.4518358423
12.4526457948
12.4534074182
12.4541126303
12.4547570531
12.4553379264
12.4558531621
12.4563011378
12.4566808753
12.4569923528
12.4572367879
12.4574167919
12.4575363574
12.4576006853
12.4576158938
12.4575886607
12.457525854
12.4574342122
12.4573201427
12.4571895514
12.4570470314
12.456894163
12.4567341485
12.4566023669
12.130698496
12.1309620901
12.1300018723
12.1285716887
12.1269128786
12.1251789002
12.1234797438
12.1218904055
12.1204573098
12.1192039793
12.1181360963
12.1172463514
12.1165189898
12.1159337576
12.1154690048
12.1151038518
12.1148194847
12.1145997453
12.1144312268
12.1143030705
12.1142066213
12.1141350445
12.1140829663
12.1140461619
12.1140212954
12.1140057343
12.1139975249
12.1139953523
12.1139970442
12.1139956167
12.044820848
12.0449212326
12.0450683976
12.045444979
12.0459314626
12.0464590963
12.0469922089
12.0475072532
12.047987262
12.0484207453
12.0488009994
12.049125382
12.0493945428
12.0496116063
12.0497813566
12.0499094958
12.0500020359
12.050064849
12.0501033704
12.0501224314
12.0501261925
12.0501181444
12.0501011536
12.0500775348
12.0500491449
12.0500174629
12.0499835061
12.049947553
12.0499102918
12.0498795347
11.8658471208
11.8659679207
11.8656641
11.8652443441
11.8647708286
11.864286254
11.8638222959
11.863398236
11.8630235058
11.8627007666
11.8624283407
11.86220204
11.8620164795
11.8618659474
11.8617449281
11.8616483805
11.8615718597
11.861511545
11.8614642151
11.8614271973
11.8613983041
11.8613757667
11.8613581709
11.8613443966
11.8613335645
11.8613249941
11.861318182
11.8613127423
11.8613081069
11.8613032662
11.7416589218
11.7417455552
11.7417628282
11.7418447049
11.7419594731
11.7420876925
11.7422195721
11.7423481459
11.7424680572
11.7425756576
11.7426689262
11.742747198
11.7428108284
11.7428608604
11.7428987368
11.7429260741
11.7429445026
11.7429555622
11.7429606432
11.7429609597
11.7429575445
11.7429512578
11.7429428037
11.7429327513
11.7429215599
11.7429096004
11.7428971235
11.7428841591
11.7428708472
11.7428596169
11.5979551789
11.5980167776
11.5979183626
11.5977964057
11.5976644155
11.597532053
11.5974073717
11.5972949681
11.5971966645
11.5971125695
11.5970418134
11.5969830222
11.596934624
11.5968950394
11.5968627902
11.5968365545
11.5968151873
11.5967977206
11.5967833512
11.5967714232
11.596761408
11.5967528843
11.5967455203
11.5967390571
11.5967332957
11.5967280865
11.5967233161
11.5967188661
11.5967145811
11.596710617
11.4688318456
11.4688748688
11.4688611341
11.4688655376
11.4688796295
11.4688983984
11.4689198456
11.4689423663
11.4689644733
11.4689849967
11.4690031534
11.469018516
11.4690309435
11.4690405044
11.4690474059
11.4690519344
11.46905441
11.4690551552
11.469054474
11.4690526405
11.4690498935
11.4690464358
11.4690424359
11.4690380325
11.4690333398
11.4690284527
11.4690234336
11.4690182747
11.4690130061
11.4690084582
11.3363263853
11.3363544829
11.3363173164
11.3362764252
11.3362344601
11.3361936075
11.3361561083
11.3361231283
11.3360949385
11.3360713063
11.3360517519
11.3360356997
11.3360225687
11.3360118213
11.3360029867
11.3359956668
11.3359895334
11.3359843213
11.335979819
11.33597586
11.3359723144
11.3359690821
11.3359660864
11.3359632699
11.3359605905
11.3359580189
11.335955532
11.3359530934
11.335950666
11.3359484558
11.2081656932
11.2081841083
11.2081708698
11.2081632282
11.2081588502
11.2081565111
11.2081559605
11.20815686
11.208158734
11.208161113
11.2081636086
11.2081659355
11.2081679071
11.2081694198
11.2081704339
11.208170954
11.208171013
11.2081706589
11.2081699464
11.20816893
11.2081676611
11.2081661856
11.2081645436
11.2081627694
11.2081608931
11.2081589407
11.2081569296
11.2081548544
11.2081527268
11.2081508453
11.0799182122
11.0799294338
11.0799134912
11.0798976318
11.0798822433
11.0798678449
11.0798551194
11.079844359
11.0798355264
11.0798284164
11.0798227597
11.0798182807
11.0798147267
11.0798118816
11.0798095685
11.0798076471
11.0798060088
11.0798045711
11.0798032719
11.0798020656
11.0798009186
11.0797998068
11.0797987132
11.0797976265
11.0797965396
11.0797954492
11.0797943524
11.0797932397
11.0797921069
11.0797910682
10.9531375344
10.9531442875
10.9531360246
10.9531296868
10.9531246343
10.9531206229
10.9531177007
10.9531157924
10.9531147077
10.9531142242
10.9531141353
10.9531142705
10.9531145009
10.9531147358
10.9531149167
10.9531150098
10.9531149986
10.9531148788
10.9531146533
10.9531143291
10.9531139153
10.9531134218
10.9531128582
10.9531122337
10.9531115571
10.9531108369
10.953110079
10.9531092826
10.9531084554
10.9531077039
10.8266929275
10.8266966104
10.8266893871
10.8266826499
10.8266764145
10.8266708316
10.8266661199
10.826662338
10.8266594143
10.826657218
10.8266556031
10.8266544321
10.8266535865
10.8266529702
10.8266525088
10.8266521461
10.8266518413
10.8266515653
10.8266512979
10.8266510253
10.8266507388
10.8266504328
10.8266501044
10.8266497523
10.8266493768
10.8266489792
10.8266485606
10.8266481198
10.8266476597
10.8266472296
10.7008000859
10.7008019658
10.7007976273
10.700794015
10.7007909678
10.7007884708
10.7007865757
10.7007852548
10.7007844179
10.7007839539
10.7007837554
10.700783731
10.7007838083
10.7007839337
10.7007840698
10.7007841918
10.7007842847
10.7007843399
10.7007843539
10.7007843258
10.7007842568
10.7007841489
10.7007840051
10.7007838283
10.7007836218
10.700783389
10.7007831325
10.7007828532
10.700782556
10.7007822772
10.5751434092
10.5751441797
10.5751409582
10.5751380536
10.5751354581
10.5751332322
10.5751314451
10.5751300965
10.5751291352
10.575128489
10.5751280838
10.5751278529
10.5751277412
10.5751277055
10.5751277137
10.5751277423
10.5751277753
10.5751278018
10.575127815
10.5751278107
10.5751277868
10.5751277424
10.5751276776
10.5751275931
10.57512749
10.5751273699
10.5751272339
10.5751270829
10.5751269197
10.5751267623
10.4497032341
10.4497034305
10.4497014273
10.4496997075
10.4496982417
10.4496970517
10.4496961609
10.4496955524
10.4496951816
10.4496949946
10.4496949397
10.4496949727
10.4496950583
10.4496951704
10.4496952904
10.4496954057
10.4496955083
10.4496955935
10.4496956589
10.4496957038
10.4496957283
10.449695733
10.4496957193
10.4496956884
10.4496956417
10.4496955809
10.4496955071
10.4496954214
10.4496953265
10.4496952335
10.3243785632
10.3243784752
10.3243771388
10.3243759535
10.3243749224
10.3243740743
10.3243734286
10.3243729758
10.3243726873
10.3243725282
10.324372464
10.3243724652
10.3243725078
10.3243725738
10.3243726499
10.324372727
10.324372799
10.3243728622
10.3243729142
10.3243729542
10.3243729818
10.3243729971
10.3243730007
10.3243729933
10.3243729757
10.3243729488
10.3243729133
10.3243728701
10.3243728208
10.3243727709
10.1991357606
10.1991355771
10.1991347684
10.1991340659
10.1991334709
10.1991329999
10.19913266
10.1991324407
10.1991323214
10.1991322781
10.1991322886
10.199132334
10.1991323996
10.1991324744
10.1991325507
10.1991326234
10.1991326894
10.1991327468
10.1991327947
10.199132833
10.1991328618
10.1991328815
10.1991328927
10.1991328961
10.1991328923
10.1991328821
10.1991328659
10.1991328444
10.1991328188
10.1991327922
10.073938827
10.0739386373
10.0739381477
10.0739377173
10.0739373517
10.0739370637
10.0739368575
10.0739367261
10.0739366563
10.0739366334
10.0739366435
10.0739366751
10.073936719
10.0739367686
10.0739368191
10.0739368675
10.0739369117
10.0739369507
10.0739369838
10.073937011
10.0739370324
10.0739370483
10.0739370589
10.0739370647
10.0739370661
10.0739370635
10.0739370573
10.0739370479
10.0739370359
10.0739370228
9.94876955674
9.94876940366
9.94876912846
9.94876888862
9.94876868867
9.94876853618
9.94876843228
9.94876837175
9.9487683462
9.94876834655
9.94876836456
9.94876839345
9.94876842803
9.94876846454
9.94876850043
9.94876853406
9.94876856445
9.94876859111
9.94876861386
9.94876863274
9.94876864789
9.94876865955
9.94876866798
9.94876867345
9.94876867624
9.9487686766
9.94876867479
9.94876867104
9.94876866582
9.94876865974
9.82361507175
9.8236149644
9.82361481657
9.82361468737
9.82361458046
9.82361450046
9.82361444763
9.82361441869
9.82361440875
9.82361441267
9.82361442584
9.82361444454
9.82361446595
9.82361448807
9.82361450954
9.82361452954
9.82361454757
9.8236145634
9.82361457699
9.82361458837
9.82361459765
9.82361460498
9.82361461052
9.82361461442
9.82361461685
9.82361461795
9.82361461785
9.82361461671
9.82361461476
9.82361461224
9.69846823072
9.69846816429
9.69846809147
9.6984680281
9.6984679766
9.69846793944
9.69846791642
9.69846790556
9.69846790415
9.69846790941
9.69846791897
9.6984679309
9.69846794381
9.69846795674
9.69846796904
9.69846798034
9.69846799046
9.69846799931
9.6984680069
9.69846801329
9.69846801855
9.69846802278
9.69846802607
9.69846802851
9.69846803018
9.69846803118
9.69846803156
9.69846803141
9.69846803084
9.69846802995
9.57332496051
9.57332492406
9.57332489173
9.57332486366
9.57332484129
9.5733248258
9.57332481697
9.57332481373
9.57332481471
9.57332481857
9.57332482419
9.57332483068
9.57332483744
9.57332484405
9.57332485023
9.57332485586
9.57332486085
9.57332486521
9.57332486896
9.57332487212
9.57332487474
9.57332487688
9.57332487859
9.5733248799
9.57332488086
9.57332488152
9.57332488189
9.57332488203
9.57332488198
9.57332488176
9.44818315396
9.44818313663
9.44818312452
9.44818311404
9.44818310596
9.44818310078
9.44818309833
9.44818309808
9.44818309943
9.4481831018
9.44818310473
9.44818310788
9.44818311102
9.448183114
9.44818311674
9.44818311919
9.44818312135
9.44818312323
9.44818312483
9.44818312619
9.44818312733
9.44818312827
9.44818312904
9.44818312966
9.44818313013
9.44818313049
9.44818313074
9.4481831309
9.44818313098
9.44818313099
9.32304183291
9.32304182616
9.32304182299
9.32304182028
9.32304181838
9.32304181745
9.32304181737
9.32304181793
9.32304181892
9.32304182013
9.32304182142
9.3230418227
9.3230418239
9.32304182499
9.32304182596
9.32304182682
9.32304182755
9.32304182819
9.32304182873
9.32304182919
9.32304182958
9.32304182991
9.32304183019
9.32304183042
9.32304183061
9.32304183077
9.3230418309
9.323041831
9.32304183109
9.32304183115
9.19790059311
9.19790059134
9.19790059141
9.19790059149
9.19790059171
9.19790059209
9.19790059259
9.19790059313
9.19790059367
9.19790059416
9.19790059459
9.19790059496
9.19790059526
9.19790059551
9.19790059571
9.19790059587
9.19790059601
9.19790059612
9.19790059621
9.19790059629
9.19790059637
9.19790059643
9.19790059649
9.19790059655
9.19790059661
9.19790059666
9.19790059672
9.19790059677
9.19790059682
9.19790059687
9.07275931239
9.07275931249
9.0727593133
9.07275931403
9.07275931468
9.07275931524
9.0727593157
9.07275931604
9.07275931628
9.07275931642
9.07275931649
9.07275931651
9.07275931649
9.07275931645
9.07275931639
9.07275931633
9.07275931628
9.07275931622
9.07275931618
9.07275931614
9.07275931611
9.07275931609
9.07275931608
9.07275931607
9.07275931608
9.07275931609
9.0727593161
9.07275931613
9.07275931615
9.07275931618
8.94761797642
8.94761797693
8.94761797762
8.94761797822
8.94761797873
8.94761797912
8.9476179794
8.94761797956
8.94761797963
8.94761797963
8.94761797959
8.94761797952
8.94761797943
8.94761797933
8.94761797923
8.94761797914
8.94761797906
8.94761797899
8.94761797893
8.94761797888
8.94761797883
8.9476179788
8.94761797877
8.94761797876
8.94761797875
8.94761797874
8.94761797874
8.94761797875
8.94761797876
8.94761797877
8.82247660236
8.82247660277
8.82247660317
8.82247660352
8.8224766038
8.82247660401
8.82247660414
8.82247660419
8.8224766042
8.82247660417
8.82247660412
8.82247660405
8.82247660398
8.82247660391
8.82247660384
8.82247660378
8.82247660372
8.82247660367
8.82247660363
8.82247660359
8.82247660357
8.82247660354
8.82247660352
8.82247660351
8.8224766035
8.8224766035
8.82247660349
8.82247660349
8.8224766035
8.8224766035
8.69733520887
8.6973352091
8.69733520928
8.69733520943
8.69733520956
8.69733520964
8.69733520968
8.6973352097
8.69733520969
8.69733520966
8.69733520963
8.69733520959
8.69733520955
8.69733520951
8.69733520948
8.69733520944
8.69733520942
8.69733520939
8.69733520937
8.69733520935
8.69733520934
8.69733520933
8.69733520932
8.69733520931
8.6973352093
8.6973352093
8.6973352093
8.6973352093
8.6973352093
8.6973352093
8.57219380745
8.57219380754
8.5721938076
8.57219380765
8.57219380769
8.57219380772
8.57219380773
8.57219380772
8.57219380771
8.5721938077
8.57219380768
8.57219380767
8.57219380765
8.57219380763
8.57219380762
8.57219380761
8.5721938076
8.57219380759
8.57219380758
8.57219380757
8.57219380757
8.57219380756
8.57219380756
8.57219380756
8.57219380755
8.57219380755
8.57219380755
8.57219380755
8.57219380755
8.57219380755
8.44705240388
8.44705240391
8.44705240392
8.44705240393
8.44705240393
8.44705240394
8.44705240393
8.44705240393
8.44705240392
8.44705240392
8.44705240391
8.44705240391
8.4470524039
8.4470524039
8.44705240389
8.44705240389
8.44705240389
8.44705240389
8.44705240388
8.44705240388
8.44705240388
8.44705240388
8.44705240388
8.44705240388
8.44705240388
8.44705240388
8.44705240388
8.44705240388
8.44705240388
8.44705240388
8.32191100014
8.32191100014
8.32191100013
8.32191100013
8.32191100013
8.32191100012
8.32191100012
8.32191100012
8.32191100012
8.32191100011
8.32191100011
8.32191100011
8.32191100011
8.32191100011
8.32191100011
8.32191100011
8.32191100011
8.32191100011
8.32191100011
8.32191100011
8.32191100011
8.32191100011
8.32191100011
8.32191100011
8.32191100011
8.32191100011
8.32191100011
8.32191100011
8.32191100011
8.32191100011
8.19676959674
8.19676959674
8.19676959673
8.19676959673
8.19676959673
8.19676959672
8.19676959672
8.19676959672
8.19676959672
8.19676959672
8.19676959672
8.19676959672
8.19676959672
8.19676959672
8.19676959672
8.19676959672
8.19676959672
8.19676959672
8.19676959672
8.19676959672
8.19676959673
8.19676959673
8.19676959673
8.19676959673
8.19676959673
8.19676959673
8.19676959673
8.19676959673
8.19676959673
8.19676959673
8.0716281936
8.07162819359
8.07162819359
8.07162819359
8.07162819359
8.07162819359
8.07162819358
8.07162819358
8.07162819358
8.07162819358
8.07162819358
8.07162819358
8.07162819359
8.07162819359
8.07162819359
8.07162819359
8.07162819359
8.07162819359
8.07162819359
8.07162819359
8.07162819359
8.07162819359
8.07162819359
8.07162819359
8.07162819359
8.07162819359
8.07162819359
8.07162819359
8.07162819359
8.07162819359
7.94648679059
7.94648679059
7.94648679059
7.94648679059
7.94648679059
7.94648679059
7.94648679059
7.94648679059
7.94648679059
7.94648679059
7.94648679059
7.94648679059
7.94648679059
7.94648679059
7.94648679059
7.94648679059
7.94648679059
7.94648679059
7.94648679059
7.94648679059
7.94648679059
7.94648679059
7.94648679059
7.94648679059
7.94648679059
7.94648679059
7.94648679059
7.94648679059
7.94648679059
7.94648679059
7.82134538764
7.82134538764
7.82134538764
7.82134538764
7.82134538764
7.82134538764
7.82134538764
7.82134538764
7.82134538764
7.82134538764
7.82134538764
7.82134538764
7.82134538764
7.82134538764
7.82134538764
7.82134538764
7.82134538764
7.82134538764
7.82134538764
7.82134538764
7.82134538764
7.82134538764
7.82134538764
7.82134538764
7.82134538764
7.82134538764
7.82134538764
7.82134538764
7.82134538764
7.82134538764
7.69620398468
7.69620398468
7.69620398468
7.69620398468
7.69620398468
7.69620398468
7.69620398469
7.69620398469
7.69620398469
7.69620398469
7.69620398469
7.69620398469
7.69620398469
7.69620398469
7.69620398469
7.69620398469
7.69620398469
7.69620398469
7.69620398469
7.69620398469
7.69620398469
7.69620398469
7.69620398469
7.69620398469
7.69620398469
7.69620398469
7.69620398469
7.69620398469
7.69620398469
7.69620398469
7.57106258176
7.57106258176
7.57106258176
7.57106258176
7.57106258176
7.57106258176
7.57106258176
7.57106258176
7.57106258176
7.57106258176
7.57106258176
7.57106258176
7.57106258176
7.57106258176
7.57106258176
7.57106258176
7.57106258176
7.57106258176
7.57106258176
7.57106258176
7.57106258176
7.57106258176
7.57106258176
7.57106258176
7.57106258176
7.57106258176
7.57106258176
7.57106258176
7.57106258176
7.57106258176
7.44592117879
7.44592117879
7.44592117879
7.44592117879
7.44592117879
7.44592117879
7.44592117879
7.44592117879
7.44592117879
7.44592117879
7.44592117879
7.44592117879
7.44592117879
7.44592117879
7.44592117879
7.44592117879
7.44592117879
7.44592117879
7.44592117879
7.44592117879
7.44592117879
7.44592117879
7.44592117879
7.44592117879
7.44592117879
7.44592117879
7.44592117879
7.44592117879
7.44592117879
7.44592117879
7.32077977586
7.32077977586
7.32077977586
7.32077977586
7.32077977586
7.32077977586
7.32077977586
7.32077977586
7.32077977586
7.32077977586
7.32077977586
7.32077977586
7.32077977586
7.32077977586
7.32077977586
7.32077977586
7.32077977586
7.32077977586
7.32077977586
7.32077977586
7.32077977586
7.32077977586
7.32077977586
7.32077977586
7.32077977586
7.32077977586
7.32077977586
7.32077977586
7.32077977586
7.32077977586
7.19563837288
7.19563837288
7.19563837288
7.19563837288
7.19563837288
7.19563837288
7.19563837288
7.19563837288
7.19563837289
7.19563837289
7.19563837289
7.19563837289
7.19563837289
7.19563837289
7.19563837289
7.19563837289
7.19563837289
7.19563837289
7.19563837289
7.19563837289
7.19563837289
7.19563837289
7.19563837289
7.19563837289
7.19563837289
7.19563837289
7.19563837289
7.19563837289
7.19563837289
7.19563837289
7.07049696997
7.07049696997
7.07049696997
7.07049696997
7.07049696997
7.07049696997
7.07049696997
7.07049696997
7.07049696997
7.07049696997
7.07049696997
7.07049696997
7.07049696997
7.07049696997
7.07049696997
7.07049696997
7.07049696997
7.07049696997
7.07049696997
7.07049696997
7.07049696997
7.07049696997
7.07049696997
7.07049696997
7.07049696997
7.07049696997
7.07049696997
7.07049696997
7.07049696997
7.07049696997
6.94535556699
6.94535556699
6.94535556699
6.94535556699
6.94535556699
6.94535556699
6.94535556699
6.94535556699
6.94535556699
6.94535556699
6.94535556699
6.94535556699
6.94535556699
6.94535556699
6.94535556699
6.94535556699
6.94535556699
6.94535556699
6.94535556699
6.94535556699
6.94535556699
6.94535556699
6.94535556699
6.94535556699
6.94535556699
6.94535556699
6.94535556699
6.94535556699
6.94535556699
6.94535556699
6.82021416407
6.82021416407
6.82021416407
6.82021416407
6.82021416407
6.82021416407
6.82021416407
6.82021416407
6.82021416407
6.82021416407
6.82021416407
6.82021416407
6.82021416407
6.82021416407
6.82021416407
6.82021416407
6.82021416407
6.82021416407
6.82021416407
6.82021416407
6.82021416407
6.82021416407
6.82021416407
6.82021416407
6.82021416407
6.82021416407
6.82021416407
6.82021416407
6.82021416407
6.82021416407
6.69507276109
6.69507276109
6.69507276109
6.69507276109
6.69507276109
6.69507276109
6.69507276109
6.69507276109
6.69507276109
6.69507276109
6.69507276109
6.69507276109
6.69507276109
6.69507276109
6.69507276109
6.69507276109
6.69507276109
6.69507276109
6.69507276109
6.69507276109
6.69507276109
6.69507276109
6.69507276109
6.69507276109
6.69507276109
6.69507276109
6.69507276109
6.69507276109
6.69507276109
6.69507276109
6.56993135816
6.56993135816
6.56993135816
6.56993135816
6.56993135816
6.56993135816
6.56993135816
6.56993135816
6.56993135816
6.56993135816
6.56993135816
6.56993135816
6.56993135816
6.56993135816
6.56993135816
6.56993135816
6.56993135816
6.56993135816
6.56993135816
6.56993135816
6.56993135816
6.56993135816
6.56993135816
6.56993135816
6.56993135816
6.56993135816
6.56993135816
6.56993135816
6.56993135816
6.56993135816
6.4447899552
6.4447899552
6.4447899552
6.4447899552
6.4447899552
6.4447899552
6.4447899552
6.4447899552
6.4447899552
6.4447899552
6.4447899552
6.4447899552
6.4447899552
6.4447899552
6.4447899552
6.4447899552
6.4447899552
6.4447899552
6.4447899552
6.4447899552
6.4447899552
6.4447899552
6.4447899552
6.4447899552
6.4447899552
6.4447899552
6.4447899552
6.4447899552
6.4447899552
6.4447899552
6.31964855226
6.31964855226
6.31964855226
6.31964855226
6.31964855226
6.31964855226
6.31964855226
6.31964855226
6.31964855226
6.31964855226
6.31964855226
6.31964855226
6.31964855226
6.31964855226
6.31964855226
6.31964855226
6.31964855226
6.31964855226
6.31964855226
6.31964855226
6.31964855226
6.31964855226
6.31964855226
6.31964855226
6.31964855226
6.31964855226
6.31964855226
6.31964855226
6.31964855226
6.31964855226
6.1945071493
6.1945071493
6.1945071493
6.1945071493
6.1945071493
6.1945071493
6.1945071493
6.1945071493
6.1945071493
6.1945071493
6.1945071493
6.1945071493
6.1945071493
6.1945071493
6.1945071493
6.1945071493
6.1945071493
6.1945071493
6.1945071493
6.1945071493
6.1945071493
6.1945071493
6.1945071493
6.1945071493
6.1945071493
6.1945071493
6.1945071493
6.1945071493
6.1945071493
6.1945071493
6.06936574635
6.06936574635
6.06936574635
6.06936574635
6.06936574635
6.06936574635
6.06936574635
6.06936574635
6.06936574635
6.06936574635
6.06936574635
6.06936574635
6.06936574635
6.06936574635
6.06936574635
6.06936574635
6.06936574635
6.06936574635
6.06936574635
6.06936574635
6.06936574635
6.06936574635
6.06936574635
6.06936574635
6.06936574635
6.06936574635
6.06936574635
6.06936574635
6.06936574635
6.06936574635
5.94422434342
5.94422434341
5.94422434341
5.94422434341
5.94422434341
5.94422434341
5.94422434341
5.94422434341
5.94422434341
5.94422434341
5.94422434341
5.94422434341
5.94422434341
5.94422434341
5.94422434341
5.94422434341
5.94422434341
5.94422434341
5.94422434341
5.94422434341
5.94422434341
5.94422434341
5.94422434341
5.94422434341
5.94422434341
5.94422434341
5.94422434341
5.94422434341
5.94422434341
5.94422434341
5.81908294045
5.81908294045
5.81908294045
5.81908294045
5.81908294045
5.81908294045
5.81908294045
5.81908294045
5.81908294045
5.81908294045
5.81908294045
5.81908294045
5.81908294045
5.81908294045
5.81908294045
5.81908294045
5.81908294045
5.81908294045
5.81908294045
5.81908294045
5.81908294045
5.81908294045
5.81908294045
5.81908294045
5.81908294045
5.81908294045
5.81908294045
5.81908294045
5.81908294045
5.81908294045
5.69394153752
5.69394153752
5.69394153752
5.69394153752
5.69394153752
5.69394153752
5.69394153752
5.69394153752
5.69394153752
5.69394153752
5.69394153752
5.69394153752
5.69394153752
5.69394153752
5.69394153752
5.69394153752
5.69394153752
5.69394153752
5.69394153752
5.69394153752
5.69394153752
5.69394153752
5.69394153752
5.69394153752
5.69394153752
5.69394153752
5.69394153752
5.69394153752
5.69394153752
5.69394153752
5.56880013454
5.56880013454
5.56880013454
5.56880013454
5.56880013454
5.56880013454
5.56880013454
5.56880013454
5.56880013454
5.56880013454
5.56880013454
5.56880013454
5.56880013454
5.56880013454
5.56880013454
5.56880013454
5.56880013454
5.56880013454
5.56880013454
5.56880013454
5.56880013454
5.56880013454
5.56880013454
5.56880013454
5.56880013454
5.56880013454
5.56880013454
5.56880013454
5.56880013454
5.56880013454
5.44365873163
5.44365873163
5.44365873163
5.44365873163
5.44365873163
5.44365873163
5.44365873163
5.44365873163
5.44365873163
5.44365873163
5.44365873163
5.44365873163
5.44365873163
5.44365873163
5.44365873163
5.44365873163
5.44365873163
5.44365873163
5.44365873163
5.44365873163
5.44365873163
5.44365873163
5.44365873163
5.44365873163
5.44365873163
5.44365873163
5.44365873163
5.44365873163
5.44365873163
5.44365873163
5.31851732865
5.31851732865
5.31851732865
5.31851732865
5.31851732865
5.31851732865
5.31851732865
5.31851732865
5.31851732865
5.31851732865
5.31851732865
5.31851732865
5.31851732865
5.31851732865
5.31851732865
5.31851732865
5.31851732865
5.31851732865
5.31851732865
5.31851732865
5.31851732865
5.31851732865
5.31851732865
5.31851732865
5.31851732865
5.31851732865
5.31851732865
5.31851732865
5.31851732865
5.31851732865
5.19337592573
5.19337592573
5.19337592573
5.19337592573
5.19337592573
5.19337592573
5.19337592573
5.19337592573
5.19337592573
5.19337592573
5.19337592573
5.19337592573
5.19337592573
5.19337592573
5.19337592573
5.19337592573
5.19337592573
5.19337592573
5.19337592573
5.19337592573
5.19337592573
5.19337592573
5.19337592573
5.19337592573
5.19337592573
5.19337592573
5.19337592573
5.19337592573
5.19337592573
5.19337592573
5.06823452274
5.06823452274
5.06823452274
5.06823452274
5.06823452274
5.06823452274
5.06823452274
5.06823452274
5.06823452274
5.06823452274
5.06823452274
5.06823452274
5.06823452274
5.06823452274
5.06823452274
5.06823452274
5.06823452274
5.06823452274
5.06823452274
5.06823452274
5.06823452274
5.06823452274
5.06823452274
5.06823452274
5.06823452274
5.06823452274
5.06823452274
5.06823452274
5.06823452274
5.06823452274
4.94309311983
4.94309311983
4.94309311983
4.94309311983
4.94309311983
4.94309311983
4.94309311983
4.94309311983
4.94309311983
4.94309311983
4.94309311983
4.94309311983
4.94309311983
4.94309311983
4.94309311983
4.94309311983
4.94309311983
4.94309311983
4.94309311983
4.94309311983
4.94309311983
4.94309311983
4.94309311983
4.94309311983
4.94309311983
4.94309311983
4.94309311983
4.94309311983
4.94309311983
4.94309311983
4.81795171686
4.81795171686
4.81795171686
4.81795171686
4.81795171686
4.81795171686
4.81795171686
4.81795171686
4.81795171686
4.81795171686
4.81795171686
4.81795171686
4.81795171686
4.81795171686
4.81795171686
4.81795171686
4.81795171686
4.81795171686
4.81795171686
4.81795171686
4.81795171686
4.81795171686
4.81795171686
4.81795171686
4.81795171686
4.81795171686
4.81795171686
4.81795171686
4.81795171686
4.81795171686
4.69281031392
4.69281031392
4.69281031392
4.69281031392
4.69281031392
4.69281031392
4.69281031392
4.69281031392
4.69281031392
4.69281031392
4.69281031392
4.69281031392
4.69281031392
4.69281031392
4.69281031392
4.69281031392
4.69281031392
4.69281031392
4.69281031392
4.69281031392
4.69281031392
4.69281031392
4.69281031392
4.69281031392
4.69281031392
4.69281031392
4.69281031392
4.69281031392
4.69281031392
4.69281031392
4.56766891096
4.56766891096
4.56766891096
4.56766891096
4.56766891096
4.56766891096
4.56766891096
4.56766891096
4.56766891096
4.56766891096
4.56766891096
4.56766891096
4.56766891096
4.56766891096
4.56766891096
4.56766891096
4.56766891096
4.56766891096
4.56766891096
4.56766891096
4.56766891096
4.56766891096
4.56766891096
4.56766891096
4.56766891096
4.56766891096
4.56766891096
4.56766891096
4.56766891096
4.56766891096
4.44252750802
4.44252750802
4.44252750802
4.44252750802
4.44252750802
4.44252750802
4.44252750802
4.44252750802
4.44252750802
4.44252750802
4.44252750802
4.44252750802
4.44252750802
4.44252750802
4.44252750802
4.44252750802
4.44252750802
4.44252750802
4.44252750802
4.44252750802
4.44252750802
4.44252750802
4.44252750802
4.44252750802
4.44252750802
4.44252750802
4.44252750802
4.44252750802
4.44252750802
4.44252750802
4.31738610507
4.31738610507
4.31738610507
4.31738610507
4.31738610507
4.31738610507
4.31738610507
4.31738610507
4.31738610507
4.31738610507
4.31738610507
4.31738610507
4.31738610507
4.31738610507
4.31738610507
4.31738610507
4.31738610507
4.31738610507
4.31738610507
4.31738610507
4.31738610507
4.31738610507
4.31738610507
4.31738610507
4.31738610507
4.31738610507
4.31738610507
4.31738610507
4.31738610507
4.31738610507
4.19224470211
4.19224470211
4.19224470211
4.19224470211
4.19224470211
4.19224470211
4.19224470211
4.19224470211
4.19224470211
4.19224470211
4.19224470211
4.19224470211
4.19224470211
4.19224470211
4.19224470211
4.19224470211
4.19224470211
4.19224470211
4.19224470211
4.19224470211
4.19224470211
4.19224470211
4.19224470211
4.19224470211
4.19224470211
4.19224470211
4.19224470211
4.19224470211
4.19224470211
4.19224470211
4.06710329917
4.06710329917
4.06710329917
4.06710329917
4.06710329917
4.06710329917
4.06710329917
4.06710329917
4.06710329917
4.06710329917
4.06710329917
4.06710329917
4.06710329917
4.06710329917
4.06710329917
4.06710329917
4.06710329917
4.06710329917
4.06710329917
4.06710329917
4.06710329917
4.06710329917
4.06710329917
4.06710329917
4.06710329917
4.06710329917
4.06710329917
4.06710329917
4.06710329917
4.06710329917
3.94196189621
3.94196189621
3.94196189621
3.94196189621
3.94196189621
3.94196189621
3.94196189621
3.94196189621
3.94196189621
3.94196189621
3.94196189621
3.94196189621
3.94196189621
3.94196189621
3.94196189621
3.94196189621
3.94196189621
3.94196189621
3.94196189621
3.94196189621
3.94196189621
3.94196189621
3.94196189621
3.94196189621
3.94196189621
3.94196189621
3.94196189621
3.94196189621
3.94196189621
3.94196189621
3.81682049328
3.81682049328
3.81682049329
3.81682049329
3.81682049329
3.81682049329
3.81682049329
3.81682049329
3.81682049329
3.81682049329
3.81682049329
3.81682049329
3.81682049329
3.81682049329
3.81682049329
3.81682049329
3.81682049329
3.81682049329
3.81682049329
3.81682049329
3.81682049329
3.81682049329
3.81682049329
3.81682049329
3.81682049329
3.81682049329
3.81682049329
3.81682049329
3.81682049329
3.81682049329
3.6916790903
3.6916790903
3.6916790903
3.6916790903
3.6916790903
3.6916790903
3.6916790903
3.6916790903