#      distance             U_x             U_y             U_z wallShearStr... wallShearStr... wallShearStr...               p           omega               k             nut
              0      0.99941546               0               0               0               0               0    0.0046624758       78.724575   1.0439114e-05   1.3260174e-07
   0.0021021021      0.99939845               0               0               0               0               0    0.0046806675       78.700754    1.041865e-05   1.3238181e-07
   0.0042042042      0.99938143               0               0               0               0               0    0.0046988592       78.676933   1.0398186e-05   1.3216187e-07
   0.0063063063      0.99936442               0               0               0               0               0    0.0047170509       78.653113   1.0377722e-05   1.3194194e-07
   0.0084084084      0.99934741               0               0               0               0               0    0.0047352425       78.629292   1.0357257e-05     1.31722e-07
    0.010510511      0.99932809               0               0               0               0               0    0.0047558614       78.608432   1.0338264e-05   1.3151539e-07
    0.012612613      0.99930733               0               0               0               0               0    0.0047779878       78.589411   1.0320184e-05   1.3131704e-07
    0.014714715      0.99928658               0               0               0               0               0    0.0048001141       78.570389   1.0302105e-05    1.311187e-07
    0.016816817      0.99926583               0               0               0               0               0    0.0048222405       78.551368   1.0284025e-05   1.3092036e-07
    0.018918919      0.99924508               0               0               0               0               0    0.0048443669       78.532347   1.0265945e-05   1.3072201e-07
    0.021021021      0.99922373               0               0               0               0               0    0.0048671103       78.513803   1.0248108e-05   1.3052591e-07
    0.023123123       0.9991984               0               0               0               0               0     0.004894002        78.49847   1.0231902e-05   1.3034485e-07
    0.025225225      0.99917307               0               0               0               0               0    0.0049208938       78.483136   1.0215696e-05    1.301638e-07
    0.027327327      0.99914773               0               0               0               0               0    0.0049477855       78.467802   1.0199491e-05   1.2998274e-07
    0.029429429       0.9991224               0               0               0               0               0    0.0049746773       78.452469   1.0183285e-05   1.2980169e-07
    0.031531532      0.99909562               0               0               0               0               0    0.0050030568       78.437916   1.0167466e-05   1.2962419e-07
    0.033633634      0.99906463               0               0               0               0               0    0.0050357821       78.425644   1.0152774e-05   1.2945708e-07
    0.035735736      0.99903363               0               0               0               0               0    0.0050685073       78.413372   1.0138081e-05   1.2928997e-07
    0.037837838      0.99900264               0               0               0               0               0    0.0051012326         78.4011   1.0123389e-05   1.2912285e-07
     0.03993994      0.99897165               0               0               0               0               0    0.0051339578       78.388828   1.0108697e-05   1.2895574e-07
    0.042042042      0.99893416               0               0               0               0               0       0.0051733       78.378985   1.0095149e-05   1.2879905e-07
    0.044144144      0.99889607               0               0               0               0               0    0.0052132624       78.369369   1.0081707e-05   1.2864332e-07
    0.046246246      0.99885797               0               0               0               0               0    0.0052532247       78.359754   1.0068266e-05    1.284876e-07
    0.048348348      0.99881955               0               0               0               0               0    0.0052935223       78.350226   1.0054863e-05   1.2833223e-07
     0.05045045      0.99877243               0               0               0               0               0    0.0053426204       78.342994   1.0042478e-05   1.2818596e-07
    0.052552553      0.99872531               0               0               0               0               0    0.0053917184       78.335762   1.0030093e-05    1.280397e-07
    0.054654655      0.99867819               0               0               0               0               0    0.0054408165       78.328531   1.0017709e-05   1.2789343e-07
    0.056756757      0.99862445               0               0               0               0               0    0.0054965013         78.3225   1.0005831e-05   1.2775164e-07
    0.058858859      0.99856551               0               0               0               0               0    0.0055573791       78.317416   9.9943534e-06   1.2761337e-07
    0.060960961      0.99850656               0               0               0               0               0    0.0056182569       78.312331   9.9828756e-06   1.2747511e-07
    0.063063063      0.99844098               0               0               0               0               0    0.0056858024       78.308174   9.9717452e-06   1.2733975e-07
    0.065165165      0.99836642               0               0               0               0               0    0.0057623627        78.30527   9.9610845e-06   1.2720833e-07
    0.067267267      0.99829186               0               0               0               0               0     0.005838923       78.302367   9.9504237e-06   1.2707691e-07
    0.069369369      0.99820395               0               0               0               0               0    0.0059280764       78.300234   9.9401417e-06   1.2694906e-07
    0.071471471       0.9981065               0               0               0               0               0    0.0060262086       78.298652   9.9301298e-06   1.2682375e-07
    0.073573574      0.99800906               0               0               0               0               0    0.0061243408       78.297069   9.9201178e-06   1.2669845e-07
    0.075675676      0.99788182               0               0               0               0               0     0.006254157       78.300075   9.9110736e-06    1.265781e-07
    0.077777778      0.99775424               0               0               0               0               0    0.0063843331       78.303133   9.9020404e-06    1.264578e-07
     0.07987988      0.99758893               0               0               0               0               0    0.0065436092       78.300262   9.8925454e-06   1.2634115e-07
    0.081981982      0.99739824               0               0               0               0               0    0.0067224498       78.293406   9.8827398e-06   1.2622694e-07
    0.084084084      0.99718376               0               0               0               0               0    0.0069368933       78.305425   9.8752205e-06   1.2611162e-07
    0.086186186      0.99692918               0               0               0               0               0    0.0072113098       78.349241   9.8715525e-06   1.2599441e-07
    0.088288288      0.99653559               0  -3.2772907e-22               0               0               0    0.0075256267       78.341628   9.8613668e-06   1.2587644e-07
     0.09039039      0.99577769               0  -1.5142899e-21               0               0               0    0.0079445046       78.199248   9.8341012e-06   1.2575648e-07
    0.092492492      0.99504998               0    9.051208e-18               0               0               0    0.0085568082       82.816234   9.9903679e-06   1.2279011e-07
    0.094594595      0.99440185               0   4.1977814e-17               0               0               0    0.0096791484          99.983   1.0630584e-05   1.1231817e-07
    0.096696697      0.90636898               0   6.3832961e-17   -0.0004605689  -3.0796897e-06               0     0.010452292       1403687.3   1.0195912e-05   9.4301857e-08
    0.098798799      0.64584774               0   6.3834201e-17   -0.0018302528  -1.2238366e-05               0      0.01053616       5577775.7   7.6395244e-06   6.1393728e-08
      0.1009009      0.38537804               0   4.9500279e-17   -0.0029002609  -1.7535593e-05   8.0156114e-20    0.0096899359       9751083.7   4.7932801e-06    3.302537e-08
       0.103003      0.12497706               0   1.6052807e-17   -0.0035707014  -1.7684222e-05   2.6718705e-19    0.0076035903        13923351   1.5605605e-06   1.0710038e-08
     0.10510511               0               0               0   -0.0035232335  -1.3033711e-05   4.6032454e-19    0.0059429367        15925793   1.3022681e-08               0
     0.10720721               0               0               0    -0.002813238  -3.9542739e-06   6.5909753e-19    0.0046751364        15925793   2.0668598e-08               0
     0.10930931               0               0               0   -0.0025169289  -2.0091942e-07   5.8571885e-19    0.0042368066        15925793   2.6555752e-08               0
     0.11141141               0               0               0   -0.0025008989  -5.6070383e-08    3.279531e-19    0.0043604563        15925793   3.1251314e-08               0
     0.11351351               0               0               0   -0.0024874883  -7.2181659e-09   1.1107432e-19    0.0044858555        15925793   3.3347829e-08               0
     0.11561562               0               0               0   -0.0024754504  -8.6731819e-09  -8.4377594e-20    0.0046121714        15925793    3.408231e-08               0
     0.11771772               0               0               0   -0.0024515761  -1.0637436e-08  -9.2393794e-20    0.0046230886        15925793   3.3789191e-08               0
     0.11981982               0               0               0   -0.0024226172  -1.2820439e-08  -1.9894792e-20    0.0045844349        15925793   3.3054654e-08               0
     0.12192192               0               0               0     -0.00239205  -1.3330996e-08               0    0.0045056585        15925793   3.2171541e-08               0
     0.12402402               0               0               0   -0.0023608746  -1.3209038e-08               0    0.0044117077        15925793   3.1232236e-08               0
     0.12612613               0               0               0   -0.0023321835  -1.2574748e-08               0    0.0043371688        15925793    3.038276e-08               0
     0.12822823               0               0               0   -0.0023043941  -1.1754501e-08               0    0.0042696756        15925793   2.9565888e-08               0
     0.13033033               0               0               0   -0.0022794979  -1.0950649e-08               0    0.0042216158        15925793   2.8840271e-08               0
     0.13243243               0               0               0   -0.0022557093  -1.0153073e-08               0    0.0041809952        15925793   2.8149588e-08               0
     0.13453453               0               0               0    -0.002234159  -9.4733568e-09  -1.4522671e-19    0.0041439288        15925793    2.752559e-08               0
     0.13663664               0               0               0    -0.002213599  -8.8457801e-09  -3.5469903e-19    0.0041084346        15925793   2.6931092e-08               0
     0.13873874               0               0               0   -0.0021946636  -8.3055947e-09  -4.2940433e-19     0.004073068        15925793   2.6386967e-08               0
     0.14084084               0               0               0   -0.0021766288  -7.8138528e-09  -4.2940437e-19     0.004037772        15925793   2.5870766e-08               0
     0.14294294               0               0               0   -0.0021597585  -7.3842061e-09  -4.0600707e-19    0.0040038849        15925793   2.5391502e-08               0
     0.14504505               0               0               0   -0.0021437575  -7.0009044e-09  -3.6514704e-19    0.0039710493        15925793   2.4939806e-08               0
     0.14714715               0               0               0   -0.0021285035  -6.6613005e-09  -2.7234735e-19    0.0039395735        15925793   2.4510921e-08               0
     0.14924925               0               0               0   -0.0021140578  -6.3689797e-09   -1.233466e-19    0.0039095692        15925793   2.4106721e-08               0
     0.15135135               0               0               0   -0.0021000546  -6.0962419e-09  -1.9518122e-20    0.0038803558        15925793   2.3715944e-08               0
     0.15345345               0               0               0   -0.0020868195  -5.8574858e-09   5.9248754e-21    0.0038525151        15925793    2.334846e-08               0
     0.15555556               0               0               0   -0.0020738289  -5.6250559e-09  -7.6109169e-21    0.0038250963        15925793   2.2988825e-08               0
     0.15765766               0               0               0   -0.0020616679  -5.4140834e-09  -1.5335533e-19    0.0037991089        15925793   2.2655814e-08               0
     0.15975976               0               0               0   -0.0020495706  -5.2045566e-09  -2.7343375e-19    0.0037732421        15925793   2.2324852e-08               0
     0.16186186               0               0               0   -0.0020383773  -5.0155717e-09   -2.879883e-20    0.0037490908        15925793   2.2022991e-08               0
     0.16396396               0               0               0    -0.002027184  -4.8265868e-09   2.1583609e-19    0.0037249395        15925793    2.172113e-08               0
     0.16606607               0               0               0   -0.0020167663  -4.6556932e-09      2.4547e-19    0.0037023891        15925793   2.1443859e-08               0
     0.16816817               0               0               0   -0.0020064555  -4.4872932e-09   2.4547003e-19    0.0036800592        15925793   2.1169976e-08               0
     0.17027027               0               0               0   -0.0019966678  -4.3331844e-09    1.411636e-19    0.0036587273        15925793   2.0912324e-08               0
     0.17237237               0               0               0   -0.0019871424   -4.186238e-09  -1.5419728e-20    0.0036378956        15925793   2.0662805e-08               0
     0.17447447               0               0               0   -0.0019779103  -4.0473128e-09  -1.0520035e-19    0.0036176249        15925793   2.0422253e-08               0
     0.17657658               0               0               0   -0.0019690724  -3.9191679e-09  -1.0520036e-19    0.0035981083        15925793   2.0193752e-08               0
     0.17867868               0               0               0   -0.0019603323   -3.793509e-09  -1.1059004e-19    0.0035787646        15925793    1.996821e-08               0
     0.18078078               0               0               0   -0.0019521072  -3.6809657e-09  -1.4441366e-19    0.0035603324        15925793   1.9758277e-08               0
     0.18288288               0               0               0   -0.0019438821  -3.5684225e-09  -1.7823728e-19    0.0035419003        15925793   1.9548345e-08               0
     0.18498498               0               0               0   -0.0019361266  -3.4677742e-09  -1.1927006e-19    0.0035243517        15925793   1.9352482e-08               0
     0.18708709               0               0               0   -0.0019284455  -3.3690097e-09  -4.5607493e-20    0.0035069431        15925793   1.9158847e-08               0
     0.18918919               0               0               0   -0.0019210246  -3.2762854e-09   3.0164373e-20    0.0034899992        15925793   1.8972932e-08               0
     0.19129129               0               0               0   -0.0019138277   -3.188761e-09   1.0775211e-19    0.0034734555        15925793   1.8793663e-08               0
     0.19339339               0               0               0   -0.0019067101   -3.102845e-09   1.5838383e-19    0.0034570612        15925793    1.861673e-08               0
      0.1954955               0               0               0   -0.0018999524  -3.0242293e-09   8.6664028e-20    0.0034413454        15925793   1.8450403e-08               0
      0.1975976               0               0               0   -0.0018931947  -2.9456136e-09   1.4944228e-20    0.0034256296        15925793   1.8284076e-08               0
      0.1996997               0               0               0   -0.0018867549  -2.8729529e-09               0    0.0034106385        15925793   1.8126976e-08               0
      0.2018018               0               0               0   -0.0018803988  -2.8018596e-09               0     0.003395838        15925793   1.7972305e-08               0
      0.2039039               0               0               0   -0.0018741791  -2.7334144e-09  -2.0239081e-20    0.0033812148        15925793   1.7821546e-08               0
     0.20600601               0               0               0    -0.001868192  -2.6694883e-09  -7.5018499e-20    0.0033668941        15925793   1.7677462e-08               0
     0.20810811               0               0               0   -0.0018622048  -2.6055623e-09  -1.2979792e-19    0.0033525734        15925793   1.7533378e-08               0
     0.21021021               0               0               0   -0.0018565228  -2.5473191e-09  -1.3457397e-19    0.0033388581        15925793   1.7398006e-08               0
     0.21231231               0               0               0   -0.0018508698  -2.4896188e-09  -1.3457399e-19    0.0033252005        15925793   1.7263466e-08               0
     0.21441441               0               0               0   -0.0018453471  -2.4340049e-09  -1.1220847e-19    0.0033118933        15925793   1.7132583e-08               0
     0.21651652               0               0               0    -0.001840004  -2.3812677e-09    -5.90071e-20    0.0032990689        15925793   1.7006742e-08               0
     0.21861862               0               0               0   -0.0018346608  -2.3285304e-09   -5.805733e-21    0.0032862444        15925793   1.6880901e-08               0
     0.22072072               0               0               0   -0.0018295734  -2.2805836e-09               0    0.0032736629        15925793   1.6762151e-08               0
     0.22282282               0               0               0   -0.0018245173  -2.2332235e-09               0    0.0032611111        15925793   1.6644271e-08               0
     0.22492492               0               0               0   -0.0018195443  -2.1873811e-09               0    0.0032487215        15925793   1.6528693e-08               0
     0.22702703               0               0               0   -0.0018147457  -2.1447218e-09               0    0.0032366718        15925793   1.6417944e-08               0
     0.22912913               0               0               0    -0.001809947  -2.1020625e-09               0    0.0032246222        15925793   1.6307195e-08               0
     0.23123123               0               0               0   -0.0018053205  -2.0616949e-09  -2.7820374e-20    0.0032130864        15925793   1.6201145e-08               0
     0.23333333               0               0               0   -0.0018007626  -2.0222413e-09  -6.6735394e-20    0.0032017555        15925793   1.6096969e-08               0
     0.23543544               0               0               0   -0.0017962196  -1.9830221e-09  -1.0071332e-19    0.0031904377        15925793   1.5993193e-08               0
     0.23753754               0               0               0   -0.0017918887  -1.9471469e-09  -6.4238053e-20    0.0031793068        15925793   1.5895125e-08               0
     0.23963964               0               0               0   -0.0017875577  -1.9112718e-09   -2.776279e-20    0.0031681759        15925793   1.5797058e-08               0
     0.24174174               0               0               0   -0.0017833035  -1.8766709e-09    9.157365e-21    0.0031571609        15925793   1.5701057e-08               0
     0.24384384               0               0               0    -0.001779178  -1.8442116e-09   4.6825246e-20    0.0031463404        15925793   1.5608528e-08               0
     0.24594595               0               0               0   -0.0017750526  -1.8117522e-09   8.4493128e-20      0.00313552        15925793   1.5515999e-08               0
     0.24804805               0               0               0   -0.0017710495  -1.7807321e-09   7.5772253e-20    0.0031250865        15925793   1.5426733e-08               0
     0.25015015               0               0               0   -0.0017671164  -1.7505361e-09   4.0490676e-20    0.0031148745        15925793   1.5339336e-08               0
     0.25225225               0               0               0   -0.0017631834    -1.72034e-09   5.2090979e-21    0.0031046626        15925793    1.525194e-08               0
     0.25435435               0               0               0    -0.001759407    -1.69224e-09               0    0.0030947061        15925793   1.5168637e-08               0
     0.25645646               0               0               0   -0.0017556577   -1.664503e-09               0    0.0030847939        15925793   1.5086043e-08               0
     0.25855856               0               0               0   -0.0017519118  -1.6368226e-09   5.8295887e-22    0.0030748837        15925793    1.500354e-08               0
     0.26066066               0               0               0   -0.0017483303  -1.6118361e-09   2.8888957e-20    0.0030650688        15925793   1.4925324e-08               0
     0.26276276               0               0               0   -0.0017447487  -1.5868495e-09   5.7194954e-20     0.003055254        15925793   1.4847109e-08               0
     0.26486486               0               0               0   -0.0017411887  -1.5621128e-09   8.1574075e-20    0.0030455009        15925793   1.4769456e-08               0
     0.26696697               0               0               0   -0.0017377619  -1.5389267e-09   8.1574095e-20    0.0030361318        15925793   1.4695297e-08               0
     0.26906907               0               0               0   -0.0017343351  -1.5157407e-09   8.1574114e-20    0.0030267626        15925793   1.4621137e-08               0
     0.27117117               0               0               0    -0.001730939  -1.4928409e-09    7.598363e-20    0.0030174981        15925793   1.4547763e-08               0
     0.27327327               0               0               0   -0.0017276621   -1.471053e-09   4.8683976e-20    0.0030086397        15925793   1.4477441e-08               0
     0.27537538               0               0               0   -0.0017243852  -1.4492651e-09   2.1384321e-20    0.0029997813        15925793   1.4407118e-08               0
     0.27747748               0               0               0   -0.0017211389  -1.4279016e-09  -5.0941483e-21    0.0029909363        15925793   1.4337567e-08               0
     0.27957958               0               0               0   -0.0017180034  -1.4080724e-09   -2.860398e-20    0.0029821395        15925793   1.4270801e-08               0
     0.28168168               0               0               0   -0.0017148678  -1.3882432e-09  -5.2113812e-20    0.0029733427        15925793   1.4204034e-08               0
     0.28378378               0               0               0   -0.0017117545  -1.3687237e-09   -7.157402e-20    0.0029645568        15925793   1.4137833e-08               0
     0.28588589               0               0               0   -0.0017087478  -1.3506922e-09  -7.1574039e-20    0.0029558234        15925793   1.4074346e-08               0
     0.28798799               0               0               0   -0.0017057411  -1.3326607e-09  -7.1574058e-20    0.0029470899        15925793    1.401086e-08               0
     0.29009009               0               0               0   -0.0017027428  -1.3147204e-09  -7.0008375e-20    0.0029383883        15925793   1.3947588e-08               0
     0.29219219               0               0               0    -0.001699858  -1.2980063e-09  -4.7387293e-20    0.0029301148        15925793   1.3887205e-08               0
     0.29429429               0               0               0   -0.0016969731  -1.2812923e-09   -2.476621e-20    0.0029218413        15925793   1.3826823e-08               0
      0.2963964               0               0               0   -0.0016940883  -1.2645782e-09  -2.1451278e-21    0.0029135677        15925793   1.3766441e-08               0
      0.2984985               0               0               0   -0.0016913074  -1.2491906e-09               0    0.0029056613        15925793    1.370857e-08               0
      0.3006006               0               0               0   -0.0016885375   -1.233942e-09               0    0.0028977934        15925793   1.3650962e-08               0
      0.3027027               0               0               0   -0.0016857675  -1.2186933e-09               0    0.0028899255        15925793   1.3593354e-08               0
      0.3048048               0               0               0   -0.0016830688  -1.2043176e-09    1.255684e-20    0.0028820577        15925793   1.3537411e-08               0
     0.30690691               0               0               0   -0.0016804041  -1.1903571e-09    3.108801e-20      0.00287419        15925793    1.348226e-08               0
     0.30900901               0               0               0   -0.0016777393  -1.1763966e-09    4.961918e-20    0.0028663223        15925793    1.342711e-08               0
     0.31111111               0               0               0   -0.0016751132  -1.1627095e-09    5.768744e-20    0.0028584753        15925793   1.3372899e-08               0
     0.31321321               0               0               0   -0.0016725491  -1.1494612e-09   4.8962375e-20    0.0028506614        15925793   1.3320198e-08               0
     0.31531532               0               0               0    -0.001669985  -1.1362128e-09   4.0237311e-20    0.0028428475        15925793   1.3267497e-08               0
     0.31741742               0               0               0    -0.001667423  -1.1229752e-09   3.1668308e-20    0.0028350421        15925793   1.3214848e-08               0
     0.31951952               0               0               0   -0.0016649579  -1.1102372e-09   3.0310748e-20     0.002827629        15925793   1.3164594e-08               0
     0.32162162               0               0               0   -0.0016624928  -1.0974992e-09   2.8953188e-20    0.0028202158        15925793   1.3114341e-08               0
     0.32372372               0               0               0   -0.0016600277  -1.0847612e-09   2.7595628e-20    0.0028128026        15925793   1.3064088e-08               0
     0.32582583               0               0               0   -0.0016576194  -1.0724474e-09   3.1938403e-20    0.0028055993        15925793     1.30152e-08               0
     0.32792793               0               0               0   -0.0016552512  -1.0604326e-09   4.0298378e-20    0.0027985439        15925793   1.2967274e-08               0
     0.33003003               0               0               0    -0.001652883  -1.0484178e-09   4.8658352e-20    0.0027914884        15925793   1.2919348e-08               0
     0.33213213               0               0               0   -0.0016505218  -1.0364787e-09   5.5163737e-20    0.0027844347        15925793   1.2871589e-08               0
     0.33423423               0               0               0   -0.0016482453  -1.0254458e-09   3.9450997e-20    0.0027774007        15925793    1.282584e-08               0
     0.33633634               0               0               0   -0.0016459689  -1.0144129e-09   2.3738258e-20    0.0027703667        15925793    1.278009e-08               0
     0.33843844               0               0               0   -0.0016436924  -1.0033799e-09   8.0255193e-21    0.0027633328        15925793    1.273434e-08               0
     0.34054054               0               0               0   -0.0016414577  -9.9277263e-10  -1.0041681e-20    0.0027563073        15925793   1.2689595e-08               0
     0.34264264               0               0               0   -0.0016392667  -9.8260965e-10  -3.0566956e-20    0.0027492908        15925793     1.26459e-08               0
     0.34474474               0               0               0   -0.0016370756  -9.7244668e-10  -5.1092232e-20    0.0027422743        15925793   1.2602204e-08               0
     0.34684685               0               0               0   -0.0016348846   -9.622837e-10  -7.1617508e-20    0.0027352579        15925793   1.2558509e-08               0
     0.34894895               0               0               0   -0.0016327605  -9.5261242e-10  -7.5317411e-20    0.0027284682        15925793   1.2516423e-08               0
     0.35105105               0               0               0   -0.0016306511  -9.4304926e-10   -7.531744e-20    0.0027217284        15925793   1.2474691e-08               0
     0.35315315               0               0               0   -0.0016285417  -9.3348611e-10  -7.5317469e-20    0.0027149886        15925793   1.2432958e-08               0