/*--------------------------------*- C++ -*----------------------------------*\
  =========                 |
  \\      /  F ield         | OpenFOAM: The Open Source CFD Toolbox
   \\    /   O peration     | Website:  https://openfoam.org
    \\  /    A nd           | Version:  12
     \\/     M anipulation  |
\*---------------------------------------------------------------------------*/
FoamFile
{
    format      ascii;
    class       volScalarField;
    location    "100";
    object      epsilon;
}
// * * * * * * * * * * * * * * * * * * * * * * * * * * * * * * * * * * * * * //

dimensions      [0 2 -3 0 0 0 0];

internalField   nonuniform List<scalar> 
13056
(
0.00860914
0.0086036657
0.0086034097
0.0086036582
0.0086038839
0.0086041097
0.0086043576
0.0086046347
0.0086049443
0.008605289
0.008605671
0.008606092
0.0086065531
0.008607054
0.0086075925
0.0086081645
0.0086087629
0.0086093776
0.0086099965
0.0086106055
0.0086112124
0.0086119116
0.008608836
0.0088333632
12.07404
10.368277
8.4723144
7.5249639
7.0140158
6.7382037
6.5773426
6.4743296
6.4046756
6.3559592
6.3207866
6.294593
6.2745276
6.258741
6.2459828
6.2353902
6.226361
6.2184685
6.2114057
6.204948
6.19893
6.1932289
6.1877527
6.1824323
6.1772155
6.1720627
6.1669438
6.1618361
6.1567225
6.1515901
6.1464294
6.1412335
6.1359974
6.1307179
6.1253928
6.1200211
6.1146026
6.1091376
6.1036269
6.0980719
6.092474
6.0868352
6.0811576
6.0754433
6.0696948
6.0639145
6.0581052
6.0522694
6.0464099
6.0405296
6.0346313
6.028718
6.0227927
6.0168582
6.0109179
6.0049745
5.9990312
5.9930913
5.9871578
5.9812338
5.9753228
5.9694278
5.963552
5.9576988
5.9518715
5.9460733
5.9403075
5.9345776
5.9288868
5.9232385
5.9176361
5.912083
5.9065827
5.9011384
5.8957537
5.890432
5.8851768
5.8799914
5.8748794
5.8698442
5.8648894
5.8600181
5.8552342
5.8505409
5.8459418
5.8414405
5.8370395
5.8327531
5.8284671
5.8256747
5.8245676
5.8241426
5.8239216
5.8237807
5.8236834
5.8236138
5.8235631
5.8235245
5.8234957
5.8234733
5.8234558
5.823442
5.823431
5.8234221
5.823415
5.8234092
5.8234044
5.8234005
5.8233973
5.8233945
5.8233927
5.8233891
0.0086032693
0.008597705
0.0085974312
0.0085976826
0.0085979118
0.0085981405
0.0085983913
0.0085986717
0.0085989848
0.0085993334
0.0085997198
0.0086001456
0.008600612
0.0086011185
0.0086016632
0.0086022417
0.0086028469
0.0086034688
0.0086040952
0.0086047121
0.0086053281
0.0086060412
0.0086028867
0.0088254042
6.9004356
5.5753062
4.5209249
4.0127375
3.7401271
3.5928951
3.506955
3.4519156
3.4147133
3.3887
3.3699163
3.3559221
3.3451961
3.3367511
3.3299203
3.3242433
3.3193989
3.31516
3.3113627
3.3078875
3.3046461
3.3015733
3.29862
3.2957495
3.2929338
3.290152
3.287388
3.2846298
3.2818683
3.2790965
3.2763096
3.2735036
3.2706762
3.2678256
3.2649505
3.2620506
3.2591257
3.2561759
3.2532018
3.2502041
3.2471835
3.2441412
3.2410782
3.2379958
3.2348952
3.2317778
3.2286451
3.2254983
3.2223392
3.2191691
3.2159896
3.2128023
3.2096088
3.2064107
3.2032098
3.2000074
3.1968055
3.1936056
3.1904094
3.1872187
3.1840352
3.1808606
3.1776967
3.1745452
3.1714078
3.1682864
3.1651827
3.1620986
3.1590357
3.155996
3.1529812
3.1499932
3.1470338
3.1441048
3.141208
3.1383454
3.1355187
3.1327297
3.1299805
3.1272727
3.1246083
3.121989
3.1194169
3.1168936
3.1144212
3.1120014
3.1096358
3.1073318
3.1050284
3.1035321
3.1029415
3.102715
3.1025972
3.1025219
3.1024699
3.1024328
3.1024056
3.102385
3.1023696
3.1023576
3.1023482
3.1023408
3.1023349
3.1023302
3.1023263
3.1023232
3.1023207
3.1023186
3.1023168
3.1023153
3.1023144
3.1023124
0.008573984
0.008568087
0.0085677563
0.0085680178
0.0085682585
0.0085684966
0.008568757
0.0085690479
0.0085693728
0.0085697344
0.0085701351
0.0085705767
0.0085710603
0.0085715855
0.0085721503
0.0085727502
0.0085733781
0.0085740236
0.0085746744
0.0085753166
0.0085759607
0.0085767145
0.0085733785
0.0087958369
6.7967245
4.9755172
3.9670876
3.5116935
3.2666562
3.1324527
3.0533269
3.0023749
2.9678097
2.9435527
2.9259724
2.9128319
2.9027344
2.8947703
2.8883223
2.8829635
2.8783948
2.8744039
2.8708374
2.8675826
2.8645562
2.8616963
2.858956
2.8563003
2.8537022
2.8511414
2.8486025
2.8460734
2.8435452
2.8410111
2.838466
2.8359061
2.8333287
2.8307318
2.8281143
2.8254754
2.8228148
2.8201325
2.8174289
2.8147045
2.8119598
2.8091958
2.8064134
2.8036136
2.8007976
2.7979666
2.7951217
2.7922642
2.7893956
2.7865171
2.7836301
2.780736
2.7778363
2.7749324
2.7720259
2.7691181
2.7662105
2.7633047
2.7604023
2.7575047
2.7546136
2.7517304
2.7488568
2.7459944
2.7431447
2.7403093
2.7374898
2.734688
2.7319053
2.7291435
2.7264042
2.723689
2.7209995
2.7183375
2.7157047
2.7131026
2.7105329
2.7079974
2.7054977
2.7030355
2.7006125
2.6982304
2.6958908
2.6935954
2.691346
2.6891443
2.6869916
2.6848947
2.6827987
2.6814301
2.6808799
2.6806627
2.6805479
2.6804742
2.6804231
2.6803864
2.6803594
2.6803389
2.6803235
2.6803114
2.680302
2.6802945
2.6802885
2.6802837
2.6802798
2.6802766
2.680274
2.6802718
2.68027
2.6802685
2.6802675
2.6802654
0.0085206012
0.0085141063
0.0085136732
0.008513952
0.0085142124
0.0085144668
0.0085147437
0.0085150526
0.0085153976
0.0085157815
0.0085162068
0.0085166755
0.0085171886
0.0085177458
0.008518345
0.0085189817
0.0085196483
0.008520334
0.0085210267
0.0085217119
0.0085224035
0.008523226
0.0085196608
0.008744233
7.8588747
5.4849537
4.3211509
3.8181104
3.5429792
3.3884729
3.2958102
3.2355355
3.1943337
3.1652137
3.1439741
3.1280175
3.115712
3.1059868
3.0981108
3.0915748
3.0860202
3.0811905
3.076899
3.0730078
3.0694143
3.0660413
3.0628305
3.0597375
3.0567281
3.0537763
3.0508618
3.0479691
3.0450863
3.0422041
3.0393155
3.0364153
3.0334994
3.0305649
3.0276099
3.024633
3.0216334
3.0186107
3.0155649
3.0124964
3.0094057
3.0062934
3.0031606
3.0000081
2.9968372
2.9936491
2.9904451
2.9872265
2.9839947
2.9807513
2.9774977
2.9742354
2.9709661
2.9676914
2.9644129
2.9611322
2.957851
2.9545709
2.9512938
2.9480213
2.9447552
2.9414973
2.9382492
2.9350128
2.9317899
2.9285822
2.9253917
2.9222202
2.9190694
2.9159412
2.9128376
2.9097603
2.9067112
2.9036924
2.9007055
2.8977526
2.8948356
2.8919563
2.8891168
2.8863188
2.8835645
2.8808556
2.8781942
2.8755822
2.8730216
2.8705144
2.868062
2.8656726
2.8632835
2.8616998
2.8610364
2.8607612
2.8606121
2.8605156
2.8604482
2.8603996
2.8603636
2.8603361
2.8603153
2.8602989
2.8602861
2.8602758
2.8602676
2.8602609
2.8602555
2.860251
2.8602474
2.8602443
2.8602418
2.8602396
2.8602382
2.8602354
0.0084420149
0.0084346156
0.0084340231
0.0084343261
0.0084346154
0.0084348932
0.0084351937
0.0084355285
0.0084359022
0.0084363179
0.0084367784
0.0084372857
0.008437841
0.0084384439
0.0084390924
0.0084397815
0.0084405034
0.0084412468
0.0084419991
0.008442746
0.0084435051
0.0084444258
0.0084405705
0.0086694628
9.0651478
6.3641756
4.9964984
4.4157797
4.0913268
3.9039389
3.7893999
3.7140125
3.6620052
3.6249435
3.5977195
3.5771547
3.5612346
3.5486266
3.5384137
3.5299531
3.5227885
3.5165909
3.5111194
3.5061945
3.5016817
3.4974793
3.4935095
3.4897128
3.486043
3.4824644
3.4789493
3.4754759
3.4720275
3.4685907
3.4651555
3.4617139
3.4582598
3.4547888
3.4512975
3.4477834
3.4442449
3.4406811
3.4370913
3.4334755
3.4298341
3.4261674
3.4224764
3.4187619
3.4150251
3.4112674
3.40749
3.4036945
3.3998824
3.3960553
3.392215
3.3883632
3.3845017
3.3806324
3.3767571
3.3728778
3.3689962
3.3651146
3.3612348
3.3573588
3.3534889
3.3496268
3.3457749
3.3419351
3.3381096
3.3343006
3.3305102
3.3267405
3.3229939
3.3192724
3.3155784
3.311914
3.3082816
3.3046834
3.3011216
3.2975985
3.2941166
3.2906781
3.2872852
3.2839404
3.2806462
3.2774046
3.2742182
3.2710894
3.2680205
3.2650141
3.2620719
3.259204
3.2563354
3.2543955
3.2535423
3.2531692
3.2529622
3.252827
3.2527321
3.2526631
3.2526118
3.2525725
3.2525424
3.2525187
3.2525
3.252485
3.2524729
3.252463
3.252455
3.2524484
3.2524429
3.2524384
3.2524346
3.2524313
3.2524291
3.252425
0.0083367838
0.008328111
0.008327284
0.0083276176
0.0083279459
0.0083282549
0.0083285863
0.008328955
0.0083293664
0.0083298238
0.0083303304
0.0083308883
0.0083314989
0.0083321618
0.0083328747
0.0083336325
0.0083344268
0.0083352458
0.0083360765
0.0083369042
0.0083377516
0.0083388028
0.0083345782
0.0085698962
10.018134
7.3022061
5.7398025
5.0780071
4.7008246
4.4768583
4.337293
4.2442906
4.1795019
4.1329319
4.0984748
4.0722991
4.0519539
4.0358033
4.0227136
4.0118839
4.0027417
3.994871
3.9879644
3.9817921
3.9761801
3.9709959
3.9661377
3.9615266
3.9571014
3.9528139
3.9486267
3.9445099
3.9404403
3.9363995
3.9323729
3.9283493
3.9243197
3.9202772
3.9162166
3.912134
3.9080264
3.903892
3.8997293
3.8955378
3.8913171
3.8870676
3.8827896
3.878484
3.8741518
3.8697943
3.8654129
3.8610091
3.8565845
3.8521409
3.8476802
3.8432043
3.8387152
3.8342149
3.8297057
3.8251896
3.8206688
3.8161457
3.8116224
3.8071013
3.8025849
3.7980755
3.7935754
3.7890872
3.7846133
3.7801563
3.7757186
3.7713028
3.7669114
3.7625472
3.7582127
3.7539106
3.7496435
3.7454141
3.7412251
3.7370794
3.7329795
3.7289283
3.7249287
3.7209832
3.7170951
3.7132668
3.7095013
3.7058017
3.7021707
3.6986114
3.6951259
3.6917268
3.6883249
3.6859727
3.6848843
3.6843839
3.6840997
3.6839125
3.6837804
3.6836838
3.6836114
3.6835557
3.6835129
3.683479
3.6834521
3.6834304
3.6834129
3.6833986
3.6833869
3.6833772
3.6833692
3.6833625
3.6833569
3.683352
3.6833487
3.6833429
0.0082032494
0.0081928437
0.0081916814
0.0081920507
0.0081924291
0.0081927775
0.0081931476
0.0081935585
0.0081940167
0.0081945262
0.00819509
0.0081957109
0.0081963901
0.0081971276
0.0081979206
0.0081987638
0.0081996483
0.0082005613
0.0082014897
0.0082024184
0.0082033754
0.0082045925
0.0081998988
0.0084435494
10.56938
8.1486981
6.4224379
5.6859815
5.2597687
4.9999678
4.8349237
4.7235339
4.6451474
4.5883032
4.545932
4.5135562
4.4882829
4.4681646
4.4518415
4.438346
4.4269806
4.417235
4.4087296
4.4011781
4.3943627
4.3881162
4.3823091
4.3768406
4.3716315
4.3666196
4.3617554
4.3569999
4.3523218
4.3476965
4.343104
4.3385288
4.3339583
4.3293828
4.3247946
4.3201876
4.3155574
4.3109007
4.3062149
4.3014986
4.2967508
4.291971
4.2871594
4.2823164
4.2774427
4.2725395
4.267608
4.2626496
4.2576661
4.2526592
4.2476308
4.242583
4.2375179
4.2324377
4.2273448
4.2222414
4.21713
4.212013
4.2068931
4.2017727
4.1966547
4.1915416
4.186436
4.1813409
4.1762589
4.1711929
4.1661459
4.1611206
4.15612
4.1511471
4.1462049
4.1412965
4.1364249
4.1315931
4.1268044
4.1220619
4.1173688
4.1127283
4.1081436
4.103618
4.0991552
4.0947579
4.0904298
4.0861744
4.081995
4.0778954
4.0738778
4.0699573
4.0660314
4.0632519
4.061898
4.0612449
4.0608655
4.0606135
4.0604345
4.0603028
4.0602037
4.060127
4.0600676
4.0600206
4.059983
4.0599527
4.059928
4.0599078
4.0598912
4.0598775
4.059866
4.0598564
4.0598484
4.0598415
4.0598366
4.0598284
0.0080396818
0.0080269595
0.0080253238
0.0080257317
0.0080261725
0.0080265691
0.0080269859
0.0080274474
0.0080279618
0.0080285336
0.0080291662
0.0080298625
0.0080306241
0.0080314508
0.0080323399
0.0080332855
0.0080342781
0.0080353041
0.0080363498
0.0080374002
0.0080384887
0.0080399106
0.0080346253
0.0082882063
10.682739
8.8262692
6.9751423
6.1738654
5.7059357
5.4137993
5.2246395
5.095298
5.0033278
4.9360288
4.8854833
4.8466262
4.8161511
4.7918132
4.7720331
4.7556784
4.7419269
4.7301721
4.7199598
4.7109452
4.7028641
4.6955123
4.6887307
4.6823945
4.6764049
4.6706837
4.6651685
4.6598093
4.6545662
4.649407
4.6443057
4.6392416
4.6341979
4.6291613
4.6241211
4.6190689
4.613998
4.6089034
4.6037811
4.5986285
4.5934435
4.5882249
4.5829721
4.577685
4.5723639
4.5670096
4.561623
4.5562054
4.5507582
4.5452833
4.5397825
4.5342578
4.5287113
4.5231454
4.5175624
4.5119648
4.506355
4.5007359
4.49511
4.4894801
4.4838493
4.4782202
4.4725958
4.4669791
4.4613732
4.4557812
4.4502063
4.4446515
4.4391203
4.4336158
4.4281414
4.4227004
4.4172964
4.4119327
4.4066129
4.4013405
4.3961192
4.3909524
4.385844
4.3807976
4.3758172
4.3709063
4.3660689
4.361309
4.3566304
4.3520375
4.3475329
4.3431341
4.3387267
4.3355279
4.3338882
4.33306
4.3325683
4.3322386
4.3320029
4.3318284
4.3316963
4.3315938
4.3315139
4.3314503
4.3313993
4.331358
4.3313244
4.3312967
4.3312739
4.3312549
4.331239
4.3312257
4.3312146
4.3312049
4.331198
4.3311868
0.0078444545
0.0078286636
0.0078263651
0.0078268098
0.0078273264
0.0078277805
0.0078282519
0.0078287724
0.0078293524
0.0078299967
0.0078307094
0.0078314937
0.0078323513
0.007833282
0.007834283
0.0078353478
0.0078364664
0.0078376243
0.0078388072
0.0078400002
0.007841242
0.0078429112
0.0078368877
0.0081015504
10.381936
9.2952231
7.3614576
6.5064174
6.0061492
5.6872404
5.4768478
5.3310606
5.226288
5.1489133
5.0903483
5.0450393
5.0093242
4.9806944
4.957372
4.9380727
4.9218563
4.9080246
4.8960508
4.8855324
4.876159
4.8676889
4.8599326
4.8527404
4.8459933
4.8395961
4.8334725
4.827561
4.8218118
4.8161846
4.8106468
4.8051717
4.799738
4.794328
4.7889276
4.7835256
4.7781128
4.7726819
4.7672275
4.7617451
4.7562315
4.7506844
4.7451023
4.7394844
4.7338302
4.72814
4.7224143
4.7166541
4.7108604
4.7050349
4.6991793
4.6932953
4.687385
4.6814508
4.6754949
4.6695199
4.6635282
4.6575226
4.6515058
4.6454807
4.6394505
4.6334179
4.6273862
4.6213584
4.6153378
4.6093277
4.6033314
4.5973524
4.5913942
4.5854602
4.5795541
4.5736795
4.5678401
4.5620396
4.556282
4.5505711
4.5449107
4.5393049
4.5337578
4.5282734
4.5228562
4.5175099
4.5122392
4.5070483
4.5019417
4.4969242
4.4919988
4.4871852
4.4823595
4.478767
4.4768307
4.4758089
4.4751889
4.474769
4.4744668
4.4742417
4.4740704
4.4739368
4.4738322
4.4737486
4.4736813
4.4736266
4.4735818
4.4735449
4.4735143
4.4734888
4.4734675
4.4734495
4.4734344
4.4734213
4.4734117
4.4733968
0.007616245
0.0075964102
0.0075931889
0.0075936608
0.0075942674
0.0075947884
0.007595322
0.0075959096
0.007596564
0.0075972909
0.0075980947
0.007598979
0.0075999457
0.0076009947
0.0076021228
0.0076033233
0.0076045853
0.0076058934
0.0076072328
0.0076085893
0.007610005
0.0076119676
0.0076050362
0.0078813167
9.7189817
9.5386131
7.5663004
6.6691539
6.1469823
5.8084377
5.5810273
5.4213067
5.3052696
5.2187733
5.1527832
5.1013914
5.0606612
5.0278729
5.0010843
4.9788815
4.960222
4.9443254
4.9305988
4.9185866
4.9079347
4.8983658
4.8896611
4.8816464
4.8741826
4.8671576
4.8604809
4.854079
4.8478921
4.8418716
4.8359773
4.8301768
4.8244431
4.8187544
4.8130928
4.8074435
4.8017947
4.7961368
4.7904621
4.7847645
4.7790392
4.7732825
4.7674919
4.7616656
4.7558022
4.7499013
4.7439629
4.7379873
4.7319753
4.7259279
4.7198466
4.713733
4.7075889
4.7014164
4.6952177
4.6889952
4.6827513
4.6764887
4.6702101
4.6639183
4.6576167
4.6513079
4.6449951
4.6386817
4.6323709
4.6260662
4.6197709
4.6134886
4.607223
4.6009777
4.5947565
4.5885633
4.5824018
4.5762762
4.5701904
4.5641486
4.558155
4.5522138
4.5463294
4.5405061
4.5347488
4.5290616
4.5234494
4.517917
4.5124692
4.5071113
4.5018463
4.4966964
4.4915307
4.4875854
4.4853527
4.4841243
4.4833626
4.4828412
4.4824634
4.4821803
4.4819635
4.4817938
4.4816602
4.481553
4.4814663
4.4813956
4.4813375
4.4812895
4.4812495
4.4812162
4.4811881
4.4811645
4.4811446
4.4811272
4.4811144
4.4810948
0.007354258
0.0073291135
0.007324614
0.0073250905
0.0073258004
0.0073263975
0.0073270002
0.0073276621
0.007328399
0.0073292176
0.0073301228
0.0073311182
0.0073322062
0.0073333865
0.007334656
0.0073360073
0.0073374288
0.0073389042
0.0073404184
0.007341958
0.0073435663
0.0073458711
0.0073378439
0.0076254687
8.769257
9.5564646
7.5893822
6.6633876
6.1298734
5.779823
5.5406712
5.3704116
5.2453517
5.1512469
5.0788705
5.0221181
4.9768797
4.9402916
4.9102931
4.8853732
4.8644084
4.8465522
4.8311568
4.817721
4.8058528
4.7952435
4.7856474
4.7768683
4.768748
4.7611585
4.7539958
4.7471749
4.7406261
4.7342921
4.7281258
4.7220882
4.7161473
4.7102765
4.7044537
4.6986609
4.6928832
4.6871083
4.6813263
4.675529
4.66971
4.6638642
4.6579875
4.652077
4.6461305
4.6401466
4.6341245
4.6280638
4.6219648
4.615828
4.6096543
4.603445
4.5972016
4.5909258
4.5846197
4.5782852
4.5719248
4.565541
4.5591362
4.5527132
4.5462752
4.5398249
4.5333654
4.5269
4.5204319
4.5139645
4.5075013
4.5010459
4.4946019
4.4881731
4.4817634
4.4753765
4.4690166
4.4626878
4.4563941
4.4501399
4.4439296
4.4377676
4.4316585
4.4256067
4.4196175
4.413695
4.4078448
4.4020716
4.3963807
4.3907778
4.3852662
4.3798695
4.3744535
4.3702106
4.367694
4.3662532
4.3653404
4.3647087
4.3642475
4.3638997
4.3636319
4.3634214
4.3632546
4.3631204
4.3630114
4.3629222
4.3628486
4.3627876
4.3627367
4.362694
4.3626581
4.3626277
4.362602
4.3625795
4.3625629
4.3625377
0.0070584597
0.0070263723
0.0070201121
0.0070205495
0.0070213737
0.0070220544
0.0070227317
0.0070234735
0.0070242997
0.0070252177
0.0070262328
0.0070273491
0.0070285688
0.0070298919
0.007031315
0.0070328303
0.0070344254
0.0070360833
0.0070377883
0.0070395288
0.0070413448
0.0070440425
0.0070347227
0.0073324786
7.6216462
9.3579234
7.4437985
6.5028239
5.9677549
5.6146132
5.3696559
5.1929084
5.0616412
4.9619257
4.8846053
4.8235482
4.7745831
4.7347796
4.7020133
4.6747142
4.6517066
4.6320979
4.6152004
4.6004785
4.5875108
4.575963
4.5655677
4.5561097
4.5474147
4.5393408
4.5317716
4.5246118
4.5177826
4.5112189
4.5048666
4.4986809
4.4926243
4.4866658
4.4807793
4.4749433
4.4691397
4.4633537
4.4575729
4.451787
4.4459878
4.4401685
4.4343236
4.4284489
4.422541
4.4165976
4.4106169
4.4045978
4.3985398
4.3924428
4.3863072
4.3801337
4.3739233
4.3676773
4.3613975
4.3550856
4.3487435
4.3423735
4.335978
4.3295593
4.3231206
4.3166643
4.3101934
4.303711
4.2972203
4.2907246
4.2842272
4.2777316
4.2712415
4.2647606
4.2582925
4.2518414
4.245411
4.2390057
4.2326295
4.2262868
4.219982
4.2137196
4.2075043
4.2013408
4.1952342
4.1891892
4.183211
4.1773049
4.1714764
4.1657314
4.1600732
4.1545268
4.148958
4.1444852
4.1417104
4.1400603
4.1389924
4.1382448
4.1376947
4.1372773
4.136954
4.1366987
4.1364953
4.136331
4.136197
4.136087
4.1359959
4.1359201
4.1358567
4.1358033
4.1357583
4.13572
4.1356876
4.1356593
4.1356381
4.1356065
0.0067298113
0.0066886993
0.0066800299
0.0066803508
0.0066812938
0.006682063
0.0066828175
0.0066836425
0.0066845623
0.0066855853
0.0066867168
0.0066879612
0.0066893208
0.0066907955
0.0066923818
0.0066940713
0.0066958511
0.0066977033
0.006699612
0.0067015684
0.0067036021
0.0067067433
0.0066959425
0.0070016353
6.3734348
8.955547
7.1526485
6.210358
5.6820048
5.3337099
5.0890446
4.9102026
4.775913
4.6729338
4.5924257
4.5283941
4.4767205
4.4344877
4.399566
4.3703695
4.3457018
4.3246479
4.3064984
4.2906967
4.2768025
4.264464
4.2533983
4.2433762
4.2342109
4.2257494
4.2178658
4.2104558
4.2034331
4.1967256
4.1902734
4.1840262
4.1779418
4.1719849
4.1661259
4.1603397
4.1546055
4.1489057
4.1432255
4.1375526
4.1318769
4.12619
4.1204847
4.1147557
4.1089982
4.1032088
4.0973848
4.0915242
4.0856256
4.0796883
4.073712
4.0676967
4.0616429
4.0555515
4.0494237
4.0432607
4.0370643
4.0308362
4.0245785
4.0182932
4.0119831
4.0056506
3.9992983
3.992929
3.9865458
3.9801516
3.9737497
3.9673435
3.9609363
3.9545317
3.9481334
3.9417452
3.9353709
3.9290146
3.9226804
3.9163725
3.9100953
3.9038534
3.8976513
3.8914937
3.8853858
3.8793322
3.8733384
3.8674097
3.8615516
3.8557701
3.8500688
3.844473
3.8388524
3.8342273
3.8312326
3.8293861
3.8281655
3.8273008
3.8266594
3.8261695
3.8257877
3.8254848
3.8252423
3.8250455
3.8248844
3.8247516
3.8246414
3.8245493
3.8244719
3.8244067
3.8243515
3.8243044
3.8242645
3.8242294
3.824203
3.824164
0.0063704781
0.0063177397
0.0063058001
0.0063058757
0.0063069295
0.0063077862
0.0063086163
0.0063095239
0.0063105382
0.0063116684
0.0063129198
0.0063142964
0.0063158006
0.0063174322
0.0063191874
0.0063210576
0.0063230291
0.0063250834
0.0063272043
0.0063293872
0.0063316421
0.0063352744
0.0063228378
0.0066331976
5.115594
8.3724364
6.7435815
5.8146996
5.2993779
4.9627017
4.7240641
4.5475027
4.4134913
4.309764
4.2280081
4.1625134
4.1093182
4.0655953
4.0292666
3.9987733
3.972931
3.9508275
3.9317506
3.9151384
3.9005431
3.8876049
3.8760327
3.8655892
3.8560798
3.8473442
3.8392498
3.8316859
3.8245605
3.8177964
3.8113287
3.8051028
3.7990727
3.7931994
3.78745
3.7817967
3.7762158
3.7706874
3.7651945
3.759723
3.7542608
3.7487978
3.7433256
3.7378373
3.732327
3.7267903
3.7212232
3.715623
3.7099873
3.7043147
3.698604
3.6928548
3.6870669
3.6812405
3.6753762
3.669475
3.6635379
3.6575664
3.6515621
3.6455266
3.6394623
3.6333713
3.6272559
3.6211184
3.6149618
3.6087886
3.6026019
3.5964047
3.5902002
3.5839917
3.5777826
3.5715765
3.5653771
3.5591882
3.5530138
3.5468578
3.5407246
3.5346185
3.5285439
3.5225055
3.5165082
3.5105568
3.5046564
3.4988125
3.4930304
3.4873164
3.4816737
3.4761279
3.4705552
3.4658614
3.4626965
3.4606763
3.4593127
3.4583347
3.4576031
3.4570404
3.4565992
3.4562476
3.4559645
3.4557338
3.4555443
3.4553874
3.4552567
3.4551472
3.4550549
3.4549768
3.4549105
3.4548538
3.4548056
3.4547632
3.454731
3.4546839
0.0059839876
0.0059164602
0.0059001253
0.0058997494
0.0059008842
0.0059018174
0.0059027143
0.0059036979
0.0059048029
0.0059060382
0.0059074083
0.0059089169
0.0059105661
0.0059123554
0.0059142806
0.0059163327
0.0059184976
0.0059207566
0.0059230924
0.0059255069
0.0059279784
0.0059321427
0.0059179832
0.0062286364
3.9237984
7.6397845
6.2470423
5.3469717
4.8489886
4.5290329
4.3013286
4.1310519
4.0004705
3.8984786
3.8174462
3.7520646
3.6986155
3.6544277
3.6175249
3.5864153
3.5599571
3.5372649
3.5176432
3.5005397
3.4855114
3.4722004
3.4603152
3.4496168
3.4399082
3.431026
3.4228341
3.4152187
3.4080843
3.4013502
3.3949486
3.3888216
3.3829205
3.3772036
3.3716355
3.3661859
3.3608291
3.355543
3.3503091
3.3451111
3.3399357
3.3347711
3.3296077
3.3244373
3.3192528
3.3140486
3.3088199
3.303563
3.2982747
3.2929527
3.2875951
3.2822007
3.2767688
3.2712989
3.2657911
3.2602457
3.2546633
3.2490449
3.2433916
3.2377045
3.2319856
3.2262367
3.2204594
3.214656
3.2088288
3.2029801
3.1971127
3.1912291
3.1853322
3.1794251
3.1735108
3.1675925
3.1616738
3.1557581
3.149849
3.1439504
3.1380663
3.1322007
3.1263578
3.120542
3.1147582
3.1090108
3.1033048
3.0976455
3.092038
3.0864886
3.0810003
3.075598
3.0701677
3.0654907
3.0622137
3.0600517
3.0585617
3.0574795
3.0566627
3.0560301
3.0555311
3.0551313
3.0548077
3.0545429
3.0543245
3.0541431
3.0539913
3.0538637
3.0537558
3.0536642
3.0535862
3.0535194
3.0534623
3.0534121
3.0533737
3.0533179
0.0055753017
0.0054892839
0.0054671129
0.0054659669
0.0054671162
0.0054680986
0.0054690425
0.0054700875
0.005471272
0.0054726038
0.005474086
0.0054757208
0.0054775097
0.0054794516
0.0054815419
0.0054837712
0.0054861249
0.0054885842
0.0054911308
0.0054937755
0.0054964493
0.0055011744
0.0054853146
0.0057908486
2.8585001
6.7907517
5.6932215
4.8375707
4.3595702
4.0595302
3.8464887
3.6858358
3.5614507
3.4634548
3.384996
3.3212466
3.268795
3.2251759
3.1885556
3.1575415
3.1310607
3.1082761
3.088526
3.0712816
3.0561165
3.0426839
3.0306999
3.0199301
3.0101804
3.0012887
2.9931195
2.9855585
2.9785093
2.9718903
2.9656321
2.9596755
2.95397
2.9484723
2.9431454
2.9379576
2.9328814
2.9278935
2.9229736
2.9181044
2.9132711
2.9084608
2.9036627
2.8988673
2.8940669
2.8892546
2.8844249
2.879573
2.874695
2.8697879
2.8648491
2.8598766
2.854869
2.8498253
2.8447449
2.8396277
2.8344736
2.8292831
2.8240568
2.8187955
2.8135004
2.808173
2.8028146
2.7974268
2.7920117
2.7865711
2.7811073
2.7756225
2.7701193
2.7646002
2.759068
2.7535255
2.7479758
2.742422
2.7368675
2.7313156
2.72577
2.7202344
2.7147128
2.7092092
2.703728
2.6982735
2.6928504
2.6874635
2.6821179
2.6768194
2.6715711
2.6663964
2.661193
2.6566155
2.6532899
2.6510256
2.6494325
2.6482603
2.6473675
2.646671
2.646118
2.6456727
2.6453104
2.6450126
2.644766
2.6445602
2.6443875
2.6442418
2.6441182
2.644013
2.6439231
2.6438459
2.6437797
2.6437212
2.6436764
2.6436115
0.0051507663
0.0050421448
0.0050123397
0.0050099463
0.0050109868
0.0050119653
0.0050129202
0.0050139992
0.0050152422
0.0050166537
0.0050182334
0.0050199814
0.0050218976
0.0050239801
0.0050262234
0.0050286177
0.005031148
0.0050337957
0.0050365408
0.0050394059
0.0050422577
0.0050475532
0.0050301699
0.0053243117
1.962183
5.8598722
5.1082035
4.3135557
3.8572434
3.5784635
3.3824547
3.233901
3.1179153
3.0257991
2.9515105
2.8907442
2.8404329
2.7983487
2.7628282
2.7326012
2.7066838
2.6843039
2.6648475
2.6478213
2.6328253
2.6195321
2.6076723
2.5970223
2.5873956
2.578636
2.5706116
2.5632112
2.5563401
2.5499177
2.543875
2.538153
2.532701
2.5274753
2.5224383
2.5175573
2.5128044
2.5081551
2.5035884
2.4990861
2.4946323
2.4902135
2.4858178
2.481435
2.4770564
2.4726745
2.4682829
2.4638761
2.4594495
2.4549993
2.4505223
2.4460159
2.4414781
2.4369072
2.4323022
2.4276622
2.4229868
2.4182758
2.4135295
2.4087479
2.4039321
2.3990828
2.3942009
2.3892878
2.3843448
2.3793736
2.3743757
2.3693532
2.364308
2.3592424
2.3541585
2.349059
2.3439463
2.3388233
2.3336927
2.3285578
2.3234215
2.3182873
2.3131587
2.3080394
2.3029332
2.2978442
2.2927766
2.2877349
2.2827237
2.2777486
2.2728122
2.2679364
2.2630318
2.2586296
2.2553204
2.2529982
2.2513308
2.2500876
2.2491317
2.2483803
2.2477799
2.2472937
2.2468961
2.2465678
2.2462947
2.246066
2.2458733
2.2457102
2.2455714
2.2454528
2.2453511
2.2452636
2.2451884
2.2451217
2.2450704
2.2449962
0.0047179071
0.0045824335
0.0045428227
0.0045384893
0.0045392128
0.0045400955
0.0045410013
0.0045420698
0.0045433364
0.0045447991
0.0045464519
0.0045482908
0.0045503133
0.0045525156
0.0045548914
0.0045574299
0.0045601157
0.0045629308
0.0045658527
0.0045689194
0.0045719147
0.0045777631
0.0045592273
0.0048351501
1.258225
4.8842273
4.5109024
3.7965504
3.3639226
3.1062368
2.9282622
2.7933308
2.6872838
2.6024536
2.5335838
2.4768979
2.4296846
2.3899681
2.3562686
2.3274521
2.3026362
2.2811248
2.2623617
2.2458978
2.2313669
2.2184679
2.2069513
2.1966092
2.1872673
2.1787787
2.1710187
2.1638815
2.1572768
2.1511269
2.1453653
2.1399347
2.1347854
2.1298744
2.1251647
2.1206238
2.1162235
2.1119395
2.1077502
2.103637
2.0995838
2.0955763
2.0916023
2.0876509
2.0837129
2.0797802
2.0758456
2.0719034
2.0679481
2.0639755
2.0599817
2.0559637
2.0519189
2.047845
2.0437405
2.0396041
2.0354348
2.031232
2.0269954
2.0227247
2.0184202
2.0140824
2.0097118
2.0053092
2.0008754
1.9964118
1.9919194
1.9873998
1.9828546
1.9782854
1.9736942
1.9690829
1.9644537
1.9598088
1.9551509
1.9504823
1.9458058
1.9411243
1.9364409
1.9317588
1.9270814
1.9224121
1.917755
1.9131139
1.908493
1.9038973
1.8993293
1.8948087
1.8902596
1.8860986
1.8828685
1.8805355
1.8788263
1.8775346
1.8765317
1.8757372
1.8750981
1.8745777
1.8741498
1.8737948
1.8734982
1.8732489
1.873038
1.8728588
1.8727059
1.8725748
1.872462
1.8723647
1.8722807
1.8722062
1.8721485
1.8720653
0.0042850536
0.004118806
0.0040668779
0.0040596322
0.0040597104
0.0040603492
0.0040611119
0.0040621009
0.0040633377
0.0040648079
0.004066496
0.004068392
0.0040704888
0.0040727801
0.0040752576
0.0040779096
0.00408072
0.0040836715
0.004086738
0.004089977
0.0040930717
0.0040994195
0.0040803189
0.0043310781
0.75092736
3.9026761
3.9124911
3.3019572
2.8963814
2.6586961
2.4985477
2.3778287
2.2825745
2.2059197
2.1433205
2.0915061
2.0481134
2.0114158
1.9801191
1.9532296
1.929971
1.9097289
1.8920106
1.8764161
1.862618
1.8503457
1.8393742
1.8295147
1.8206082
1.81252
1.8051355
1.7983564
1.7920987
1.7862898
1.780867
1.775776
1.7709697
1.766407
1.762052
1.7578734
1.7538438
1.7499392
1.7461385
1.7424232
1.7387772
1.735186
1.7316373
1.72812
1.7246245
1.7211424
1.7176663
1.7141897
1.7107071
1.7072136
1.7037051
1.700178
1.6966292
1.6930562
1.6894569
1.6858295
1.6821727
1.6784853
1.6747667
1.6710162
1.6672336
1.663419
1.6595724
1.6556942
1.6517848
1.6478451
1.6438758
1.639878
1.6358528
1.6318014
1.6277253
1.6236261
1.6195055
1.6153652
1.6112073
1.6070338
1.6028471
1.5986494
1.5944435
1.5902319
1.5860176
1.5818037
1.5775934
1.5733903
1.5691979
1.5650207
1.5608609
1.5567358
1.5525827
1.5487158
1.5456219
1.543325
1.5416083
1.5402932
1.5392618
1.5384382
1.5377711
1.5372246
1.5367729
1.5363964
1.5360804
1.5358136
1.5355871
1.535394
1.5352285
1.5350863
1.5349635
1.5348572
1.5347653
1.5346834
1.5346199
1.5345281
0.0038607991
0.0036608346
0.0035938495
0.0035823772
0.0035813209
0.0035814902
0.0035819693
0.003582777
0.0035839054
0.0035853193
0.0035869886
0.003588893
0.0035910191
0.0035933562
0.003595893
0.0035986164
0.0036015091
0.0036045548
0.0036077225
0.003611093
0.0036142353
0.0036209855
0.0036021142
0.0038212041
0.41475206
2.960824
3.3199842
2.8385071
2.4658908
2.246963
2.1035296
1.9967939
1.9125497
1.8444598
1.7885839
1.7421112
1.7030034
1.6697692
1.6412915
1.6167124
1.5953607
1.5767038
1.5603133
1.5458406
1.532999
1.5215508
1.5112975
1.5020717
1.4937319
1.4861576
1.4792458
1.4729078
1.4670672
1.4616578
1.4566222
1.4519103
1.4474785
1.4432883
1.4393063
1.4355029
1.4318521
1.428331
1.4249195
1.4215997
1.4183557
1.4151737
1.4120413
1.4089476
1.4058829
1.4028388
1.3998077
1.396783
1.3937589
1.3907304
1.3876929
1.3846425
1.381576
1.3784904
1.3753833
1.3722525
1.3690964
1.3659135
1.3627027
1.3594631
1.3561938
1.3528948
1.3495657
1.3462064
1.3428171
1.339398
1.3359497
1.3324726
1.3289677
1.3254356
1.3218775
1.3182944
1.3146876
1.3110585
1.3074086
1.3037395
1.3000531
1.2963512
1.2926359
1.2889095
1.2851743
1.2814328
1.2776878
1.2739423
1.2701994
1.2664627
1.2627342
1.2590288
1.2552963
1.2517624
1.2488534
1.2466362
1.2449465
1.243634
1.242594
1.2417565
1.2410735
1.2405105
1.2400426
1.2396506
1.2393202
1.23904
1.2388012
1.2385968
1.2384211
1.2382695
1.2381383
1.2380243
1.2379254
1.2378372
1.2377683
1.237669
0.0034533442
0.0032185061
0.0031336847
0.0031163055
0.0031134244
0.0031127965
0.0031127901
0.0031132724
0.0031141816
0.0031154498
0.0031170246
0.0031188708
0.0031209651
0.0031232902
0.0031258306
0.0031285706
0.003131491
0.0031345765
0.0031377901
0.003141239
0.0031443707
0.0031513791
0.0031336767
0.0033157517
0.21171858
2.1036404
2.7375238
2.4088482
2.0783385
1.8776505
1.7493487
1.6557383
1.5821872
1.5226154
1.473553
1.4325895
1.3979789
1.368443
1.343027
1.3209983
1.3017845
1.2849307
1.2700704
1.2569052
1.2451889
1.2347168
1.2253172
1.2168452
1.2091775
1.2022088
1.1958487
1.190019
1.1846521
1.179689
1.1750785
1.1707755
1.1667406
1.1629389
1.1593398
1.1559163
1.1526444
1.1495028
1.1464726
1.1435371
1.1406813
1.137892
1.1351573
1.1324667
1.1298109
1.1271815
1.1245711
1.1219731
1.1193817
1.1167916
1.1141984
1.1115979
1.1089866
1.1063615
1.1037198
1.1010591
1.0983776
1.0956734
1.0929452
1.0901917
1.0874119
1.0846053
1.0817712
1.0789092
1.0760192
1.073101
1.0701549
1.067181