/*--------------------------------*- C++ -*----------------------------------*\
  =========                 |
  \\      /  F ield         | OpenFOAM: The Open Source CFD Toolbox
   \\    /   O peration     | Website:  https://openfoam.org
    \\  /    A nd           | Version:  12
     \\/     M anipulation  |
\*---------------------------------------------------------------------------*/
FoamFile
{
    format      ascii;
    class       volScalarField;
    location    "100";
    object      epsilon;
}
// * * * * * * * * * * * * * * * * * * * * * * * * * * * * * * * * * * * * * //

dimensions      [0 2 -3 0 0 0 0];

internalField   nonuniform List<scalar> 
7480
(
0.015545605
0.065672621
0.16189777
0.29144143
0.42970226
0.55404305
0.65090013
0.71630528
0.75302077
0.76695148
0.76450254
0.75120669
0.73129418
0.707754
0.68258652
0.65708383
0.6320894
0.60817804
0.58573126
0.56502221
0.54626511
0.52963784
0.51527957
0.5032797
0.49366248
0.4863356
0.4809925
0.4772064
0.4744119
0.47201396
0.46953559
0.4667091
0.46347523
0.4599301
0.45621395
0.45243216
0.44862412
0.44477881
0.44087099
0.43689324
0.43286761
0.42883404
0.42483112
0.42088144
0.41699087
0.41315781
0.40938145
0.40566337
0.40200507
0.39840649
0.39486615
0.39138217
0.38795299
0.38457738
0.38125414
0.37798153
0.37475752
0.37158036
0.36844916
0.36536206
0.36231669
0.35931108
0.35634354
0.35341218
0.35051495
0.34764998
0.34481511
0.34200737
0.33922334
0.33645904
0.33370946
0.33096857
0.32822944
0.32548384
0.32272194
0.31993262
0.31710315
0.31421908
0.31126469
0.30822301
0.30507582
0.30180456
0.29839108
0.29481837
0.29107115
0.2871359
0.28300043
0.27865317
0.27408155
0.26926988
0.26419764
0.25883882
0.25316267
0.24713277
0.24071671
0.23385473
0.22661237
0.2185527
0.21123471
0.19671651
0.00023306396
0.0009507649
0.0031668908
0.0075525685
0.014064222
0.02231678
0.031428777
0.040261018
0.047999781
0.054278172
0.059057444
0.062615267
0.06545498
0.06810341
0.071104654
0.075026885
0.08079381
0.088476529
0.096901152
0.10609281
0.11624794
0.12747065
0.13965495
0.15245323
0.16543757
0.17792583
0.18904913
0.1979764
0.20410961
0.20728609
0.20782109
0.20637544
0.20373191
0.20058548
0.1974044
0.19439751
0.19158504
0.18890508
0.18629694
0.18374197
0.18126043
0.17888379
0.1766295
0.17449628
0.17246724
0.17052308
0.16864994
0.16683926
0.16508439
0.16337891
0.1617172
0.16009504
0.15850928
0.15695694
0.15543521
0.15394186
0.15247523
0.15103398
0.14961649
0.14822193
0.14684927
0.14549739
0.14416532
0.14285218
0.14155706
0.14027905
0.13901715
0.1377701
0.13653636
0.13531422
0.13410163
0.13289612
0.13169484
0.13049439
0.12929073
0.12807915
0.12685429
0.12561006
0.1243398
0.12303632
0.12169209
0.12029953
0.11885162
0.11734224
0.11576636
0.11411996
0.11239992
0.11060322
0.10872605
0.10676259
0.10470417
0.10253912
0.10025314
0.097829593
0.095252356
0.092499855
0.089585642
0.086375215
0.083465825
0.077634476
5.8351358e-05
7.746811e-05
0.0001281716
0.00021548613
0.00033919876
0.00050001967
0.00069805227
0.00093037202
0.0011905443
0.001469108
0.0017549575
0.0020379183
0.0023114536
0.0025744514
0.0028332197
0.0031014259
0.0034096584
0.0037961992
0.0043043513
0.0049876629
0.0059140722
0.0071677964
0.0088823818
0.011318342
0.014670969
0.019235253
0.025762015
0.033579274
0.042419804
0.051955696
0.061642219
0.070877178
0.079079921
0.085764872
0.090670791
0.093831112
0.095516952
0.096135649
0.096106047
0.095762459
0.095305253
0.094813253
0.094294698
0.093732643
0.093121108
0.09247161
0.091803111
0.091130151
0.090458205
0.089786587
0.089113532
0.088438816
0.087763384
0.087088084
0.086413218
0.085738885
0.085065231
0.084392446
0.083720612
0.083049869
0.082380591
0.081713161
0.081047865
0.080384928
0.079724529
0.079066764
0.0784116
0.077758813
0.077107933
0.076458275
0.075808947
0.07515882
0.074506473
0.073850151
0.073187708
0.072516593
0.071833863
0.071136214
0.070420037
0.069681504
0.068916685
0.068121785
0.067293531
0.066429462
0.065527901
0.06458773
0.063608077
0.062587838
0.061524936
0.060415532
0.059253599
0.05803111
0.056738466
0.055365147
0.053900291
0.052334135
0.050666118
0.048846032
0.047175277
0.043866526
5.3664781e-05
5.4862387e-05
5.8011859e-05
6.3939926e-05
7.3010864e-05
8.5244597e-05
0.00010045799
0.00011835248
0.00013855413
0.00016063458
0.00018413222
0.00020857279
0.00023352254
0.00025862948
0.00028368266
0.00030862458
0.00033372667
0.00035951525
0.00038709003
0.00041814616
0.00045513146
0.00050153045
0.00056258776
0.00064681923
0.00076755981
0.00094387589
0.0012211269
0.0016492957
0.002300558
0.0032591056
0.0047038868
0.0067976294
0.0097011084
0.013846022
0.018833537
0.024399203
0.030173559
0.035788053
0.040880722
0.045157212
0.048475971
0.050867152
0.052494605
0.053581992
0.054336226
0.054896292
0.05532808
0.055650381
0.05586732
0.055988362
0.056030856
0.056013094
0.055948138
0.055843235
0.055702776
0.055530825
0.055331535
0.055108552
0.054864705
0.054602227
0.054323161
0.054029449
0.053722865
0.053404957
0.053077056
0.052740309
0.052395689
0.052043916
0.051685407
0.051320324
0.050948629
0.050570084
0.050184209
0.04979025
0.049387173
0.048973657
0.048548118
0.048108742
0.047653543
0.047180421
0.046687236
0.046171981
0.045633059
0.045069483
0.044480807
0.043866833
0.043227305
0.042561555
0.041867979
0.041143494
0.040383316
0.039581242
0.03873006
0.037822185
0.036849406
0.035806224
0.034688339
0.033472208
0.032352358
0.030122468
5.3236531e-05
5.3546446e-05
5.40078e-05
5.4761219e-05
5.5945451e-05
5.7657789e-05
5.9945877e-05
6.2817651e-05
6.6251394e-05
7.0203979e-05
7.461837e-05
7.9428626e-05
8.4564747e-05
8.9957136e-05
9.554144e-05
0.00010126106
0.00010707463
0.00011295737
0.00011891215
0.00012497814
0.00013124009
0.00013784112
0.00014500163
0.00015305412
0.00016252246
0.00017408277
0.00018906295
0.0002092338
0.00023740393
0.00027764711
0.00033718903
0.00042806954
0.0005684076
0.00079900409
0.0011743759
0.0017555098
0.0026855651
0.0040635589
0.0060310134
0.0087452424
0.012001439
0.015586803
0.019256672
0.022762827
0.025885376
0.028493856
0.03056482
0.03216667
0.033414629
0.034418702
0.035252044
0.035949749
0.036526035
0.036992076
0.03736302
0.037655435
0.037882668
0.038053608
0.038174547
0.038251053
0.038288436
0.03829141
0.03826392
0.0382093
0.038130487
0.038030128
0.037910541
0.037773623
0.037620846
0.037453363
0.037272081
0.037077667
0.036870534
0.036650837
0.036418488
0.036173164
0.035914336
0.035641299
0.035353216
0.035049157
0.03472813
0.034389192
0.034031644
0.033655182
0.033259823
0.032845638
0.032412493
0.031959816
0.031486249
0.030989283
0.030465113
0.029908917
0.029315171
0.028678164
0.027991344
0.027251017
0.026451644
0.025579846
0.024777693
0.023150262
5.2837938e-05
5.3106707e-05
5.3393452e-05
5.3705401e-05
5.4065702e-05
5.4501965e-05
5.5042866e-05
5.5713352e-05
5.6532043e-05
5.751021e-05
5.8651846e-05
5.9954523e-05
6.1410526e-05
6.3008104e-05
6.473276e-05
6.656834e-05
6.8498228e-05
7.0506267e-05
7.257796e-05
7.4701849e-05
7.6870985e-05
7.908466e-05
8.1349986e-05
8.3684085e-05
8.6120639e-05
8.8708077e-05
9.1531181e-05
9.4713927e-05
9.8442335e-05
0.0001029785
0.00010871479
0.00011626658
0.00012647684
0.00014086652
0.00016186147
0.00019292264
0.00024076177
0.0003157534
0.00043598153
0.00063696592
0.00096365236
0.0015037183
0.0023457197
0.0035856903
0.005332384
0.0074820294
0.00989377
0.012405244
0.014842672
0.017057778
0.018965497
0.02055322
0.021864427
0.022963308
0.023902837
0.024713296
0.025409011
0.026000406
0.02650002
0.026921199
0.027274953
0.027569284
0.027810594
0.028004774
0.028157258
0.028272776
0.028355344
0.028408362
0.028434701
0.028436781
0.028416649
0.028376025
0.028316318
0.028238653
0.02814389
0.028032667
0.027905421
0.027762419
0.027603784
0.027429514
0.027239483
0.02703349
0.0268114
0.026573261
0.026319265
0.026049539
0.025763965
0.025462048
0.025142718
0.024804073
0.024443263
0.024056696
0.023640241
0.023189589
0.022699354
0.022166665
0.021585353
0.02094666
0.020359065
0.019130321
5.2359509e-05
5.2625975e-05
5.2903367e-05
5.3183578e-05
5.3466474e-05
5.375689e-05
5.4060599e-05
5.4384421e-05
5.4735779e-05
5.5122221e-05
5.5549808e-05
5.6024071e-05
5.6549234e-05
5.7127917e-05
5.7761061e-05
5.8447988e-05
5.9186573e-05
5.9973463e-05
6.0804367e-05
6.1674387e-05
6.2578394e-05
6.3511444e-05
6.4469237e-05
6.5448501e-05
6.6447904e-05
6.7468521e-05
6.8515351e-05
6.9598624e-05
7.0736126e-05
7.1955049e-05
7.3295196e-05
7.4817174e-05
7.6604049e-05
7.8779735e-05
8.1534139e-05
8.5129348e-05
8.9984761e-05
9.6726959e-05
0.00010631171
0.00012039674
0.00014159789
0.00017485511
0.00022828139
0.00031571704
0.00046456686
0.00071027642
0.0011295369
0.0017848392
0.0027843957
0.0041189143
0.0057273915
0.0075057966
0.0093307182
0.011079328
0.012663197
0.014044527
0.015232831
0.016261591
0.017162753
0.017955261
0.018648666
0.019251197
0.019773101
0.020224743
0.020614491
0.020948905
0.021233822
0.02147462
0.021675941
0.021841667
0.021975154
0.022079365
0.022156859
0.022209818
0.02224011
0.022249354
0.022238949
0.022210089
0.022163778
0.022100842
0.022021896
0.021927355
0.021817517
0.021692674
0.021553114
0.021398994
0.021230239
0.021046503
0.020847087
0.020630757
0.020395623
0.020139257
0.019858772
0.019551032
0.019211594
0.018837995
0.018423673
0.017962197
0.01753714
0.016605256
5.1821011e-05
5.2085231e-05
5.2360494e-05
5.2638077e-05
5.2915992e-05
5.3194009e-05
5.3472397e-05
5.3751836e-05
5.4033457e-05
5.4318671e-05
5.461002e-05
5.4909669e-05
5.5219692e-05
5.5542039e-05
5.5878431e-05
5.6230255e-05
5.6598469e-05
5.6983538e-05
5.7385406e-05
5.7803494e-05
5.8236741e-05
5.8683659e-05
5.9142428e-05
5.9611002e-05
6.0087267e-05
6.056922e-05
6.1055204e-05
6.1544191e-05
6.2036187e-05
6.2532683e-05
6.3037049e-05
6.3555808e-05
6.4099348e-05
6.4681539e-05
6.5324983e-05
6.6062606e-05
6.6942638e-05
6.803487e-05
6.9437295e-05
7.129682e-05
7.382686e-05
7.7376071e-05
8.2491894e-05
9.0025559e-05
0.00010147843
0.00011926039
0.00014838525
0.00019646048
0.00027957292
0.00042193829
0.00066793561
0.0010762831
0.001718182
0.0026274697
0.0037743488
0.0050901922
0.006484843
0.0078612042
0.0091432728
0.010293068
0.011309992
0.012212333
0.013017599
0.013735172
0.014370516
0.014930451
0.015423399
0.015856979
0.016237092
0.01656878
0.016856835
0.017105607
0.017318824
0.01749974
0.017651274
0.017776055
0.01787644
0.017954527
0.018012178
0.018051007
0.018072338
0.018077167
0.018066219
0.01804004
0.017999042
0.017943461
0.017873335
0.017788546
0.017688822
0.017573625
0.017442015
0.017292677
0.01712389
0.016933597
0.016718248
0.01647567
0.016199157
0.01588345
0.015592429
0.014901876
5.1237102e-05
5.1499151e-05
5.1772402e-05
5.2048242e-05
5.2324589e-05
5.2600882e-05
5.2876799e-05
5.315209e-05
5.3426581e-05
5.3700157e-05
5.3972837e-05
5.424475e-05
5.451612e-05
5.4787247e-05
5.5058482e-05
5.5330196e-05
5.5602738e-05
5.5876399e-05
5.6151366e-05
5.6427688e-05
5.6705245e-05
5.6983718e-05
5.7262578e-05
5.7541079e-05
5.7818265e-05
5.8092992e-05
5.8363961e-05
5.8629755e-05
5.8888911e-05
5.9140002e-05
5.9381735e-05
5.9612971e-05
5.9832944e-05
6.0043297e-05
6.024606e-05
6.0444251e-05
6.0643361e-05
6.0852121e-05
6.1082235e-05
6.1352914e-05
6.1692013e-05
6.2141222e-05
6.2762757e-05
6.364676e-05
6.4932299e-05
6.6820455e-05
6.9673401e-05
7.403176e-05
8.0884381e-05
9.1870715e-05
0.00011019457
0.00014143657
0.00019637577
0.00029333528
0.0004648994
0.00076052686
0.0012414301
0.0019345704
0.0028254634
0.0038636433
0.0049754338
0.0060816805
0.0071214686
0.0080669988
0.0089189982
0.0096887889
0.010384545
0.011009946
0.011568836
0.012067144
0.01251108
0.012905713
0.013255397
0.013564333
0.013836447
0.014075256
0.014283972
0.014465552
0.014622678
0.014757725
0.014872707
0.014969229
0.015048488
0.015111349
0.01515843
0.01519013
0.015206672
0.015208217
0.015194937
0.015166971
0.01512428
0.015066605
0.014993344
0.014903504
0.01479449
0.014664483
0.014506987
0.014317277
0.01414333
0.013661892
5.0620761e-05
5.088088e-05
5.1152291e-05
5.142652e-05
5.1701451e-05
5.1976485e-05
5.2251274e-05
5.2525508e-05
5.2798884e-05
5.3071096e-05
5.3341825e-05
5.3610748e-05
5.3877541e-05
5.4141883e-05
5.4403463e-05
5.4661969e-05
5.4917093e-05
5.5168519e-05
5.5415916e-05
5.565893e-05
5.589717e-05
5.6130197e-05
5.6357504e-05
5.6578504e-05
5.6792517e-05
5.6998757e-05
5.7196324e-05
5.738419e-05
5.75612e-05
5.772607e-05
5.7877394e-05
5.8013621e-05
5.813309e-05
5.8234268e-05
5.831567e-05
5.8375871e-05
5.8413453e-05
5.8427513e-05
5.8419165e-05
5.8389428e-05
5.8340527e-05
5.8276966e-05
5.8204899e-05
5.8135275e-05
5.8085501e-05
5.8080228e-05
5.8158896e-05
5.837936e-05
5.8834573e-05
5.9666037e-05
6.1118205e-05
6.3590805e-05
6.7796236e-05
7.4969924e-05
8.7577334e-05
0.00011015981
0.00015190965
0.00022817063
0.00036938004
0.00061819306
0.0010307426
0.0016226343
0.0023776057
0.0032495397
0.0041710917
0.0050772638
0.0059257483
0.0067035694
0.007414916
0.0080655116
0.0086574354
0.0091925471
0.0096749464
0.010109527
0.010500455
0.010851474
0.011166378
0.011448816
0.01170212
0.011929301
0.012133022
0.0123155
0.012478449
0.012623134
0.012750475
0.012861115
0.012955524
0.013034165
0.013097633
0.013146672
0.01318206
0.013204505
0.013214474
0.013212052
0.013195721
0.013164188
0.01311163
0.013033482
0.012965102
0.012672339
4.9982423e-05
5.0240927e-05
5.0510769e-05
5.0783614e-05
5.1057338e-05
5.1331313e-05
5.1605194e-05
5.1878673e-05
5.215145e-05
5.2423212e-05
5.2693625e-05
5.2962325e-05
5.3228923e-05
5.3493004e-05
5.3754122e-05
5.4011808e-05
5.4265559e-05
5.4514846e-05
5.4759111e-05
5.4997766e-05
5.52302e-05
5.5455767e-05
5.5673791e-05
5.5883556e-05
5.6084303e-05
5.6275218e-05
5.6455426e-05
5.6623972e-05
5.6779813e-05
5.6921801e-05
5.7048673e-05
5.715903e-05
5.7251332e-05
5.7323902e-05
5.7374927e-05
5.7402458e-05
5.7404377e-05
5.7378441e-05
5.7322498e-05
5.7234464e-05
5.7112359e-05
5.6954237e-05
5.6759925e-05
5.6529046e-05
5.6261667e-05
5.5958834e-05
5.56218e-05
5.525427e-05
5.4863561e-05
5.4461777e-05
5.4070043e-05
5.3723924e-05
5.3485667e-05
5.3456538e-05
5.3819503e-05
5.4888799e-05
5.7260123e-05
6.1971477e-05
7.129598e-05
8.9440331e-05
0.00012563619
0.00019499202
0.00033112164
0.00057599568
0.00097140799
0.0015248417
0.0022092892
0.0029722855
0.0037522084
0.00450103
0.0051980462
0.0058426524
0.0064385677
0.0069866249
0.0074873427
0.007943561
0.0083592197
0.0087378786
0.0090828645
0.0093975333
0.0096850289
0.009948051
0.010188786
0.01040894
0.010609798
0.010792309
0.010957229
0.011105318
0.011237539
0.011355133
0.011459554
0.011552357
0.011634991
0.011708609
0.011772895
0.011827297
0.011867193
0.011888021
0.011915577
0.011795956
4.933089e-05
4.9588072e-05
4.9856618e-05
5.012832e-05
5.0401062e-05
5.06742e-05
5.0947393e-05
5.122034e-05
5.1492749e-05
5.1764315e-05
5.2034714e-05
5.2303591e-05
5.2570564e-05
5.2835219e-05
5.3097112e-05
5.3355761e-05
5.3610647e-05
5.3861213e-05
5.4106861e-05
5.434696e-05
5.4580842e-05
5.4807805e-05
5.5027112e-05
5.5237992e-05
5.5439636e-05
5.5631195e-05
5.5811772e-05
5.5980407e-05
5.6136073e-05
5.6277657e-05
5.6403948e-05
5.6513622e-05
5.6605231e-05
5.6677184e-05
5.6727738e-05
5.6754983e-05
5.675683e-05
5.6731006e-05
5.6675085e-05
5.6586531e-05
5.6462747e-05
5.630108e-05
5.6099008e-05
5.5854051e-05
5.5563659e-05
5.5224903e-05
5.4835528e-05
5.439212e-05
5.3890295e-05
5.3325235e-05
5.2692425e-05
5.1988491e-05
5.1212766e-05
5.0369271e-05
4.9470033e-05
4.8536976e-05
4.7617977e-05
4.6798504e-05
4.623931e-05
4.6216733e-05
4.7278029e-05
5.0439023e-05
5.8092778e-05
7.5164761e-05
0.00011167664
0.00018814194
0.00034036025
0.00061458405
0.0010313499
0.0015782338
0.0022154203
0.0028865416
0.0035435808
0.0041631362
0.0047420905
0.005282595
0.00578464
0.0062482236
0.0066755796
0.0070699273
0.0074341838
0.0077709976
0.0080828141
0.0083716917
0.0086392336
0.00888668
0.0091150694
0.0093254295
0.009518998
0.0096973739
0.0098625097
0.010016623
0.010162003
0.010300793
0.010433944
0.01056184
0.010681568
0.010788592
0.010902016
0.010940491
4.867378e-05
4.8929892e-05
4.9197378e-05
4.9468151e-05
4.974011e-05
5.0012607e-05
5.0285304e-05
5.0557911e-05
5.0830144e-05
5.110171e-05
5.1372292e-05
5.164155e-05
5.1909113e-05
5.2174584e-05
5.243753e-05
5.2697484e-05
5.2953941e-05
5.3206355e-05
5.3454143e-05
5.3696681e-05
5.393331e-05
5.4163333e-05
5.4386021e-05
5.4600608e-05
5.4806294e-05
5.5002241e-05
5.5187564e-05
5.5361325e-05
5.552252e-05
5.567007e-05
5.5802802e-05
5.5919442e-05
5.6018597e-05
5.6098745e-05
5.6158214e-05
5.619517e-05
5.6207601e-05
5.6193309e-05
5.6149924e-05
5.6074924e-05
5.5965678e-05
5.5819492e-05
5.5633626e-05
5.5405294e-05
5.5131574e-05
5.480922e-05
5.443454e-05
5.4003048e-05
5.3509153e-05
5.294604e-05
5.2305771e-05
5.1579564e-05
5.0758289e-05
4.9833217e-05
4.8797866e-05
4.7651747e-05
4.6397877e-05
4.5041164e-05
4.3598289e-05
4.2098119e-05
4.059381e-05
3.9151914e-05
3.7914485e-05
3.718058e-05
3.7474471e-05
4.0063032e-05
4.7766112e-05
6.7579922e-05
0.0001126482
0.00021445665
0.0004140917
0.00073974048
0.0011905119
0.0017333426
0.0023162541
0.0028937477
0.0034434654
0.0039620788
0.004450983
0.0049097489
0.0053381951
0.0057380141
0.0061114856
0.0064604736
0.0067865279
0.0070910354
0.0073752295
0.0076402962
0.0078876177
0.0081189759
0.0083366041
0.0085431453
0.0087415035
0.0089346413
0.0091247212
0.0093131641
0.0094991653
0.0096783038
0.0098657344
0.010044804
4.8017644e-05
4.827289e-05
4.8539516e-05
4.8809537e-05
4.9080878e-05
4.9352891e-05
4.9625243e-05
4.9897658e-05
5.016986e-05
5.0441567e-05
5.0712472e-05
5.0982249e-05
5.1250541e-05
5.1516963e-05
5.17811e-05
5.2042499e-05
5.2300674e-05
5.2555098e-05
5.2805204e-05
5.305039e-05
5.3290017e-05
5.3523409e-05
5.374986e-05
5.396863e-05
5.4178945e-05
5.4379996e-05
5.4570932e-05
5.4750848e-05
5.4918781e-05
5.5073691e-05
5.5214453e-05
5.5339842e-05
5.5448518e-05
5.5539017e-05
5.5609732e-05
5.5658897e-05
5.5684569e-05
5.5684624e-05
5.5656753e-05
5.559849e-05
5.5507242e-05
5.5380335e-05
5.5215043e-05
5.5008578e-05
5.4758026e-05
5.4460191e-05
5.4111385e-05
5.3707155e-05
5.3242009e-05
5.2709217e-05
5.2100761e-05
5.1407499e-05
5.0619551e-05
4.9726904e-05
4.8720212e-05
4.7591825e-05
4.6336656e-05
4.4952725e-05
4.3441609e-05
4.1808633e-05
4.0062188e-05
3.8232505e-05
3.6350694e-05
3.4440489e-05
3.2552736e-05
3.0775328e-05
2.9223562e-05
2.8207331e-05
2.8397235e-05
3.1617576e-05
4.2695842e-05
7.1821019e-05
0.0001448969
0.00029908225
0.00056794964
0.00095366108
0.0014261218
0.0019373939
0.0024468136
0.0029354942
0.0034009198
0.0038439479
0.0042637438
0.0046597492
0.0050328087
0.0053841416
0.0057147525
0.0060256641
0.0063182024
0.00659412
0.0068556591
0.0071055883
0.00734712
0.0075837473
0.0078186327
0.0080541758
0.0082918571
0.0085274569
0.0087746485
0.0090725809
4.7367945e-05
4.7622493e-05
4.7888421e-05
4.8157839e-05
4.8428694e-05
4.8700345e-05
4.8972468e-05
4.9244797e-05
4.951707e-05
4.9789011e-05
5.0060329e-05
5.0330707e-05
5.0599803e-05
5.0867247e-05
5.1132638e-05
5.139554e-05
5.1655485e-05
5.1911964e-05
5.2164431e-05
5.2412304e-05
5.2654967e-05
5.2891769e-05
5.312203e-05
5.3345036e-05
5.3560046e-05
5.3766283e-05
5.3962929e-05
5.414912e-05
5.4323932e-05
5.4486367e-05
5.4635346e-05
5.476969e-05
5.4888112e-05
5.4989203e-05
5.5071414e-05
5.513304e-05
5.5172206e-05
5.518685e-05
5.5174727e-05
5.5133423e-05
5.5060385e-05
5.4952967e-05
5.4808464e-05
5.4624111e-05
5.4397036e-05
5.4124124e-05
5.3801819e-05
5.342586e-05
5.2991002e-05
5.2490791e-05
5.1917473e-05
5.1262082e-05
5.0514771e-05
4.9665356e-05
4.870406e-05
4.7622352e-05
4.6413786e-05
4.5074731e-05
4.3604912e-05
4.2007647e-05
4.0289726e-05
3.8461895e-05
3.6538562e-05
3.4535837e-05
3.2471465e-05
3.0362771e-05
2.8264968e-05
2.6211608e-05
2.4240293e-05
2.2441083e-05
2.0956038e-05
2.0166562e-05
2.1273521e-05
2.7799159e-05
4.8391522e-05
0.00010600243
0.00023537865
0.00046962534
0.00081032256
0.0012285104
0.0016806276
0.0021320811
0.0025680438
0.0029867405
0.003388371
0.0037716448
0.0041356611
0.0044807971
0.0048080522
0.0051187387
0.0054147021
0.0056984776
0.005973208
0.0062425092
0.006510151
0.0067792496
0.0070534368
0.0073287517
0.007619191
0.0080093825
4.6729053e-05
4.6983036e-05
4.7248401e-05
4.7517333e-05
4.7787808e-05
4.8059193e-05
4.8331173e-05
4.8603493e-05
4.8875902e-05
4.9148136e-05
4.9419915e-05
4.9690933e-05
4.9960863e-05
5.0229347e-05
5.0496001e-05
5.0760405e-05
5.1022107e-05
5.1280616e-05
5.1535408e-05
5.1785923e-05
5.2031567e-05
5.2271715e-05
5.2505714e-05
5.2732879e-05
5.29525e-05
5.3163832e-05
5.3366093e-05
5.3558453e-05
5.3740027e-05
5.3909857e-05
5.4066902e-05
5.4210029e-05
5.4337997e-05
5.4449442e-05
5.4542871e-05
5.4616634e-05
5.4668915e-05
5.4697715e-05
5.4700845e-05
5.4675944e-05
5.4620501e-05
5.45319e-05
5.4407453e-05
5.4244419e-05
5.403996e-05
5.3791034e-05
5.3494207e-05
5.3145402e-05
5.2739616e-05
5.2270678e-05
5.1731113e-05
5.1112182e-05
5.0404147e-05
4.9596765e-05
4.8679986e-05
4.7644774e-05
4.648396e-05
4.5193011e-05
4.3770623e-05
4.2219079e-05
4.0544337e-05
3.8755854e-05
3.6866186e-05
3.4890513e-05
3.2846029e-05
3.0750533e-05
2.8624525e-05
2.6488627e-05
2.4362017e-05
2.225518e-05
2.0232568e-05
1.8319572e-05
1.656053e-05
1.5059159e-05
1.3990049e-05
1.4229114e-05
1.8657102e-05
3.5182784e-05
8.5477482e-05
0.00020227259
0.00041486807
0.00072212457
0.0010959129
0.0014975923
0.0018986805
0.0022877757
0.0026635585
0.0030259557
0.0033738604
0.0037068059
0.0040257658
0.0043326961
0.004630158
0.0049213253
0.005210013
0.0054995776
0.0057953078
0.0060934187
0.0064092405
0.006860861
4.6104289e-05
4.6357815e-05
4.6622723e-05
4.6891265e-05
4.7161443e-05
4.7432633e-05
4.7704532e-05
4.7976895e-05
4.8249481e-05
4.8522038e-05
4.8794296e-05
4.9065963e-05
4.9336722e-05
4.9606232e-05
4.9874119e-05
5.0139981e-05
5.0403382e-05
5.0663851e-05
5.0920882e-05
5.1173938e-05
5.1422449e-05
5.1665815e-05
5.1903413e-05
5.2134587e-05
5.2358657e-05
5.2574913e-05
5.2782604e-05
5.2980937e-05
5.316906e-05
5.334605e-05
5.3510905e-05
5.3662528e-05
5.3799716e-05
5.3921151e-05
5.4025382e-05
5.4110811e-05
5.4175676e-05
5.4218032e-05
5.4235748e-05
5.4226513e-05
5.4187858e-05
5.4117198e-05
5.4011868e-05
5.3869146e-05
5.3686223e-05
5.3460117e-05
5.3187503e-05
5.2864465e-05
5.2486227e-05
5.2046885e-05
5.1539245e-05
5.0954808e-05
5.0283979e-05
4.9516506e-05
4.8642131e-05
4.7651384e-05
4.6536442e-05
4.5291925e-05
4.3915545e-05
4.2408533e-05
4.0775803e-05
3.902587e-05
3.7170529e-05
3.5224392e-05
3.3204339e-05
3.1128908e-05
2.9017635e-05
2.6890521e-05
2.4767769e-05
2.2667738e-05
2.0610166e-05
1.8613229e-05
1.6686366e-05
1.4854264e-05
1.3171936e-05
1.1639952e-05
1.0367955e-05
9.2851297e-06
9.394864e-06
1.3158403e-05
2.8240956e-05
7.5718184e-05
0.00018603889
0.00038247542
0.00066088282
0.00099482907
0.0013511384
0.00170682
0.0020530418
0.0023891391
0.0027157295
0.0030328602
0.0033412408
0.0036429298
0.0039412032
0.0042389854
0.0045423478
0.0048473426
0.0051708311
0.0056506792
4.5496042e-05
4.5749193e-05
4.6013728e-05
4.6281953e-05
4.6551896e-05
4.6822943e-05
4.7094802e-05
4.7367238e-05
4.7640022e-05
4.7912912e-05
4.8185647e-05
4.8457948e-05
4.872951e-05
4.9000003e-05
4.926907e-05
4.9536321e-05
4.9801336e-05
5.0063663e-05
5.0322815e-05
5.0578278e-05
5.0829506e-05
5.1075928e-05
5.1316945e-05
5.1551936e-05
5.1780252e-05
5.2001214e-05
5.2214105e-05
5.2418163e-05
5.261257e-05
5.2796435e-05
5.2968788e-05
5.3128565e-05
5.3274598e-05
5.3405604e-05
5.3520173e-05
5.3616751e-05
5.3693623e-05
5.3748896e-05
5.3780492e-05
5.3786148e-05
5.376344e-05
5.3709815e-05
5.3622631e-05
5.3499185e-05
5.3336696e-05
5.3132231e-05
5.2882556e-05
5.2583903e-05
5.2231701e-05
5.1820302e-05
5.1342784e-05
5.0790899e-05
5.0155226e-05
4.9425549e-05
4.8591464e-05
4.7643141e-05
4.6572179e-05
4.5372417e-05
4.4040635e-05
4.2577039e-05
4.0985497e-05
3.9273524e-05
3.7452038e-05
3.5534936e-05
3.3538578e-05
3.1481206e-05
2.9382359e-05
2.726232e-05
2.514163e-05
2.304063e-05
2.0978838e-05
1.8974611e-05
1.7044667e-05
1.5203108e-05
1.346449e-05
1.1836528e-05
1.0315353e-05
8.9614641e-06
7.7578914e-06
6.7926172e-06
6.0118906e-06
6.2197868e-06
1.0015718e-05
2.4928697e-05
7.1019361e-05
0.00017531656
0.00035466489
0.0006034557
0.00089881473
0.0012134534
0.0015288882
0.0018380067
0.0021409682
0.0024395711
0.0027355717
0.0030300715
0.0033286529
0.0036265971
0.0039419279
0.0044173284
4.4905917e-05
4.5158754e-05
4.5422975e-05
4.5690937e-05
4.5960688e-05
4.6231627e-05
4.650347e-05
4.6775994e-05
4.7048979e-05
4.7322193e-05
4.7595387e-05
4.7868291e-05
4.8140612e-05
4.8412032e-05
4.8682206e-05
4.8950759e-05
4.9217286e-05
4.9481353e-05
4.9742492e-05
5.0000212e-05
5.0253991e-05
5.0503285e-05
5.0747528e-05
5.0986127e-05
5.1218465e-05
5.1443895e-05
5.1661732e-05
5.1871247e-05
5.2071648e-05
5.2262077e-05
5.2441592e-05
5.2609157e-05
5.2763634e-05
5.2903772e-05
5.3028195e-05
5.3135387e-05
5.3223677e-05
5.3291219e-05
5.3335984e-05
5.3355759e-05
5.3348161e-05
5.3310673e-05
5.3240679e-05
5.3135492e-05
5.2992357e-05
5.2808384e-05
5.2580416e-05
5.2304816e-05
5.19772e-05
5.1592158e-05
5.1143036e-05
5.0621844e-05
5.0019352e-05
4.9325423e-05
4.8529562e-05
4.762165e-05
4.659278e-05
4.5436087e-05
4.4147483e-05
4.2726197e-05
4.1175082e-05
3.9500665e-05
3.7712964e-05
3.5825121e-05
3.385291e-05
3.1814182e-05
2.9728287e-05
2.7615524e-05
2.5496618e-05
2.3392244e-05
2.1322562e-05
1.9306777e-05
1.7362742e-05
1.5506582e-05
1.3751994e-05
1.2110517e-05
1.0588837e-05
9.19579e-06
7.9295173e-06
6.7800318e-06
5.7897089e-06
4.9432657e-06
4.2719771e-06
3.8337435e-06
4.3086144e-06
8.367432e-06
2.3018466e-05
6.5978805e-05
0.00015965842
0.00031687515
0.00053341227
0.0007914391
0.0010694836
0.0013520697
0.0016328901
0.0019112935
0.0021930015
0.002472037
0.0027667578
0.0032089956
4.4334888e-05
4.4587453e-05
4.4851403e-05
4.5119137e-05
4.5388724e-05
4.5659573e-05
4.593141e-05
4.6204022e-05
4.6477198e-05
4.6750716e-05
4.7024337e-05
4.7297801e-05
4.7570825e-05
4.7843104e-05
4.8114303e-05
4.8384061e-05
4.8651989e-05
4.8917668e-05
4.9180653e-05
4.9440472e-05
4.9696631e-05
4.9948614e-05
5.0195883e-05
5.0437878e-05
5.0674014e-05
5.0903673e-05
5.1126203e-05
5.1340901e-05
5.1547005e-05
5.1743682e-05
5.1930016e-05
5.2104997e-05
5.2267511e-05
5.2416336e-05
5.2550126e-05
5.2667399e-05
5.2766522e-05
5.2845694e-05
5.2902931e-05
5.2936068e-05
5.2942765e-05
5.292054e-05
5.2866804e-05
5.2778893e-05
5.265407e-05
5.2489482e-05
5.228204e-05
5.2028222e-05
5.1723812e-05
5.1363624e-05
5.0941261e-05
5.0448988e-05
4.9877788e-05
4.9217632e-05
4.8457986e-05
4.7588502e-05
4.659984e-05
4.54845e-05
4.4237594e-05
4.2857427e-05
4.1345873e-05
3.9708491e-05
3.7954399e-05
3.6095966e-05
3.4148351e-05
3.2128975e-05
3.0056948e-05
2.7952518e-05
2.5836532e-05
2.3729934e-05
2.1653293e-05
1.9626345e-05
1.7667554e-05
1.5793711e-05
1.4019508e-05
1.235721e-05
1.0816453e-05
9.4036634e-06
8.1225273e-06
6.9715013e-06
5.9515137e-06
5.0514867e-06
4.2656031e-06
3.6088873e-06
3.0730805e-06
2.6672642e-06
2.4929004e-06
3.2198967e-06
7.2372094e-06
2.0357323e-05
5.6339436e-05
0.00013329683
0.00026263403
0.00044440966
0.00066599877
0.00091056201
0.0011678531
0.0014214609
0.0016879188
0.0020749008
4.378345e-05
4.403577e-05
4.4299474e-05
4.4567002e-05
4.4836438e-05
4.5107203e-05
4.5379032e-05
4.5651721e-05
4.5925068e-05
4.619886e-05
4.6472867e-05
4.674684e-05
4.7020505e-05
4.7293566e-05
4.7565702e-05
4.7836563e-05
4.8105776e-05
4.8372939e-05
4.8637625e-05
4.8899389e-05
4.915776e-05
4.9412253e-05
4.9662358e-05
4.9907547e-05
5.0147265e-05
5.0380925e-05
5.0607903e-05
5.0827523e-05
5.1039047e-05
5.1241666e-05
5.1434485e-05
5.1616517e-05
5.1786671e-05
5.1943748e-05
5.2086428e-05
5.221326e-05
5.2322647e-05
5.2412827e-05
5.2481861e-05
5.2527629e-05
5.2547834e-05
5.2540031e-05
5.250166e-05
5.2430076e-05
5.2322565e-05
5.2176304e-05
5.1988263e-05
5.1755019e-05
5.1472509e-05
5.1135754e-05
5.0738601e-05
5.0273571e-05
4.9731865e-05
4.9103591e-05
4.8378217e-05
4.7545224e-05
4.65949e-05
4.5519183e-05
4.4312445e-05
4.2972127e-05
4.1499165e-05
3.989817e-05
3.8177371e-05
3.6348351e-05
3.4425631e-05
3.2426165e-05
3.0368786e-05
2.8273645e-05
2.6161666e-05
2.4054033e-05
2.1971682e-05
1.993483e-05
1.796251e-05
1.6072122e-05
1.4279021e-05
1.2596143e-05
1.1033725e-05
9.5990437e-06
8.2963538e-06
7.1269067e-06
6.0889095e-06
5.1777317e-06
4.3858355e-06
3.706155e-06
3.1209482e-06
2.6340723e-06
2.2374431e-06
1.9326116e-06
1.7041784e-06
1.7226646e-06
2.5318486e-06
5.9145635e-06
1.603908e-05
4.1637034e-05
9.7364008e-05
0.00019294699
0.00033489602
0.00050624386
0.00071844217
0.0010268454
4.3251743e-05
4.350383e-05
4.3767302e-05
4.4034633e-05
4.4303921e-05
4.4574599e-05
4.4846408e-05
4.5119154e-05
4.5392644e-05
4.5666674e-05
4.5941022e-05
4.6215446e-05
4.6489684e-05
4.6763449e-05
4.703643e-05
4.7308291e-05
4.7578673e-05
4.7847192e-05
4.8113442e-05
4.8377001e-05
4.8637427e-05
4.8894261e-05
4.9147026e-05
4.9395223e-05
4.9638326e-05
4.9875778e-05
5.0106979e-05
5.0331276e-05
5.0547955e-05
5.0756226e-05
5.0955214e-05
5.114395e-05
5.1321362e-05
5.1486272e-05
5.1637384e-05
5.1773275e-05
5.1892379e-05
5.1992973e-05
5.2073157e-05
5.2130857e-05
5.2163817e-05
5.2169632e-05
5.2145769e-05
5.2089608e-05
5.1998454e-05
5.1869513e-05
5.1699804e-05
5.1485992e-05
5.1224152e-05
5.0909494e-05
5.0536096e-05
5.0096726e-05
4.9582813e-05
4.8984621e-05
4.8291652e-05
4.7493264e-05
4.6579438e-05
4.5541612e-05
4.4373481e-05
4.3071679e-05
4.1636247e-05
4.007088e-05
3.8382928e-05
3.6583184e-05
3.4685513e-05
3.2706376e-05
3.0664287e-05
2.8579261e-05
2.6472259e-05
2.4364658e-05
2.227773e-05
2.023214e-05
1.824746e-05
1.6341692e-05
1.4530827e-05
1.282845e-05
1.1245414e-05
9.7896009e-06
8.4657977e-06
7.2757209e-06
6.2180917e-06
5.2889518e-06
4.4819715e-06
3.7888397e-06
3.1992851e-06
2.7027059e-06
2.2884039e-06
1.9388934e-06
1.6609173e-06
1.439503e-06
1.2737494e-06
1.1838193e-06
1.2789632e-06
1.9518746e-06
4.3678752e-06
1.0843152e-05
2.6088128e-05
5.4922214e-05
0.00011643107
0.00022823343
4.2739649e-05
4.2991508e-05
4.3254753e-05
4.3521886e-05
4.3791021e-05
4.40616e-05
4.4333373e-05
4.4606151e-05
4.4879752e-05
4.5153978e-05
4.5428616e-05
4.5703432e-05
4.5978173e-05
4.6252561e-05
4.6526297e-05
4.6799056e-05
4.7070495e-05
4.7340248e-05
4.7607932e-05
4.787315e-05
4.8135486e-05
4.8394511e-05
4.8649778e-05
4.8900817e-05
4.9147131e-05
4.9388187e-05
4.9623407e-05
4.9852162e-05
5.0073753e-05
5.0287408e-05
5.0492269e-05
5.068738e-05
5.087169e-05