/*--------------------------------*- C++ -*----------------------------------*\
  =========                 |
  \\      /  F ield         | OpenFOAM: The Open Source CFD Toolbox
   \\    /   O peration     | Website:  https://openfoam.org
    \\  /    A nd           | Version:  12
     \\/     M anipulation  |
\*---------------------------------------------------------------------------*/
FoamFile
{
    format      ascii;
    class       volScalarField;
    location    "100";
    object      k;
}
// * * * * * * * * * * * * * * * * * * * * * * * * * * * * * * * * * * * * * //

dimensions      [0 2 -2 0 0 0 0];

internalField   nonuniform List<scalar> 
7480
(
0.00062302924
0.0016278114
0.0029703438
0.0043953639
0.0056936902
0.0067448093
0.0075095044
0.0080044208
0.0082756064
0.0083773259
0.008359463
0.0082622456
0.0081155796
0.0079404699
0.0077510953
0.0075568098
0.0073639418
0.0071770375
0.0069993388
0.0068333722
0.0066812899
0.0065450138
0.0064261821
0.0063260188
0.0062451669
0.0061832165
0.0061378431
0.0061055909
0.0060817332
0.0060612267
0.0060399977
0.0060157418
0.0059879285
0.0059573621
0.0059252353
0.0058924501
0.0058593447
0.0058258204
0.0057916526
0.0057567701
0.0057213602
0.0056857707
0.0056503417
0.0056152764
0.0055806308
0.0055463949
0.0055125652
0.005479159
0.0054461929
0.0054136694
0.0053815786
0.0053499065
0.0053186416
0.005287776
0.0052573017
0.0052272065
0.0051974746
0.0051680933
0.0051390573
0.0051103519
0.0050819577
0.0050538588
0.0050260419
0.0049984916
0.0049711914
0.0049441263
0.0049172788
0.0048906241
0.0048641336
0.0048377731
0.0048114988
0.0047852572
0.0047589863
0.0047326107
0.0047060396
0.0046791682
0.0046518749
0.0046240191
0.0045954449
0.0045659802
0.0045354365
0.0045036159
0.0044703177
0.0044353466
0.004398519
0.0043596642
0.0043186235
0.0042752436
0.0042293624
0.0041807866
0.0041292707
0.0040745031
0.0040161066
0.0039536195
0.0038865903
0.0038142267
0.0037370456
0.0036500526
0.0035701787
0.0034079124
0.00013502029
0.00015345142
0.00019428047
0.00026461284
0.00036970873
0.00050067526
0.00064314134
0.00078459003
0.00091631202
0.0010338484
0.0011368581
0.0012282315
0.0013128756
0.00139731
0.0014900243
0.0016013233
0.0017488192
0.0019386684
0.0021503707
0.0023837699
0.0026421332
0.0029273278
0.0032377752
0.0035694509
0.0039132508
0.0042539594
0.0045729875
0.0048516939
0.005074843
0.0052367796
0.0053424399
0.0054040972
0.0054366619
0.0054531351
0.005461918
0.0054663823
0.0054666396
0.00546192
0.0054521772
0.0054385558
0.0054228433
0.0054065793
0.0053905747
0.0053748739
0.0053591916
0.0053433232
0.0053272569
0.0053110566
0.005294731
0.0052782196
0.0052614606
0.0052444402
0.0052271774
0.0052096831
0.0051919491
0.0051739681
0.0051557489
0.0051373078
0.0051186322
0.0050997515
0.0050806703
0.0050613905
0.0050419175
0.005022258
0.0050024188
0.0049824046
0.0049622122
0.0049418299
0.0049212353
0.0049003949
0.0048792655
0.0048577918
0.0048359045
0.0048135177
0.0047905283
0.0047668141
0.0047422343
0.004716631
0.0046898317
0.0046616505
0.0046318936
0.0046003676
0.0045668962
0.0045313343
0.0044935643
0.0044534835
0.0044110038
0.0043660185
0.0043183746
0.0042678367
0.004214066
0.0041566296
0.0040950174
0.0040286732
0.0039569755
0.0038794434
0.0037956284
0.003703788
0.0036152356
0.0034459688
0.00012911184
0.00012951419
0.00013046865
0.00013179985
0.00013343712
0.00013532166
0.00013737881
0.00013954207
0.0001417571
0.00014398164
0.00014620519
0.00014847472
0.00015090756
0.00015370808
0.0001572302
0.00016194957
0.00016896803
0.00017882212
0.00019659487
0.00022484623
0.00026582741
0.00032229287
0.00039807776
0.0004977447
0.00062872998
0.00080236107
0.0010435005
0.001335249
0.0016669132
0.0020263153
0.0023970447
0.0027597043
0.0030939835
0.0033831916
0.0036181556
0.0037991519
0.0039340399
0.0040348508
0.0041136381
0.0041794944
0.0042373286
0.0042886685
0.0043334601
0.0043716789
0.0044040197
0.0044316785
0.0044557814
0.0044770117
0.0044956359
0.0045117674
0.0045255722
0.0045372875
0.0045471349
0.0045552676
0.0045617926
0.004566814
0.0045704389
0.0045727606
0.004573848
0.0045737434
0.0045725211
0.0045702574
0.0045670143
0.0045628446
0.004557797
0.0045519154
0.0045452337
0.0045377725
0.0045295369
0.0045205171
0.0045106904
0.0045000209
0.0044884568
0.0044759283
0.0044623479
0.00444761
0.0044315915
0.004414155
0.0043951515
0.004374423
0.004351806
0.0043271407
0.0043002894
0.0042711516
0.0042396595
0.0042057581
0.0041693766
0.0041304181
0.0040887249
0.0040440398
0.0039959911
0.0039441174
0.003887895
0.0038267877
0.0037601665
0.0036877381
0.0036087517
0.0035227653
0.0034391614
0.0032791988
0.00012901923
0.00012871772
0.00012845694
0.00012823057
0.00012802291
0.00012781286
0.00012757707
0.00012729445
0.00012694591
0.00012651487
0.00012598984
0.0001253595
0.0001246206
0.00012377384
0.00012282454
0.00012178113
0.00012066811
0.00011949871
0.00011834659
0.00011732058
0.00011655765
0.00011623691
0.0001166516
0.00011817797
0.00012143135
0.00012733602
0.00013829708
0.000156446
0.00018974751
0.00024495003
0.00032828233
0.00044665564
0.00060888201
0.00083534318
0.0011080508
0.0014104396
0.0017262899
0.0020375912
0.002326501
0.0025796349
0.0027912625
0.0029634737
0.0031038081
0.0032215474
0.0033244295
0.0034169447
0.0035007351
0.0035761034
0.0036433798
0.0037034402
0.0037574409
0.0038063576
0.0038507926
0.0038911077
0.0039276274
0.0039607064
0.0039906734
0.0040177834
0.0040422342
0.0040641972
0.0040838417
0.004101326
0.0041167902
0.0041303604
0.0041421528
0.0041522724
0.004160811
0.004167841
0.0041734128
0.0041775562
0.0041802857
0.0041816001
0.0041814796
0.0041798845
0.0041767573
0.0041720231
0.0041655902
0.0041573535
0.0041471985
0.0041350021
0.0041206352
0.00410397
0.0040848984
0.0040633471
0.0040392717
0.0040126309
0.0039833629
0.0039513708
0.0039164929
0.0038784676
0.0038369218
0.0037914035
0.0037414134
0.0036864597
0.0036259331
0.0035596576
0.0034867142
0.0034073712
0.003329636
0.0031801511
0.0001291496
0.00012879705
0.00012843057
0.00012805946
0.00012768506
0.00012730445
0.00012691155
0.00012650052
0.00012606537
0.00012559963
0.00012509744
0.00012455397
0.00012396228
0.00012331667
0.00012261342
0.00012185002
0.00012102549
0.00012013978
0.0001191967
0.00011820464
0.00011717783
0.00011613521
0.00011508036
0.00011403509
0.00011302374
0.00011207077
0.00011125182
0.00011063417
0.00011043696
0.00011099116
0.00011285497
0.00011678407
0.00012409335
0.00013755916
0.00016211727
0.00020653853
0.00027784338
0.00038283861
0.0005315193
0.00073389647
0.00097313517
0.0012345509
0.0015022621
0.0017599708
0.0019947027
0.0021998747
0.0023755231
0.0025264338
0.0026589654
0.0027782358
0.0028869984
0.0029862428
0.0030764266
0.003158292
0.0032328938
0.0033012295
0.0033639957
0.0034216513
0.0034745908
0.0035232088
0.0035678658
0.0036088622
0.0036464566
0.0036808868
0.0037123708
0.0037411057
0.0037672677
0.003791006
0.0038124377
0.0038316531
0.0038487234
0.0038637
0.0038766115
0.0038874639
0.0038962443
0.0039029222
0.00390745
0.0039097667
0.0039098003
0.0039074694
0.0039026818
0.00389534
0.0038853579
0.0038726767
0.0038572602
0.0038390691
0.0038180408
0.0037940783
0.0037670275
0.0037366453
0.0037025886
0.0036644484
0.0036217805
0.0035741549
0.0035209997
0.0034622069
0.0033967647
0.0033252947
0.0032548323
0.0031173612
0.00012933037
0.00012897728
0.00012860403
0.0001282148
0.00012781208
0.00012739694
0.00012696928
0.000126528
0.0001260714
0.00012559722
0.00012510287
0.00012458569
0.00012404278
0.00012347105
0.00012286752
0.00012222932
0.00012155386
0.00012083879
0.00012008213
0.00011928232
0.00011843854
0.00011755099
0.00011661934
0.00011564119
0.00011462397
0.00011357849
0.00011251432
0.00011144311
0.00011038351
0.00010934172
0.00010835642
0.00010746043
0.00010671516
0.00010622555
0.00010619578
0.00010706643
0.00010946752
0.00011430842
0.0001234619
0.00013980194
0.00017114288
0.00022503592
0.00030851869
0.00043024526
0.00059902165
0.0008016349
0.0010259248
0.0012576993
0.0014828234
0.0016907189
0.0018765967
0.0020410727
0.0021879367
0.0023213137
0.0024438738
0.0025567562
0.0026604748
0.0027556944
0.0028433306
0.0029242449
0.0029990555
0.0030682154
0.0031321498
0.003191275
0.0032459602
0.0032965255
0.0033432611
0.0033864231
0.0034262225
0.0034628343
0.0034964084
0.0035270694
0.0035549121
0.0035800053
0.0036023957
0.0036221107
0.0036391596
0.0036535357
0.0036652183
0.003674173
0.0036803484
0.0036836774
0.0036840925
0.0036815428
0.0036759922
0.003667399
0.0036557001
0.0036408059
0.0036225848
0.0036008352
0.003575272
0.0035455569
0.0035113233
0.0034722175
0.0034277164
0.0033777474
0.0033212471
0.0032589844
0.0031971644
0.0030734959
0.00012955153
0.00012920089
0.00012883067
0.00012844398
0.00012804221
0.0001276259
0.00012719504
0.00012674932
0.00012628823
0.00012581104
0.00012531679
0.00012480432
0.00012427228
0.00012371915
0.00012314326
0.00012254282
0.00012191595
0.00012126079
0.00012057542
0.000119858
0.00011910672
0.00011831992
0.00011749611
0.00011663357
0.00011573114
0.00011478871
0.00011380681
0.00011278649
0.00011172962
0.00011063735
0.00010950741
0.00010835845
0.00010720246
0.00010605859
0.00010492666
0.00010383757
0.00010283736
0.00010197818
0.0001013728
0.00010117015
0.00010177169
0.0001038333
0.00010829266
0.00011699342
0.00013275511
0.00016335745
0.00021605362
0.00029751579
0.00041942694
0.0005781346
0.00076442141
0.00096680284
0.0011721771
0.0013692019
0.0015511474
0.0017163725
0.0018667957
0.0020052826
0.00213378
0.0022530671
0.0023635212
0.0024657372
0.0025605095
0.002648531
0.0027303038
0.0028062635
0.0028768505
0.0029424659
0.0030034356
0.0030600374
0.0031125229
0.0031611103
0.0032059789
0.0032472756
0.0032851214
0.0033196146
0.0033508329
0.0033788338
0.0034036564
0.0034253201
0.003443819
0.0034591207
0.0034711777
0.003479946
0.0034853893
0.0034874647
0.0034861137
0.0034812636
0.00347282
0.003460642
0.0034445244
0.0034242207
0.0033994599
0.0033699763
0.0033353092
0.0032954023
0.0032491745
0.0031974024
0.0031455367
0.0030375272
0.0001298037
0.00012945685
0.00012909101
0.00012870923
0.00012831255
0.00012790121
0.00012747498
0.00012703347
0.00012657623
0.00012610274
0.00012561239
0.00012510448
0.00012457821
0.0001240327
0.00012346694
0.00012287984
0.0001222702
0.00012163673
0.00012097805
0.00012029273
0.00011957928
0.00011883616
0.00011806182
0.00011725468
0.00011641314
0.00011553568
0.00011462089
0.00011366757
0.00011267468
0.00011164148
0.00011056651
0.00010945008
0.00010829328
0.00010709884
0.00010586818
0.00010460151
0.00010330868
0.00010200779
0.00010071544
9.9435575e-05
9.8199263e-05
9.7059066e-05
9.607713e-05
9.5399166e-05
9.5192559e-05
9.5951939e-05
9.8456931e-05
0.0001039044
0.00011455413
0.000135276
0.00017337282
0.00023579749
0.00033193706
0.0004641143
0.0006251306
0.00080534624
0.00099284658
0.001176639
0.0013497136
0.0015098145
0.0016580223
0.0017962345
0.0019255498
0.0020462717
0.002158674
0.0022633521
0.0023609902
0.0024521101
0.0025371057
0.0026163609
0.0026902516
0.0027590998
0.002823175
0.0028827144
0.0029379242
0.0029889829
0.0030360452
0.0030792417
0.0031186785
0.0031544358
0.0031865609
0.0032150628
0.0032399205
0.0032611027
0.0032785769
0.0032923048
0.0033022394
0.0033083338
0.0033105411
0.003308794
0.0033029822
0.003292966
0.003278584
0.0032596711
0.0032358461
0.0032070636
0.0031722648
0.0031321253
0.0030914383
0.0030009163
0.00013007687
0.0001297343
0.00012937345
0.00012899722
0.00012860646
0.00012820128
0.00012778139
0.00012734636
0.00012689571
0.00012642888
0.00012594528
0.00012544428
0.00012492519
0.00012438727
0.00012382973
0.00012325172
0.00012265234
0.00012203061
0.00012138548
0.00012071584
0.0001200205
0.00011929822
0.00011854768
0.00011776749
0.00011695621
0.00011611234
0.00011523435
0.00011432068
0.00011336978
0.00011238014
0.0001113502
0.00011027848
0.00010916365
0.00010800463
0.00010680061
0.00010555058
0.00010425415
0.00010291245
0.00010152812
0.00010010313
9.8638617e-05
9.7145729e-05
9.5646714e-05
9.4153211e-05
9.2677745e-05
9.1263401e-05
8.9969523e-05
8.8889252e-05
8.8199081e-05
8.823846e-05
8.9685281e-05
9.3595068e-05
0.00010189275
0.00011852028
0.00015048317
0.00020474038
0.00029080122
0.00041037591
0.00055817706
0.00072521641
0.00090000566
0.0010722038
0.0012355607
0.0013884144
0.0015317342
0.0016666691
0.0017935771
0.0019125124
0.0020238033
0.0021279955
0.0022255602
0.0023168499
0.0024022023
0.0024819503
0.0025563819
0.0026257493
0.0026902858
0.0027501985
0.0028056641
0.0028568289
0.0029038
0.0029466371
0.0029853559
0.003019947
0.0030503906
0.0030766606
0.0030987288
0.00311658
0.00313022
0.0031396607
0.0031448942
0.0031458956
0.0031426236
0.0031350258
0.0031228227
0.0031059869
0.0030835346
0.0030559519
0.0030275127
0.0029561708
0.0001303649
0.00013002686
0.00012967115
0.00012930062
0.00012891596
0.00012851718
0.00012810396
0.00012767587
0.0001272324
0.00012677299
0.00012629706
0.00012580396
0.00012529303
0.00012476356
0.0001242148
0.00012364596
0.00012305621
0.00012244469
0.00012181046
0.00012115256
0.00012046995
0.00011976154
0.00011902617
0.00011826261
0.00011746959
0.00011664573
0.0001157896
0.00011489971
0.00011397451
0.00011301241
0.00011201177
0.00011097092
0.00010988816
0.00010876179
0.00010759013
0.00010637151
0.00010510428
0.00010378697
0.00010241845
0.00010099795
9.9524749e-05
9.7998794e-05
9.6422003e-05
9.4796669e-05
9.3124781e-05
9.1406807e-05
8.9660159e-05
8.7908186e-05
8.6152542e-05
8.4421809e-05
8.2781453e-05
8.1304297e-05
8.0144455e-05
7.9602245e-05
8.0329747e-05
8.3379266e-05
9.0672747e-05
0.00010635823
0.0001373855
0.00019104283
0.00027728108
0.00039522842
0.00053969363
0.00070080448
0.00086689742
0.0010289513
0.0011827237
0.001327898
0.0014653567
0.0015954118
0.0017179376
0.0018330576
0.0019411931
0.002042735
0.0021379619
0.0022271567
0.0023106217
0.0023886266
0.0024614067
0.0025291715
0.0025920905
0.00265028
0.0027038022
0.0027526811
0.0027969202
0.0028365139
0.0028714589
0.002901775
0.0029275203
0.0029487837
0.0029656588
0.0029782373
0.0029866024
0.002990825
0.0029907517
0.0029863899
0.0029768964
0.0029624949
0.0029471367
0.0028963874
0.00013066239
0.00013032905
0.00012997856
0.00012961375
0.00012923518
0.00012884279
0.00012843626
0.00012801511
0.00012757886
0.00012712695
0.00012665881
0.00012617379
0.00012567123
0.00012515045
0.0001246107
0.00012405123
0.00012347122
0.00012286983
0.00012224618
0.00012159935
0.00012092835
0.00012023216
0.00011950968
0.00011875977
0.00011798123
0.00011717275
0.000116333
0.00011546055
0.00011455391
0.00011361154
0.00011263182
0.0001116131
0.00011055365
0.00010945171
0.00010830543
0.00010711295
0.00010587235
0.00010458173
0.00010323927
0.00010184326
0.00010039218
9.888461e-05
9.7319365e-05
9.5695379e-05
9.4011582e-05
9.2266256e-05
9.0458298e-05
8.858815e-05
8.6654288e-05
8.4655795e-05
8.259136e-05
8.0490618e-05
7.8368851e-05
7.6241945e-05
7.4167384e-05
7.2237751e-05
7.0584372e-05
6.9546622e-05
6.9803909e-05
7.2549144e-05
7.9931656e-05
9.7405664e-05
0.00013220885
0.00019303051
0.00028714061
0.00041183692
0.00055933281
0.00071785349
0.00087647598
0.0010288757
0.0011736072
0.0013112853
0.0014421751
0.0015660071
0.0016827242
0.001792621
0.0018960149
0.0019931386
0.0020842364
0.0021695651
0.0022493411
0.002323728
0.0023928378
0.0024567355
0.0025154563
0.0025690224
0.00261746
0.0026608234
0.0026992181
0.002732801
0.0027617579
0.00278629
0.0028066031
0.0028228959
0.0028351631
0.0028434696
0.002847186
0.0028462222
0.0028444509
0.0028152491
0.00013096479
0.00013063622
0.00013029096
0.00012993181
0.00012955925
0.00012917317
0.0001287732
0.0001283589
0.00012792976
0.00012748523
0.00012702475
0.00012654769
0.0001260534
0.00012554119
0.00012501035
0.00012446012
0.00012388972
0.00012329832
0.00012268506
0.00012204903
0.00012138928
0.00012070481
0.00011999456
0.00011925741
0.00011849218
0.00011769763
0.00011687244
0.00011601523
0.00011512454
0.00011419886
0.00011323661
0.00011223615
0.0001111958
0.00011011377
0.00010898824
0.00010781731
0.000106599
0.00010533132
0.00010401229
0.00010263998
0.00010121257
9.9728351e-05
9.8185663e-05
9.6582823e-05
9.4917966e-05
9.318883e-05
9.139257e-05
8.9525765e-05
8.7584285e-05
8.5563482e-05
8.3457724e-05
8.1264074e-05
7.8981387e-05
7.6608486e-05
7.4146136e-05
7.1611878e-05
6.9050391e-05
6.6475768e-05
6.3953051e-05
6.1602325e-05
5.953776e-05
5.8191234e-05
5.8358782e-05
6.1610964e-05
7.1080968e-05
9.397418e-05
0.00013851212
0.00021534489
0.00032475929
0.00046092088
0.00061227083
0.00076657468
0.00091617895
0.001058925
0.0011951973
0.0013251434
0.0014483858
0.0015647832
0.001674556
0.0017779471
0.0018751239
0.0019662538
0.0020514861
0.0021309187
0.002204615
0.0022726261
0.0023350079
0.0023918456
0.0024432821
0.0024895278
0.0025308431
0.0025675231
0.0025998838
0.0026282471
0.0026527692
0.0026735934
0.0026903774
0.0027026877
0.0027145901
0.0027072617
0.00013126833
0.00013094452
0.00013060443
0.00013025082
0.00012988414
0.00012950421
0.00012911066
0.00012870303
0.00012828082
0.00012784349
0.00012739047
0.00012692115
0.00012643489
0.00012593103
0.00012540884
0.0001248676
0.00012430652
0.00012372482
0.00012312162
0.00012249606
0.00012184718
0.00012117402
0.00012047552
0.00011975059
0.00011899807
0.00011821673
0.00011740527
0.00011656232
0.00011568646
0.00011477618
0.00011382992
0.00011284605
0.0001118229
0.00011075871
0.00010965166
0.00010849984
0.00010730129
0.00010605397
0.00010475585
0.00010340493
0.00010199927
0.00010053704
9.9016458e-05
9.7435732e-05
9.5792884e-05
9.4085567e-05
9.2310846e-05
9.0465014e-05
8.8543515e-05
8.6540996e-05
8.4451458e-05
8.2268737e-05
7.9987161e-05
7.7601971e-05
7.5109912e-05
7.2509891e-05
6.9806674e-05
6.7006723e-05
6.4121094e-05
6.116314e-05
5.8200277e-05
5.5266383e-05
5.2426857e-05
4.9822391e-05
4.7599084e-05
4.6318583e-05
4.7118572e-05
5.2182819e-05
6.7878092e-05
0.00010263258
0.00016747114
0.00026623929
0.00039427911
0.00053989089
0.00068983044
0.00083573307
0.00097523641
0.0011086592
0.0012360643
0.0013570175
0.001471333
0.0015791485
0.0016805919
0.0017757145
0.0018645755
0.0019472447
0.002023795
0.0020943292
0.002159013
0.0022180896
0.002271869
0.002320715
0.0023650309
0.0024052428
0.0024416668
0.0024745356
0.0025038546
0.002528831
0.0025540138
0.0025681062
0.00013156989
0.00013125079
0.00013091575
0.00013056755
0.00013020656
0.0001298326
0.00012944527
0.0001290441
0.00012862861
0.00012819824
0.00012775245
0.00012729062
0.00012681214
0.00012631632
0.00012580249
0.00012526992
0.00012471784
0.00012414547
0.00012355196
0.00012293645
0.00012229802
0.0001216357
0.00012094846
0.00012023523
0.00011949484
0.0001187261
0.00011792771
0.00011709832
0.00011623651
0.00011534078
0.00011440959
0.00011344131
0.00011243428
0.00011138675
0.0001102969
0.00010916284
0.00010798259
0.00010675411
0.00010547535
0.00010414423
0.00010275876
0.00010131704
9.9817205e-05
9.8257426e-05
9.6635722e-05
9.4949792e-05
9.3196793e-05
9.1373136e-05
8.9474363e-05
8.7495142e-05
8.5429414e-05
8.327071e-05
8.101263e-05
7.8649425e-05
7.6176625e-05
7.3591584e-05
7.0894115e-05
6.8086934e-05
6.5176019e-05
6.2169145e-05
5.9081107e-05
5.5928983e-05
5.2732188e-05
4.9505717e-05
4.6338032e-05
4.3265218e-05
4.0371645e-05
3.77837e-05
3.5807661e-05
3.5316148e-05
3.8146935e-05
4.9490933e-05
7.8400571e-05
0.00013594042
0.00022876467
0.0003519459
0.00049304776
0.00063826834
0.00077940036
0.00091436482
0.0010434799
0.0011667093
0.0012835674
0.0013938106
0.0014974712
0.0015945861
0.0016851769
0.0017693296
0.0018472113
0.001919068
0.0019852249
0.0020460796
0.0021020875
0.0021537444
0.0022015025
0.0022456775
0.002286655
0.0023232717
0.0023608417
0.0023950181
0.000131867
0.0001315525
0.00013122238
0.00013087941
0.00013052392
0.00013015571
0.00012977438
0.00012937945
0.00012897042
0.00012854677
0.00012810794
0.00012765334
0.00012718233
0.00012669428
0.00012618849
0.00012566425
0.00012512082
0.0001245574
0.0001239732
0.00012336733
0.0001227389
0.00012208695
0.00012141048
0.0001207084
0.00011997959
0.00011922285
0.00011843689
0.00011762039
0.00011677191
0.00011588999
0.00011497307
0.00011401955
0.00011302776
0.00011199597
0.00011092235
0.00010980504
0.00010864205
0.00010743133
0.00010617081
0.00010485837
0.00010349198
0.00010206965
0.00010058947
9.9049573e-05
9.744797e-05
9.578242e-05
9.4050188e-05
9.2247844e-05
9.0371102e-05
8.8414777e-05
8.6372881e-05
8.4238887e-05
8.2006162e-05
7.9668513e-05
7.7220805e-05
7.4659588e-05
7.1983639e-05
6.9194425e-05
6.6296422e-05
6.3297134e-05
6.0207116e-05
5.703982e-05
5.3811593e-05
5.0538884e-05
4.7244769e-05
4.3951847e-05
4.0681821e-05
3.7459611e-05
3.4389446e-05
3.14904e-05
2.8879442e-05
2.6725741e-05
2.5663603e-05
2.7328825e-05
3.6433703e-05
6.2619399e-05
0.00011724847
0.00020760024
0.00032780397
0.00046451851
0.00060408513
0.00073912377
0.00086802429
0.00099107662
0.0011081396
0.0012187136
0.0013225694
0.0014197578
0.0015103981
0.0015946698
0.0016728623
0.0017453644
0.0018126353
0.0018751875
0.0019335613
0.0019881217
0.0020396265
0.0020865334
0.0021351298
0.0021871371
0.00013215774
0.00013184772
0.00013152235
0.00013118441
0.00013083421
0.00013047153
0.00013009595
0.00012970701
0.00012930421
0.00012888701
0.00012845487
0.0001280072
0.00012754338
0.00012706277
0.0001265647
0.00012604847
0.00012551332
0.00012495851
0.00012438321
0.00012378658
0.00012316772
0.00012252569
0.00012185949
0.00012116806
0.00012045028
0.00011970496
0.00011893083
0.00011812656
0.00011729075
0.00011642192
0.00011551854
0.000114579
0.00011360165
0.00011258475
0.00011152651
0.00011042505
0.0001092784
0.00010808451
0.00010684129
0.0001055466
0.00010419834
0.00010279449
0.00010133306
9.9812149e-05
9.8229759e-05
9.6583687e-05
9.4871298e-05
9.3089309e-05
9.1233612e-05
8.9299191e-05
8.7280174e-05
8.5170045e-05
8.2962029e-05
8.0649606e-05
7.8227123e-05
7.5690416e-05
7.3037406e-05
7.0268599e-05
6.7387434e-05
6.440048e-05
6.131745e-05
5.8151061e-05
5.4916827e-05
5.163258e-05
4.8318068e-05
4.4994326e-05
4.1683691e-05
3.8407032e-05
3.5189904e-05
3.2055597e-05
2.9002471e-05
2.6126361e-05
2.3460109e-05
2.1068461e-05
1.9078664e-05
1.7959901e-05
1.9263044e-05
2.7754807e-05
5.3599705e-05
0.00010829635
0.00019796477
0.00031538406
0.00044668937
0.0005790919
0.00070633506
0.00082724756
0.00094213633
0.001050907
0.0011532103
0.0012489844
0.0013384545
0.0014219466
0.0014998424
0.0015725959
0.0016407637
0.001704696
0.0017654612
0.0018211187
0.0018790318
0.0019457869
0.0001324407
0.00013213499
0.00013181421
0.00013148109
0.00013113597
0.00013077859
0.00013040852
0.00013002532
0.00012962847
0.00012921746
0.00012879173
0.0001283507
0.00012789377
0.00012742031
0.00012692963
0.00012642106
0.00012589387
0.00012534729
0.00012478052
0.00012419273
0.00012358302
0.00012295047
0.00012229409
0.00012161282
0.00012090556
0.00012017111
0.00011940823
0.0001186156
0.00011779181
0.00011693541
0.00011604487
0.00011511858
0.00011415491
0.00011315214
0.00011210847
0.00011102203
0.00010989087
0.00010871295
0.00010748616
0.00010620835
0.00010487738
0.00010349116
0.00010204767
0.00010054494
9.8980963e-05
9.7353566e-05
9.5660191e-05
9.3897687e-05
9.2062115e-05
9.0148633e-05
8.8151506e-05
8.6064268e-05
8.3880058e-05
8.1592105e-05
7.9194307e-05
7.6681868e-05
7.4051907e-05
7.1304005e-05
6.8440609e-05
6.5467291e-05
6.2392844e-05
5.9229212e-05
5.5991282e-05
5.2696566e-05
4.9364775e-05
4.601733e-05
4.2676872e-05
3.9366756e-05
3.6110091e-05
3.2929997e-05
2.9846241e-05
2.6880718e-05
2.4053814e-05
2.136555e-05
1.8865511e-05
1.6604807e-05
1.4615532e-05
1.2992726e-05
1.2135956e-05
1.3634293e-05
2.2678709e-05
4.9613352e-05
0.00010558086
0.0001942501
0.00030729756
0.00043115637
0.00055447026
0.00067209904
0.00078324662
0.0008883903
0.00098767797
0.0010810211
0.0011685363
0.0012505591
0.0013275845
0.0013998416
0.001468586
0.0015314318
0.0015967966
0.0016746107
0.0001327149
0.00013241335
0.00013209696
0.00013176847
0.0001314282
0.00013107587
0.00013071108
0.00013033336
0.00012994221
0.00012953711
0.00012911752
0.00012868285
0.00012823251
0.00012776588
0.00012728229
0.00012678106
0.00012626147
0.00012572277
0.00012516417
0.00012458483
0.00012398389
0.0001233604
0.0001227134
0.00012204183
0.00012134459
0.0001206205
0.00011986833
0.00011908676
0.0001182744
0.0001174298
0.00011655144
0.00011563774
0.00011468705
0.00011369766
0.00011266781
0.00011159563
0.00011047917
0.00010931642
0.00010810524
0.0001068435
0.000105529
0.00010415963
0.0001027333
0.000101248
9.9701696e-05
9.8092228e-05
9.6417101e-05
9.467328e-05
9.2856984e-05
9.0963542e-05
8.8987368e-05
8.6922074e-05
8.4760763e-05
8.2496469e-05
8.0122715e-05
7.7634139e-05
7.5027126e-05
7.2300378e-05
6.9455383e-05
6.6496723e-05
6.343224e-05
6.0273034e-05
5.7033299e-05
5.3730047e-05
5.0382729e-05
4.7012771e-05
4.3643056e-05
4.0297412e-05
3.6999996e-05
3.377473e-05
3.0644798e-05
2.7631785e-05
2.4755482e-05
2.203204e-05
1.9475415e-05
1.7099586e-05
1.4896139e-05
1.2899295e-05
1.1142838e-05
9.648598e-06
8.4723128e-06
8.0463154e-06
1.0085112e-05
2.0218773e-05
4.8341068e-05
0.0001044401
0.00018961658
0.00029533213
0.00040942808
0.00052220852
0.00062931537
0.00073012928
0.0008252967
0.00091517935
0.00099993012
0.0010794126
0.0011549019
0.0012234993
0.0012945391
0.0013794954
0.0001329797
0.00013268215
0.00013236997
0.00013204591
0.00013171027
0.00013136278
0.00013100303
0.00013063054
0.00013024483
0.00012984538
0.00012943164
0.00012900305
0.00012855902
0.00012809892
0.00012762211
0.0001271279
0.00012661559
0.00012608443
0.00012553364
0.00012496239
0.00012436982
0.00012375499
0.00012311694
0.00012245463
0.00012176695
0.00012105275
0.00012031077
0.00011953973
0.00011873823
0.00011790485
0.00011703806
0.0001161363
0.00011519793
0.00011422125
0.00011320451
0.00011214586
0.00011104338
0.00010989503
0.00010869871
0.00010745226
0.00010615348
0.00010480019
0.00010339028
0.00010192169
0.00010039235
9.8800097e-05
9.7142492e-05
9.54166e-05
9.361878e-05
9.1744531e-05
8.9788418e-05
8.7744157e-05
8.5604851e-05
8.3363391e-05
8.1012989e-05
7.8547787e-05
7.5963497e-05
7.3258004e-05
7.0431869e-05
6.7488708e-05
6.443541e-05
6.1282199e-05
5.8042534e-05
5.473287e-05
5.137231e-05
4.7982167e-05
4.4585451e-05
4.1206316e-05
3.7869486e-05
3.459964e-05
3.1420836e-05
2.8355906e-05
2.5425864e-05
2.2649449e-05
2.0042434e-05
1.7617387e-05
1.5382176e-05
1.3341289e-05
1.1499306e-05
9.8321028e-06
8.3808659e-06
7.1337004e-06
6.1644344e-06
5.2455777e-06
5.4123432e-06
8.0901654e-06
1.8870049e-05
4.6536963e-05
9.927125e-05
0.00017717029
0.00027252282
0.00037537135
0.00047738467
0.00057428056
0.00066522327
0.00075035253
0.00083123956
0.000904361
0.00097964599
0.0010681186
0.00013323479
0.00013294106
0.00013263292
0.00013231309
0.00013198187
0.00013163899
0.00013128404
0.00013091656
0.00013053604
0.00013014198
0.00012973384
0.00012931106
0.00012887305
0.00012841919
0.00012794885
0.00012746136
0.00012695601
0.00012643206
0.00012588874
0.00012532522
0.00012474065
0.0001241341
0.00012350461
0.00012285113
0.00012217257
0.00012146777
0.00012073551
0.00011997447
0.00011918331
0.00011836058
0.00011750479
0.00011661437
0.0001156877
0.0001147231
0.00011371881
0.00011267302
0.0001115838
0.00011044915
0.00010926697
0.00010803508
0.00010675128
0.00010541336
0.00010401916
0.00010256657
0.0001010535
9.9477783e-05
9.7837005e-05
9.6128317e-05
9.4348213e-05
9.2492346e-05
9.0555441e-05
8.8531329e-05
8.6413144e-05
8.4193684e-05
8.1865904e-05
7.9423514e-05
7.6861621e-05
7.4177344e-05
7.1370369e-05
6.8443368e-05
6.5402284e-05
6.2256455e-05
5.9018566e-05
5.5704466e-05
5.2332856e-05
4.8924866e-05
4.5503558e-05
4.2093367e-05
3.8719497e-05
3.5407299e-05
3.2181634e-05
2.9066255e-05
2.608319e-05
2.3252189e-05
2.0590214e-05
1.8110961e-05
1.5824632e-05
1.3737427e-05
1.1851842e-05
1.0164751e-05
8.6713864e-06
7.3646597e-06
6.2104517e-06
5.2498604e-06
4.4600743e-06
3.8459238e-06
3.4886972e-06
3.8967864e-06
6.8108808e-06
1.677297e-05
4.1126169e-05
8.6259779e-05
0.00015300081
0.00023536773
0.0003256439
0.00041599053
0.00050294531
0.00058060465
0.00065938481
0.00074855444
0.00013348004
0.00013318999
0.00013288571
0.00013256991
0.00013224291
0.00013190444
0.00013155407
0.00013119135
0.00013081579
0.00013042688
0.00013002408
0.00012960684
0.00012917458
0.00012872669
0.00012826254
0.00012778147
0.00012728277
0.00012676571
0.00012622953
0.00012567341
0.00012509649
0.00012449784
0.0001238765
0.00012323145
0.00012256158
0.00012186574
0.00012114272
0.00012039121
0.00011960987
0.00011879726
0.00011795191
0.00011707226
0.00011615671
0.00011520358
0.00011421112
0.00011317754
0.00011210094
0.00011097931
0.00010981057
0.00010859255
0.00010732303
0.00010599978
0.00010462061
0.00010318335
0.00010168588
0.00010012602
9.8501392e-05
9.6809212e-05
9.5046088e-05
9.3207824e-05
9.1289301e-05
8.9284476e-05
8.718654e-05
8.4988235e-05
8.2682313e-05
8.0262113e-05
7.7722195e-05
7.5058977e-05
7.2271312e-05
6.9360963e-05
6.6332944e-05
6.3195695e-05
5.9961108e-05
5.6644383e-05
5.3263761e-05
4.9840134e-05
4.6396549e-05
4.2957658e-05
3.9549095e-05
3.6196831e-05
3.2926502e-05
2.9762752e-05
2.6728579e-05
2.3844728e-05
2.1129145e-05
1.8596501e-05
1.6257839e-05
1.4120331e-05
1.2187121e-05
1.0457546e-05
8.9268317e-06
7.5873276e-06
6.4252889e-06
5.43153e-06
4.5845376e-06
3.8691894e-06
3.2924378e-06
2.8390069e-06
2.5077037e-06
2.4023565e-06
2.9715654e-06
5.5548625e-06
1.3092118e-05
3.1470967e-05
6.538341e-05
0.00011627642
0.0001820049
0.00025148961
0.00033046957
0.000419265
0.00013371551
0.00013342896
0.00013312838
0.00013281644
0.00013249347
0.00013215919
0.0001318132
0.00013145503
0.0001310842
0.0001307002
0.0001303025
0.00012989056
0.00012946379
0.00012902161
0.00012856337
0.00012808843
0.00012759609
0.00012708563
0.00012655627
0.00012600721
0.00012543758
0.00012484648
0.00012423292
0.00012359589
0.0001229343
0.00012224699
0.00012153275
0.0001207903
0.00012001828
0.00011921529
0.00011837986
0.00011751044
0.00011660544
0.00011566319
0.00011468198
0.00011366
0.00011259538
0.00011148613
0.00011033018
0.00010912537
0.00010786946
0.00010656021
0.00010519538
0.00010377278
0.00010229026
0.00010074562
9.9136477e-05
9.7460125e-05
9.571327e-05
9.3891853e-05
9.1990908e-05
9.0004526e-05
8.7925975e-05
8.5747975e-05
8.3463119e-05
8.1064433e-05
7.854599e-05
7.5903562e-05
7.3135224e-05
7.0241866e-05
6.722759e-05
6.4099947e-05
6.0870012e-05
5.7552305e-05
5.4164563e-05
5.0727377e-05
4.7263723e-05