/*--------------------------------*- C++ -*----------------------------------*\
  =========                 |
  \\      /  F ield         | OpenFOAM: The Open Source CFD Toolbox
   \\    /   O peration     | Website:  https://openfoam.org
    \\  /    A nd           | Version:  12
     \\/     M anipulation  |
\*---------------------------------------------------------------------------*/
FoamFile
{
    format      ascii;
    class       volScalarField;
    location    "100";
    object      k;
}
// * * * * * * * * * * * * * * * * * * * * * * * * * * * * * * * * * * * * * //

dimensions      [0 2 -2 0 0 0 0];

internalField   nonuniform List<scalar> 
13056
(
0.00014002483
0.0001396033
0.00013960501
0.00013961226
0.00013961522
0.00013961741
0.0001396197
0.00013962227
0.00013962515
0.00013962834
0.00013963189
0.00013963578
0.00013964004
0.00013964465
0.00013964959
0.00013965484
0.00013966032
0.00013966595
0.00013967164
0.00013967728
0.00013968294
0.00013968981
0.00013967467
0.00014116207
3.1223139e-05
2.6972711e-05
2.2021062e-05
1.9521991e-05
1.8154288e-05
1.740715e-05
1.6968051e-05
1.6685468e-05
1.6493581e-05
1.6358827e-05
1.6261204e-05
1.6188323e-05
1.6132415e-05
1.6088413e-05
1.6052883e-05
1.6023443e-05
1.5998426e-05
1.5976646e-05
1.5957245e-05
1.5939594e-05
1.5923227e-05
1.5907796e-05
1.589304e-05
1.5878762e-05
1.5864811e-05
1.5851074e-05
1.5837462e-05
1.582391e-05
1.5810366e-05
1.5796792e-05
1.578316e-05
1.5769447e-05
1.5755639e-05
1.5741724e-05
1.5727696e-05
1.5713549e-05
1.5699282e-05
1.5684895e-05
1.5670389e-05
1.5655766e-05
1.5641031e-05
1.5626187e-05
1.561124e-05
1.5596195e-05
1.5581058e-05
1.5565835e-05
1.5550533e-05
1.5535159e-05
1.551972e-05
1.5504223e-05
1.5488675e-05
1.5473086e-05
1.5457461e-05
1.5441809e-05
1.5426138e-05
1.5410456e-05
1.5394771e-05
1.5379091e-05
1.5363425e-05
1.534778e-05
1.5332167e-05
1.5316592e-05
1.5301064e-05
1.5285593e-05
1.5270186e-05
1.5254853e-05
1.5239602e-05
1.5224443e-05
1.5209383e-05
1.5194433e-05
1.5179601e-05
1.5164895e-05
1.5150326e-05
1.5135902e-05
1.5121633e-05
1.5107527e-05
1.5093593e-05
1.5079842e-05
1.5066282e-05
1.5052922e-05
1.5039773e-05
1.5026842e-05
1.5014139e-05
1.5001675e-05
1.4989457e-05
1.4977497e-05
1.49658e-05
1.4954405e-05
1.4943008e-05
1.4935495e-05
1.4932431e-05
1.4931217e-05
1.4930577e-05
1.4930167e-05
1.4929883e-05
1.4929679e-05
1.492953e-05
1.4929416e-05
1.4929331e-05
1.4929264e-05
1.4929212e-05
1.492917e-05
1.4929137e-05
1.4929111e-05
1.4929089e-05
1.4929072e-05
1.4929057e-05
1.4929045e-05
1.4929036e-05
1.4929027e-05
1.4929022e-05
1.4929011e-05
0.00013997992
0.00013954687
0.0001395478
0.00013955521
0.00013955825
0.00013956047
0.0001395628
0.00013956541
0.00013956834
0.00013957159
0.00013957519
0.00013957915
0.00013958348
0.00013958817
0.0001395932
0.00013959854
0.00013960411
0.00013960984
0.00013961563
0.00013962138
0.00013962715
0.0001396342
0.00013961861
0.00014109204
0.00035422923
0.00030799335
0.00025139192
0.00022254162
0.0002065368
0.00019770001
0.00019247154
0.00018909232
0.0001867893
0.00018516644
0.00018398737
0.00018310534
0.00018242791
0.00018189459
0.00018146424
0.00018110824
0.00018080651
0.00018054469
0.00018031236
0.00018010187
0.00017990751
0.00017972503
0.00017955121
0.0001793836
0.00017922036
0.00017906004
0.00017890156
0.00017874407
0.00017858694
0.00017842967
0.00017827188
0.0001781133
0.00017795373
0.00017779301
0.00017763103
0.00017746774
0.0001773031
0.00017713709
0.00017696972
0.00017680101
0.000176631
0.00017645973
0.00017628725
0.00017611363
0.00017593892
0.0001757632
0.00017558655
0.00017540903
0.00017523073
0.00017505174
0.00017487213
0.000174692
0.00017451143
0.00017433051
0.00017414934
0.000173968
0.00017378659
0.00017360521
0.00017342394
0.0001732429
0.00017306217
0.00017288185
0.00017270205
0.00017252286
0.00017234438
0.00017216672
0.00017198997
0.00017181424
0.00017163964
0.00017146626
0.00017129421
0.0001711236
0.00017095454
0.00017078712
0.00017062146
0.00017045766
0.00017029583
0.00017013608
0.00016997852
0.00016982324
0.00016967038
0.00016952003
0.0001693723
0.0001692273
0.00016908515
0.00016894595
0.00016880979
0.00016867713
0.0001685444
0.00016845601
0.00016841907
0.00016840406
0.00016839606
0.00016839091
0.00016838734
0.00016838477
0.00016838288
0.00016838144
0.00016838036
0.00016837951
0.00016837884
0.00016837831
0.00016837789
0.00016837755
0.00016837727
0.00016837704
0.00016837686
0.0001683767
0.00016837658
0.00016837647
0.0001683764
0.00016837626
0.00013976042
0.00013928902
0.0001392875
0.00013929539
0.00013929866
0.00013930102
0.00013930347
0.00013930621
0.00013930929
0.00013931272
0.00013931652
0.0001393207
0.00013932526
0.0001393302
0.0001393355
0.00013934112
0.000139347
0.00013935305
0.00013935916
0.00013936524
0.00013937137
0.00013937897
0.00013936235
0.0001408302
0.00082223653
0.00072093204
0.00058973334
0.00052223106
0.00048430599
0.00046314776
0.00045054377
0.00044236136
0.00043676428
0.00043280683
0.00042992331
0.00042776156
0.00042609886
0.00042478898
0.00042373213
0.00042285878
0.00042211988
0.00042148032
0.00042091452
0.00042040363
0.00041993357
0.00041949379
0.00041907629
0.00041867499
0.0004182852
0.00041790336
0.0004175267
0.00041715307
0.00041678085
0.00041640877
0.00041603586
0.0004156614
0.00041528482
0.00041490573
0.00041452385
0.00041413898
0.00041375101
0.00041335988
0.00041296558
0.00041256815
0.00041216764
0.00041176416
0.00041135781
0.00041094872
0.00041053705
0.00041012294
0.00040970656
0.0004092881
0.00040886773
0.00040844566
0.00040802207
0.00040759717
0.00040717116
0.00040674426
0.00040631668
0.00040588862
0.00040546032
0.000405032
0.00040460388
0.00040417619
0.00040374917
0.00040332303
0.00040289802
0.00040247437
0.00040205232
0.00040163211
0.00040121399
0.00040079819
0.00040038496
0.00039997456
0.00039956721
0.00039916319
0.00039876273
0.0003983661
0.00039797354
0.00039758531
0.00039720167
0.00039682287
0.00039644918
0.00039608084
0.00039571814
0.00039536131
0.00039501064
0.00039466637
0.00039432878
0.00039399814
0.00039367464
0.0003933594
0.00039304392
0.00039283194
0.00039274148
0.00039270389
0.00039268364
0.00039267058
0.00039266148
0.00039265492
0.00039265008
0.00039264639
0.00039264359
0.0003926414
0.00039263968
0.00039263831
0.00039263721
0.00039263632
0.0003926356
0.00039263501
0.00039263452
0.00039263412
0.00039263378
0.0003926335
0.0003926333
0.00039263294
0.00013936131
0.0001388218
0.00013881573
0.00013882443
0.00013882811
0.00013883068
0.00013883333
0.00013883631
0.00013883966
0.00013884339
0.00013884752
0.00013885207
0.00013885703
0.00013886241
0.00013886818
0.0001388743
0.0001388807
0.00013888729
0.00013889397
0.00013890062
0.00013890735
0.0001389159
0.0001388978
0.00014037135
0.001354855
0.0012200105
0.001004384
0.00089136486
0.0008266715
0.00079002587
0.00076797455
0.00075356219
0.00074364869
0.00073660427
0.00073144999
0.00072757349
0.00072458531
0.00072222839
0.0007203266
0.00071875671
0.00071743138
0.00071628782
0.00071528012
0.00071437425
0.00071354472
0.00071277235
0.0007120425
0.00071134401
0.00071066825
0.00071000858
0.00070935985
0.00070871804
0.00070808006
0.00070744349
0.00070680647
0.00070616758
0.00070552573
0.0007048801
0.00070423011
0.00070357533
0.0007029155
0.00070225043
0.00070158008
0.00070090444
0.00070022359
0.00069953763
0.00069884674
0.00069815112
0.00069745098
0.00069674657
0.00069603817
0.00069532607
0.00069461056
0.00069389196
0.00069317061
0.00069244682
0.00069172096
0.00069099336
0.00069026441
0.00068953444
0.00068880384
0.00068807298
0.00068734225
0.00068661202
0.00068588272
0.0006851547
0.00068442839
0.00068370417
0.00068298247
0.00068226369
0.00068154824
0.00068083654
0.00068012902
0.0006794261
0.0006787282
0.00067803576
0.00067734921
0.00067666899
0.00067599554
0.00067532929
0.0006746707
0.0006740202
0.00067337826
0.0006727453
0.00067212183
0.00067150823
0.00067090501
0.00067031262
0.00066973152
0.00066916219
0.00066860496
0.0006680618
0.00066751804
0.0006671481
0.00066698559
0.00066691599
0.00066687796
0.00066685331
0.00066683608
0.00066682361
0.00066681437
0.0006668073
0.00066680193
0.00066679771
0.00066679438
0.00066679172
0.00066678959
0.00066678785
0.00066678644
0.00066678529
0.00066678433
0.00066678354
0.00066678288
0.00066678232
0.00066678193
0.00066678124
0.00013877456
0.00013813213
0.0001381187
0.00013812852
0.00013813278
0.00013813565
0.0001381386
0.00013814192
0.00013814565
0.00013814982
0.00013815444
0.00013815952
0.00013816507
0.00013817108
0.00013817753
0.00013818438
0.00013819154
0.00013819892
0.0001382064
0.0001382139
0.0001382215
0.00013823143
0.00013821128
0.0001397042
0.0018738758
0.0017541906
0.0014568745
0.0012973012
0.0012039045
0.0011499844
0.0011171174
0.0010954476
0.0010804348
0.0010696988
0.0010618014
0.0010558372
0.001051226
0.0010475825
0.0010446413
0.0010422157
0.0010401725
0.0010384157
0.0010368745
0.0010354962
0.0010342412
0.0010330794
0.0010319879
0.0010309491
0.001029949
0.0010289773
0.0010280255
0.0010270871
0.001026157
0.0010252314
0.001024307
0.0010233815
0.0010224529
0.00102152
0.0010205815
0.0010196368
0.0010186852
0.0010177264
0.0010167602
0.0010157865
0.0010148053
0.0010138167
0.0010128209
0.0010118182
0.0010108087
0.0010097929
0.0010087711
0.0010077436
0.0010067109
0.0010056735
0.0010046316
0.001003586
0.0010025369
0.001001485
0.0010004307
0.00099937455
0.00099831706
0.00099725879
0.00099620028
0.00099514208
0.00099408479
0.00099302895
0.00099197512
0.00099092392
0.00098987592
0.00098883172
0.00098779192
0.00098675714
0.00098572799
0.00098470508
0.00098368905
0.00098268053
0.00098168015
0.00098068856
0.00097970639
0.00097873431
0.00097777296
0.00097682301
0.00097588513
0.00097495995
0.00097404824
0.00097315056
0.00097226766
0.00097140022
0.00097054892
0.0009697145
0.00096889742
0.00096810068
0.00096730269
0.00096675113
0.00096650006
0.00096638858
0.00096632661
0.00096628618
0.0009662578
0.00096623716
0.00096622181
0.00096621001
0.00096620101
0.00096619391
0.0009661883
0.0009661838
0.00096618018
0.00096617723
0.00096617482
0.00096617284
0.0009661712
0.00096616983
0.0009661687
0.00096616772
0.00096616705
0.00096616587
0.00013798989
0.00013720239
0.00013717768
0.00013718886
0.00013719388
0.00013719715
0.00013720047
0.00013720423
0.00013720848
0.00013721323
0.0001372185
0.0001372243
0.00013723064
0.0001372375
0.00013724487
0.00013725268
0.00013726086
0.00013726931
0.00013727789
0.00013728652
0.00013729528
0.0001373071
0.00013728409
0.00013881206
0.0023306004
0.002286526
0.0019163464
0.0017123285
0.0015900749
0.0015179654
0.0014733498
0.0014436308
0.0014228676
0.0014079084
0.0013968355
0.0013884318
0.0013819108
0.0013767463
0.0013725735
0.0013691343
0.0013662435
0.0013637664
0.0013616035
0.0013596799
0.0013579394
0.0013563388
0.0013548449
0.0013534321
0.0013520804
0.0013507742
0.001349501
0.0013482513
0.0013470174
0.0013457933
0.0013445741
0.0013433562
0.0013421365
0.0013409128
0.0013396834
0.0013384469
0.0013372024
0.001335949
0.0013346864
0.0013334143
0.0013321325
0.0013308412
0.0013295403
0.0013282301
0.0013269109
0.0013255831
0.001324247
0.0013229031
0.001321552
0.001320194
0.0013188299
0.0013174602
0.0013160854
0.0013147063
0.0013133234
0.0013119375
0.0013105492
0.0013091592
0.0013077682
0.0013063769
0.0013049862
0.0013035967
0.0013022091
0.0013008243
0.001299443
0.001298066
0.0012966941
0.0012953281
0.0012939688
0.0012926171
0.0012912737
0.0012899396
0.0012886155
0.0012873023
0.0012860009
0.0012847122
0.001283437
0.0012821762
0.0012809307
0.0012797015
0.0012784894
0.0012772954
0.0012761203
0.0012749652
0.0012738309
0.0012727185
0.0012716286
0.0012705653
0.0012694997
0.0012687493
0.0012683934
0.0012682288
0.0012681356
0.0012680743
0.0012680311
0.0012679995
0.0012679759
0.0012679577
0.0012679437
0.0012679326
0.0012679238
0.0012679168
0.0012679111
0.0012679064
0.0012679026
0.0012678994
0.0012678968
0.0012678947
0.0012678928
0.0012678913
0.0012678902
0.0012678883
0.00013699593
0.00013601108
0.00013596958
0.00013598225
0.00013598821
0.00013599195
0.00013599574
0.00013600005
0.00013600494
0.00013601044
0.00013601654
0.00013602326
0.00013603061
0.00013603856
0.0001360471
0.00013605616
0.00013606565
0.00013607546
0.00013608545
0.00013609554
0.00013610579
0.00013612009
0.00013609317
0.00013767346
0.0027000844
0.0027956621
0.0023631064
0.0021176581
0.0019671099
0.0018762763
0.0018191524
0.0017806663
0.0017535256
0.0017338101
0.0017191146
0.0017078992
0.0016991595
0.0016922178
0.0016866011
0.0016819724
0.0016780885
0.0016747708
0.0016718868
0.0016693364
0.0016670434
0.0016649493
0.0016630089
0.0016611868
0.0016594553
0.0016577927
0.0016561817
0.0016546085
0.0016530623
0.0016515344
0.0016500178
0.001648507
0.0016469977
0.0016454863
0.0016439703
0.0016424473
0.001640916
0.0016393749
0.0016378233
0.0016362606
0.0016346864
0.0016331004
0.0016315028
0.0016298936
0.0016282731
0.0016266416
0.0016249994
0.0016233472
0.0016216853
0.0016200144
0.0016183352
0.0016166483
0.0016149544
0.0016132543
0.0016115487
0.0016098384
0.0016081243
0.0016064071
0.0016046878
0.0016029671
0.0016012462
0.0015995257
0.0015978066
0.00159609
0.0015943767
0.0015926677
0.001590964
0.0015892666
0.0015875765
0.0015858948
0.0015842224
0.0015825604
0.00158091
0.0015792721
0.0015776479
0.0015760384
0.0015744448
0.0015728682
0.0015713098
0.0015697706
0.001568252
0.0015667549
0.0015652806
0.0015638304
0.0015624054
0.0015610069
0.0015596358
0.0015582974
0.0015569554
0.0015559898
0.0015555109
0.00155528
0.0015551464
0.0015550579
0.0015549951
0.0015549489
0.0015549142
0.0015548873
0.0015548666
0.0015548502
0.001554837
0.0015548265
0.0015548179
0.0015548108
0.001554805
0.0015548003
0.0015547963
0.001554793
0.0015547902
0.0015547878
0.0015547861
0.0015547833
0.00013578165
0.00013453381
0.00013446778
0.00013448189
0.00013448892
0.0001344932
0.00013449752
0.00013450248
0.00013450817
0.00013451457
0.00013452171
0.00013452957
0.00013453817
0.00013454748
0.00013455748
0.00013456809
0.00013457922
0.00013459073
0.00013460248
0.00013461439
0.00013462649
0.00013464396
0.00013461176
0.00013626273
0.0029701723
0.0032687721
0.0027845092
0.002500742
0.0023227895
0.0022129435
0.0021426725
0.0020947481
0.002060611
0.0020355932
0.0020168054
0.002002379
0.0019910832
0.0019820803
0.0019747813
0.0019687634
0.001963719
0.0019594212
0.0019556999
0.0019524261
0.0019495009
0.0019468477
0.0019444071
0.0019421324
0.0019399866
0.0019379404
0.0019359707
0.0019340586
0.0019321892
0.0019303505
0.0019285328
0.0019267284
0.001924931
0.0019231355
0.001921338
0.0019195354
0.001917725
0.0019159051
0.001914074
0.0019122309
0.0019103748
0.0019085054
0.0019066223
0.0019047255
0.0019028151
0.0019008913
0.0018989544
0.001897005
0.0018950435
0.0018930705
0.0018910867
0.0018890928
0.0018870897
0.0018850781
0.0018830589
0.0018810329
0.0018790012
0.0018769647
0.0018749243
0.001872881
0.0018708361
0.0018687904
0.0018667451
0.0018647012
0.00186266
0.0018606225
0.0018585899
0.0018565635
0.0018545444
0.0018525338
0.001850533
0.0018485433
0.0018465659
0.0018446021
0.0018426533
0.0018407208
0.0018388059
0.00183691
0.0018350346
0.0018331809
0.0018313506
0.0018295448
0.0018277653
0.0018260134
0.0018242906
0.0018225986
0.0018209384
0.0018193166
0.0018176897
0.0018164915
0.0018158687
0.0018155552
0.0018153701
0.0018152462
0.0018151577
0.0018150924
0.001815043
0.0018150046
0.0018149748
0.001814951
0.001814932
0.0018149167
0.0018149041
0.0018148938
0.0018148854
0.0018148783
0.0018148724
0.0018148675
0.0018148634
0.0018148598
0.0018148572
0.0018148531
0.00013433811
0.00013274448
0.00013264322
0.00013265833
0.00013266651
0.00013267133
0.00013267623
0.00013268194
0.00013268855
0.00013269605
0.00013270442
0.00013271366
0.00013272378
0.00013273474
0.00013274651
0.00013275902
0.00013277214
0.00013278572
0.00013279963
0.00013281378
0.00013282811
0.00013284957
0.00013281033
0.00013455097
0.0031353248
0.0036964836
0.0031714394
0.00285255
0.0026483924
0.0025195589
0.0024356971
0.0023777695
0.0023360696
0.0023052251
0.0022818774
0.0022638322
0.0022496281
0.002238262
0.0022290227
0.0022213962
0.0022150055
0.0022095702
0.002204879
0.0022007702
0.0021971194
0.0021938294
0.0021908243
0.0021880441
0.0021854411
0.0021829771
0.0021806215
0.0021783497
0.0021761418
0.0021739817
0.0021718563
0.002169755
0.0021676692
0.0021655918
0.0021635172
0.0021614409
0.0021593593
0.0021572693
0.0021551688
0.002153056
0.0021509297
0.0021487887
0.0021466326
0.0021444609
0.0021422735
0.0021400705
0.002137852
0.0021356183
0.0021333699
0.0021311075
0.0021288316
0.0021265429
0.0021242423
0.0021219306
0.0021196088
0.0021172778
0.0021149386
0.0021125923
0.00211024
0.0021078827
0.0021055218
0.0021031584
0.0021007937
0.0020984289
0.0020960654
0.0020937044
0.0020913474
0.0020889956
0.0020866505
0.0020843135
0.0020819861
0.0020796696
0.0020773657
0.0020750757
0.0020728014
0.0020705442
0.0020683057
0.0020660876
0.0020638916
0.0020617191
0.0020595723
0.0020574524
0.0020553614
0.0020533012
0.0020512734
0.0020492801
0.0020473225
0.0020454087
0.0020434877
0.002042038
0.0020412477
0.0020408327
0.0020405822
0.0020404129
0.0020402914
0.002040201
0.0020401323
0.0020400787
0.0020400368
0.0020400034
0.0020399765
0.0020399546
0.0020399368
0.0020399221
0.0020399099
0.0020398997
0.0020398912
0.0020398841
0.0020398781
0.0020398729
0.0020398691
0.0020398632
0.00013266078
0.00013061681
0.00013046568
0.00013048076
0.00013048999
0.0001304953
0.00013050076
0.00013050729
0.00013051495
0.00013052371
0.00013053354
0.00013054442
0.00013055634
0.00013056927
0.00013058317
0.00013059793
0.00013061343
0.00013062951
0.00013064599
0.00013066285
0.00013067982
0.00013070624
0.00013065774
0.00013250726
0.0031948025
0.0040701943
0.0035165541
0.0031661353
0.0029373454
0.0027899761
0.0026923858
0.0026240859
0.0025743796
0.0025372589
0.0025089277
0.0024868787
0.0024694237
0.0024553929
0.0024439506
0.0024344876
0.002426554
0.0024198126
0.002414007
0.0024089403
0.0024044595
0.0024004447
0.0023968013
0.0023934541
0.0023903431
0.0023874198
0.0023846452
0.0023819877
0.0023794214
0.0023769253
0.0023744823
0.0023720782
0.0023697016
0.0023673429
0.0023649945
0.00236265
0.0023603044
0.0023579534
0.0023555938
0.0023532228
0.0023508385
0.0023484392
0.0023460239
0.0023435916
0.0023411418
0.0023386743
0.0023361891
0.0023336862
0.002331166
0.002328629
0.0023260756
0.0023235066
0.0023209227
0.0023183249
0.0023157139
0.0023130909
0.0023104569
0.002307813
0.0023051604
0.0023025002
0.0022998338
0.0022971626
0.0022944877
0.0022918107
0.0022891328
0.0022864557
0.0022837808
0.0022811097
0.0022784438
0.0022757848
0.0022731344
0.0022704942
0.0022678659
0.0022652513
0.0022626521
0.0022600701
0.0022575072
0.0022549653
0.0022524463
0.002249952
0.0022474847
0.0022450461
0.0022426384
0.0022402638
0.0022379244
0.0022356224
0.0022333594
0.002231145
0.002228921
0.0022272
0.0022262166
0.0022256784
0.0022253465
0.0022251199
0.002224956
0.0022248334
0.0022247397
0.0022246663
0.0022246086
0.0022245624
0.002224525
0.0022244946
0.0022244696
0.002224449
0.0022244318
0.0022244175
0.0022244055
0.0022243954
0.0022243868
0.0022243794
0.0022243739
0.0022243656
0.00013075196
0.00012812628
0.0001279055
0.00012791855
0.00012792845
0.00012793403
0.00012793996
0.00012794731
0.00012795612
0.00012796631
0.00012797781
0.00012799059
0.00012800462
0.00012801985
0.00012803623
0.00012805365
0.00012807196
0.00012809098
0.00012811051
0.00012813057
0.00012815062
0.00012818312
0.00012812264
0.0001300993
0.0031518484
0.0043812853
0.0038136859
0.0034361051
0.003184654
0.0030197022
0.0029086483
0.00282989
0.0027719288
0.0027282158
0.0026945684
0.0026681913
0.0026471821
0.0026302098
0.0026163155
0.0026047949
0.0025951235
0.0025869051
0.0025798367
0.0025736836
0.0025682621
0.0025634278
0.0025590656
0.0025550836
0.0025514078
0.0025479784
0.0025447466
0.0025416727
0.0025387242
0.0025358743
0.0025331009
0.002530386
0.0025277145
0.002525074
0.0025224542
0.0025198467
0.0025172445
0.0025146419
0.0025120343
0.0025094178
0.0025067894
0.0025041467
0.0025014878
0.0024988113
0.0024961162
0.0024934017
0.0024906674
0.0024879133
0.0024851393
0.0024823457
0.0024795328
0.0024767013
0.0024738518
0.0024709852
0.0024681022
0.0024652039
0.0024622913
0.0024593657
0.002456428
0.0024534797
0.0024505222
0.0024475567
0.0024445847
0.0024416077
0.0024386273
0.002435645
0.0024326625
0.0024296813
0.0024267034
0.0024237304
0.0024207641
0.0024178065
0.0024148593
0.0024119246
0.0024090043
0.0024061005
0.0024032152
0.0024003507
0.002397509
0.0023946923
0.0023919031
0.0023891435
0.002386416
0.0023837231
0.0023810671
0.0023784509
0.002375876
0.0023733538
0.0023708195
0.0023688084
0.002367605
0.0023669197
0.0023664879
0.0023661899
0.0023659727
0.0023658093
0.0023656836
0.0023655847
0.0023655066
0.0023654438
0.0023653928
0.0023653512
0.0023653168
0.0023652884
0.0023652646
0.0023652447
0.002365228
0.0023652139
0.0023652019
0.0023651915
0.0023651838
0.0023651722
0.00012862358
0.00012525269
0.0001249356
0.00012494308
0.00012495283
0.00012495821
0.00012496435
0.00012497243
0.00012498243
0.00012499418
0.00012500755
0.00012502248
0.00012503891
0.0001250568
0.00012507604
0.00012509653
0.0001251181
0.00012514053
0.00012516361
0.00012518742
0.00012521098
0.00012525085
0.00012517517
0.00012729471
0.0030139636
0.0046208637
0.0040576568
0.0036585381
0.0033867477
0.0032056731
0.0030818763
0.0029929216
0.0029267128
0.002876279
0.0028371187
0.0028061883
0.0027813929
0.0027612526
0.0027446929
0.0027309178
0.0027193296
0.0027094736
0.0027009993
0.0026936334
0.0026871608
0.0026814108
0.0026762469
0.0026715591
0.0026672586
0.0026632727
0.0026595422
0.0026560184
0.002652661
0.002649437
0.0026463188
0.0026432833
0.0026403117
0.002637388
0.0026344991
0.0026316338
0.0026287831
0.0026259393
0.002623096
0.0026202482
0.0026173915
0.0026145224
0.0026116382
0.0026087367
0.0026058161
0.0026028752
0.0025999131
0.0025969292
0.0025939231
0.0025908949
0.0025878447
0.0025847727
0.0025816796
0.0025785659
0.0025754325
0.0025722803
0.0025691102
0.0025659233
0.0025627209
0.0025595041
0.0025562745
0.0025530334
0.0025497823
0.0025465227
0.0025432563
0.0025399847
0.0025367097
0.002533433
0.0025301566
0.0025268823
0.0025236121
0.0025203481
0.0025170922
0.0025138466
0.0025106136
0.0025073953
0.0025041941
0.0025010123
0.0024978524
0.0024947168
0.0024916082
0.0024885291
0.0024854822
0.0024824704
0.0024794964
0.0024765635
0.0024736733
0.002470839
0.0024679897
0.0024656716
0.0024642215
0.0024633637
0.0024628114
0.0024624259
0.0024621428
0.0024619283
0.0024617624
0.0024616313
0.0024615273
0.0024614432
0.0024613748
0.0024613186
0.0024612721
0.0024612334
0.0024612011
0.002461174
0.002461151
0.0024611316
0.0024611151
0.0024611008
0.00246109
0.002461074
0.00012630028
0.00012198298
0.00012153399
0.00012153004
0.00012153801
0.00012154236
0.00012154821
0.00012155677
0.00012156787
0.00012158123
0.00012159662
0.00012161393
0.00012163305
0.00012165392
0.00012167641
0.0001217004
0.00012172567
0.00012175201
0.00012177914
0.00012180729
0.00012183479
0.00012188346
0.0001217889
0.00012406246
0.0027922119
0.0047800497
0.0042447656
0.0038310447
0.0035414903
0.0033461877
0.0032108247
0.0031123138
0.0030381611
0.0029811059
0.0029364108
0.0029008351
0.0028721226
0.0028486649
0.0028292841
0.0028131005
0.0027994484
0.0027878173
0.0027778108
0.0027691176
0.0027614911
0.0027547343
0.0027486886
0.0027432255
0.0027382403
0.0027336473
0.0027293757
0.0027253671
0.0027215733
0.0027179537
0.0027144748
0.0027111084
0.0027078309
0.0027046225
0.0027014667
0.0026983493
0.0026952587
0.002692185
0.0026891199
0.0026860567
0.0026829894
0.0026799135
0.0026768248
0.0026737204
0.0026705976
0.0026674543
0.0026642892
0.0026611009
0.0026578887
0.0026546522
0.0026513911
0.0026481054
0.0026447955
0.0026414616
0.0026381045
0.0026347249
0.0026313235
0.0026279015
0.00262446
0.0026210001
0.0026175233
0.0026140309
0.0026105244
0.0026070053
0.0026034755
0.0025999364
0.0025963901
0.0025928382
0.0025892829
0.0025857261
0.0025821698
0.0025786162
0.0025750676
0.0025715263
0.0025679945
0.0025644748
0.0025609696
0.0025574815
0.0025540132
0.0025505674
0.0025471471
0.0025437549
0.0025403941
0.0025370676
0.0025337787
0.0025305309
0.0025273263
0.0025241795
0.0025210147
0.0025183765
0.0025166544
0.0025155977
0.0025149028
0.0025144119
0.0025140484
0.0025137712
0.0025135556
0.0025133844
0.0025132478
0.002513137
0.0025130464
0.0025129717
0.0025129098
0.0025128581
0.0025128147
0.0025127781
0.0025127472
0.0025127209
0.0025126985
0.0025126789
0.0025126641
0.0025126425
0.00012382229
0.00011831464
0.00011768664
0.00011766193
0.00011766529
0.00011766714
0.00011767181
0.00011768034
0.0001176923
0.00011770719
0.00011772467
0.00011774451
0.00011776657
0.00011779072
0.00011781682
0.0001178447
0.00011787413
0.00011790485
0.00011793656
0.00011796962
0.00011800144
0.00011806052
0.00011794304
0.00012037473
0.0025009361
0.0048501569
0.004373172
0.0039527942
0.0036482047
0.0034408762
0.0032955232
0.0031884671
0.0031069836
0.0030436572
0.0029936063
0.0029534528
0.0029208192
0.0028939944
0.0028717153
0.002853031
0.002837216
0.0028237096
0.0028120732
0.00280196
0.0027930935
0.0027852511
0.0027782527
0.0027719512
0.0027662262
0.0027609783
0.0027561252
0.0027515984
0.0027473408
0.0027433046
0.0027394495
0.0027357417
0.0027321527
0.0027286583
0.0027252381
0.0027218748
0.0027185538
0.0027152627
0.002711991
0.0027087299
0.0027054718
0.0027022106
0.0026989409
0.0026956584
0.0026923595
0.0026890413
0.0026857014
0.002682338
0.0026789496
0.0026755353
0.0026720944
0.0026686264
0.0026651313
0.0026616091
0.0026580601
0.002654485
0.0026508843
0.0026472589
0.0026436098
0.0026399379
0.0026362447
0.0026325314
0.0026287995
0.0026250505
0.002621286
0.0026175078
0.0026137177
0.0026099175
0.0026061094
0.0026022952
0.0025984773
0.0025946578
0.002590839
0.0025870234
0.0025832135
0.0025794118
0.0025756211
0.002571844
0.0025680835
0.0025643425
0.0025606242
0.0025569315
0.002553268
0.0025496369
0.0025460417
0.0025424866
0.0025389735
0.0025355189
0.0025320431
0.0025290767
0.00252706
0.0025257786
0.0025249177
0.0025243021
0.0025238425
0.0025234896
0.0025232132
0.0025229932
0.0025228162
0.0025226722
0.002522554
0.0025224562
0.0025223748
0.0025223066
0.0025222493
0.0025222007
0.0025221595
0.0025221244
0.0025220945
0.0025220682
0.0025220483
0.0025220193
0.00012124796
0.00011425966
0.00011339096
0.00011333104
0.00011332509
0.00011332202
0.00011332404
0.00011333163
0.00011334391
0.00011336007
0.00011337954
0.00011340196
0.0001134271
0.00011345476
0.00011348476
0.00011351688
0.00011355087
0.00011358643
0.00011362319
0.00011366174
0.00011369819
0.00011376938
0.00011362485
0.00011620906
0.0021582052
0.0048226399
0.0044425769
0.004024414
0.0037076357
0.0034906377
0.0033371693
0.0032229026
0.0031349957
0.0030660002
0.0030109835
0.002966495
0.0029300799
0.0028999562
0.0028747976
0.0028535983
0.0028355842
0.0028201529
0.0028068295
0.0027952362
0.0027850692
0.0027760829
0.0027680767
0.0027608862
0.0027543757
0.0027484326
0.002742963
0.0027378885
0.0027331432
0.0027286713
0.0027244261
0.0027203677
0.0027164624
0.0027126813
0.0027090001
0.0027053979
0.0027018569
0.0026983618
0.0026948997
0.0026914596
0.0026880319
0.0026846088
0.0026811834
0.00267775
0.0026743037
0.0026708407
0.0026673575
0.0026638514
0.0026603204
0.0026567626
0.0026531768
0.002649562
0.0026459178
0.0026422437
0.0026385397
0.002634806
0.002631043
0.0026272512
0.0026234315
0.0026195845
0.0026157116
0.002611814
0.0026078927
0.0026039494
0.0025999856
0.0025960029
0.0025920031
0.0025879881
0.0025839599
0.0025799205
0.0025758721
0.0025718171
0.0025677577
0.0025636964
0.0025596358
0.0025555787
0.0025515278
0.002547486
0.0025434563
0.0025394418
0.0025354461
0.0025314721
0.0025275237
0.0025236044
0.0025197181
0.0025158691
0.0025120598
0.0025083079
0.0025045315
0.0025012348
0.0024989055
0.0024973749
0.0024963248
0.0024955644
0.0024949916
0.0024945486
0.0024941996
0.0024939204
0.0024936946
0.0024935101
0.002493358
0.0024932317
0.0024931262
0.0024930375
0.0024929627
0.0024928991
0.0024928451
0.0024927988
0.0024927593
0.0024927245
0.0024926979
0.0024926595
0.0001186551
0.00010984898
0.00010865959
0.00010854263
0.00010851985
0.00010850804
0.00010850505
0.00010851018
0.00010852182
0.00010853866
0.00010855978
0.00010858463
0.00010861284
0.00010864411
0.0001086782
0.00010871483
0.00010875369
0.00010879446
0.00010883668
0.00010888125
0.00010892251
0.00010900758
0.00010883208
0.00011155087
0.001785658
0.0046904356
0.0044533317
0.0040477121
0.0037218133
0.0034975212
0.0033379812
0.0032180853
0.0031249142
0.0030510831
0.0029916946
0.0029432902
0.0029033844
0.0028701577
0.0028422461
0.0028186072
0.0027984329
0.0027810894
0.0027660736
0.0027529822
0.0027414892
0.0027313288
0.0027222829
0.0027141713
0.0027068446
0.0027001778
0.0026940663
0.0026884221
0.0026831706
0.0026782487
0.0026736028
0.0026691872
0.0026649628
0.0026608961
0.0026569585
0.0026531253
0.0026493755
0.0026456907
0.0026420553
0.002638456
0.0026348811
0.0026313207
0.0026277664
0.0026242108
0.0026206477
0.0026170719
0.002613479
0.0026098653
0.0026062276
0.0026025636
0.0025988711
0.0025951486
0.002591395
0.0025876093
0.002583791
0.00257994
0.0025760562
0.0025721398
0.0025681914
0.0025642113
0.0025602006
0.0025561604
0.0025520915
0.0025479953
0.0025438733
0.0025397268
0.0025355577
0.0025313677
0.0025271586
0.0025229326
0.0025186917
0.0025144381
0.0025101743
0.0025059028
0.0025016261
0.002497347
0.0024930683
0.002488793
0.0024845242
0.0024802652
0.0024760195
0.0024717905
0.0024675821
0.002463398
0.0024592424
0.00245512
0.0024510332
0.002447001
0.0024429409
0.002439319
0.0024366646
0.0024348635
0.0024336019
0.0024326762
0.0024319726
0.0024314245
0.00243099
0.0024306405
0.0024303564
0.0024301232
0.0024299301
0.0024297692
0.0024296343
0.0024295205
0.0024294241
0.0024293421
0.0024292721
0.002429212
0.0024291605
0.0024291151
0.0024290802
0.0024290299
0.00011614049
0.00010513723
0.00010352483
0.00010331846
0.00010326719
0.00010324071
0.00010322902
0.00010322927
0.00010323867
0.0001032551
0.00010327718
0.00010330401
0.00010333503
0.00010336981
0.00010340799
0.00010344922
0.00010349312
0.00010353935
0.00010358732
0.00010363833
0.00010368442
0.0001037851
0.00010357533
0.00010639656
0.001408125
0.00444795
0.0044051806
0.004025211
0.0036938043
0.0034645471