/*--------------------------------*- C++ -*----------------------------------*\
  =========                 |
  \\      /  F ield         | OpenFOAM: The Open Source CFD Toolbox
   \\    /   O peration     | Website:  https://openfoam.org
    \\  /    A nd           | Version:  12
     \\/     M anipulation  |
\*---------------------------------------------------------------------------*/
FoamFile
{
    format      ascii;
    class       volScalarField;
    location    "100";
    object      nut;
}
// * * * * * * * * * * * * * * * * * * * * * * * * * * * * * * * * * * * * * //

dimensions      [0 2 -1 0 0 0 0];

internalField   nonuniform List<scalar> 
13056
(
2.0497121e-07
2.0386862e-07
2.0387968e-07
2.0389495e-07
2.0389826e-07
2.0389929e-07
2.0390012e-07
2.0390105e-07
2.0390211e-07
2.0390329e-07
2.0390458e-07
2.0390598e-07
2.0390748e-07
2.0390908e-07
2.0391077e-07
2.0391253e-07
2.0391437e-07
2.0391626e-07
2.0391821e-07
2.0392025e-07
2.0392239e-07
2.039259e-07
2.0395454e-07
2.0302637e-07
7.2667971e-12
6.3151707e-12
5.1513013e-12
4.5581256e-12
4.2289661e-12
4.0471911e-12
3.9396349e-12
3.8701206e-12
3.8227445e-12
3.789359e-12
3.7651021e-12
3.7469561e-12
3.7330194e-12
3.722048e-12
3.7131952e-12
3.7058731e-12
3.6996678e-12
3.6942843e-12
3.6895081e-12
3.6851816e-12
3.6811876e-12
3.6774384e-12
3.6738678e-12
3.6704255e-12
3.6670731e-12
3.6637814e-12
3.6605277e-12
3.6572947e-12
3.6540692e-12
3.6508411e-12
3.6476026e-12
3.644348e-12
3.641073e-12
3.6377745e-12
3.6344505e-12
3.6310995e-12
3.6277208e-12
3.6243141e-12
3.6208795e-12
3.6174175e-12
3.6139287e-12
3.6104141e-12
3.6068747e-12
3.6033118e-12
3.5997267e-12
3.5961208e-12
3.5924957e-12
3.5888529e-12
3.585194e-12
3.5815209e-12
3.5778351e-12
3.5741386e-12
3.5704331e-12
3.5667205e-12
3.5630026e-12
3.5592813e-12
3.5555586e-12
3.5518363e-12
3.5481165e-12
3.5444012e-12
3.5406924e-12
3.536992e-12
3.5333021e-12
3.5296247e-12
3.525962e-12
3.522316e-12
3.5186888e-12
3.5150825e-12
3.5114992e-12
3.5079411e-12
3.5044103e-12
3.500909e-12
3.4974393e-12
3.4940035e-12
3.4906037e-12
3.4872421e-12
3.4839209e-12
3.4806424e-12
3.4774087e-12
3.474222e-12
3.4710849e-12
3.4679991e-12
3.4649672e-12
3.4619914e-12
3.4590739e-12
3.4562171e-12
3.4534226e-12
3.4506999e-12
3.4479757e-12
3.4461608e-12
3.4454015e-12
3.4450928e-12
3.4449281e-12
3.4448223e-12
3.4447487e-12
3.4446958e-12
3.4446569e-12
3.4446273e-12
3.4446049e-12
3.4445874e-12
3.4445737e-12
3.4445628e-12
3.4445541e-12
3.444547e-12
3.4445413e-12
3.4445367e-12
3.4445328e-12
3.4445297e-12
3.4445271e-12
3.4445248e-12
3.4445233e-12
3.4445204e-12
2.0497953e-07
2.0384504e-07
2.0385426e-07
2.0386993e-07
2.0387338e-07
2.0387446e-07
2.0387533e-07
2.038763e-07
2.0387742e-07
2.0387866e-07
2.0388002e-07
2.038815e-07
2.0388309e-07
2.0388478e-07
2.0388657e-07
2.0388844e-07
2.0389038e-07
2.0389239e-07
2.0389445e-07
2.0389661e-07
2.0389887e-07
2.0390257e-07
2.039318e-07
2.030079e-07
1.6365708e-09
1.5312865e-09
1.2581078e-09
1.1107703e-09
1.0264813e-09
9.7906463e-10
9.5070411e-10
9.322451e-10
9.1958577e-10
9.1061323e-10
9.040645e-10
8.9915105e-10
8.9537198e-10
8.9239735e-10
8.9000153e-10
8.8802695e-10
8.8636212e-10
8.8492701e-10
8.8366319e-10
8.8252744e-10
8.8148745e-10
8.805189e-10
8.7960335e-10
8.7872667e-10
8.7787803e-10
8.7704909e-10
8.7623337e-10
8.7542587e-10
8.7462272e-10
8.7382092e-10
8.7301817e-10
8.722127e-10
8.7140318e-10
8.7058862e-10
8.6976831e-10
8.6894174e-10
8.6810858e-10
8.6726867e-10
8.6642192e-10
8.6556838e-10
8.6470813e-10
8.6384135e-10
8.6296826e-10
8.6208912e-10
8.6120422e-10
8.6031388e-10
8.5941847e-10
8.5851834e-10
8.576139e-10
8.5670553e-10
8.5579367e-10
8.5487875e-10
8.5396119e-10
8.5304146e-10
8.5212003e-10
8.5119733e-10
8.5027385e-10
8.4935007e-10
8.4842647e-10
8.4750355e-10
8.4658182e-10
8.4566176e-10
8.4474387e-10
8.4382869e-10
8.4291672e-10
8.4200848e-10
8.411045e-10
8.4020531e-10
8.3931144e-10
8.3842344e-10
8.3754183e-10
8.3666717e-10
8.3580001e-10
8.3494089e-10
8.3409038e-10
8.3324903e-10
8.324174e-10
8.3159606e-10
8.3078558e-10
8.299865e-10
8.2919947e-10
8.2842496e-10
8.2766361e-10
8.26916e-10
8.261827e-10
8.2546432e-10
8.2476127e-10
8.2407605e-10
8.2338998e-10
8.2292312e-10
8.2271881e-10
8.2263223e-10
8.2258532e-10
8.2255503e-10
8.2253392e-10
8.2251867e-10
8.2250741e-10
8.224988e-10
8.2249228e-10
8.2248717e-10
8.2248315e-10
8.2247994e-10
8.2247737e-10
8.2247529e-10
8.224736e-10
8.2247221e-10
8.2247107e-10
8.2247012e-10
8.2246934e-10
8.2246867e-10
8.2246821e-10
8.2246738e-10
2.0503511e-07
2.0379448e-07
2.0379788e-07
2.0381475e-07
2.0381862e-07
2.0381984e-07
2.0382082e-07
2.0382194e-07
2.0382322e-07
2.0382465e-07
2.0382623e-07
2.0382795e-07
2.038298e-07
2.0383177e-07
2.0383385e-07
2.0383603e-07
2.0383831e-07
2.0384065e-07
2.0384306e-07
2.0384558e-07
2.0384819e-07
2.0385251e-07
2.0388319e-07
2.02935e-07
8.952336e-09
9.4014087e-09
7.8900921e-09
6.9895834e-09
6.4621757e-09
6.1630704e-09
5.9833331e-09
5.8658636e-09
5.7849643e-09
5.7274184e-09
5.6853117e-09
5.6536717e-09
5.6293202e-09
5.6101554e-09
5.5947367e-09
5.5820546e-09
5.5713926e-09
5.5622347e-09
5.5542029e-09
5.5470169e-09
5.5404667e-09
5.5343937e-09
5.5286771e-09
5.5232243e-09
5.517964e-09
5.5128411e-09
5.5078127e-09
5.5028454e-09
5.4979134e-09
5.4929964e-09
5.488079e-09
5.483149e-09
5.4781972e-09
5.4732168e-09
5.4682026e-09
5.463151e-09
5.4580594e-09
5.4529263e-09
5.447751e-09
5.4425334e-09
5.4372737e-09
5.4319728e-09
5.4266318e-09
5.4212523e-09
5.4158357e-09
5.4103842e-09
5.4048996e-09
5.3993842e-09
5.3938403e-09
5.3882703e-09
5.3826768e-09
5.3770623e-09
5.3714295e-09
5.3657811e-09
5.3601201e-09
5.3544491e-09
5.3487711e-09
5.343089e-09
5.3374057e-09
5.3317244e-09
5.3260483e-09
5.3203801e-09
5.3147232e-09
5.3090806e-09
5.3034557e-09
5.2978516e-09
5.2922716e-09
5.286719e-09
5.2811972e-09
5.2757094e-09
5.270259e-09
5.2648496e-09
5.2594844e-09
5.254167e-09
5.2489008e-09
5.2436893e-09
5.2385361e-09
5.2334448e-09
5.2284189e-09
5.2234618e-09
5.2185777e-09
5.2137695e-09
5.2090413e-09
5.2043967e-09
5.1998393e-09
5.1953732e-09
5.1910007e-09
5.1867379e-09
5.1824673e-09
5.1795213e-09
5.1781985e-09
5.1776267e-09
5.1773145e-09
5.1771124e-09
5.1769713e-09
5.1768692e-09
5.1767937e-09
5.1767358e-09
5.1766919e-09
5.1766575e-09
5.1766303e-09
5.1766086e-09
5.1765912e-09
5.1765771e-09
5.1765656e-09
5.1765562e-09
5.1765484e-09
5.176542e-09
5.1765366e-09
5.176532e-09
5.1765289e-09
5.1765233e-09
2.0514301e-07
2.0371301e-07
2.0370555e-07
2.0372442e-07
2.03729e-07
2.0373044e-07
2.0373162e-07
2.0373297e-07
2.0373454e-07
2.037363e-07
2.0373826e-07
2.0374039e-07
2.0374268e-07
2.0374514e-07
2.0374774e-07
2.0375046e-07
2.0375331e-07
2.0375624e-07
2.0375926e-07
2.037624e-07
2.037656e-07
2.0377101e-07
2.0380319e-07
2.0280457e-07
2.1021697e-08
2.4422869e-08
2.1010801e-08
1.8728588e-08
1.7359605e-08
1.6577579e-08
1.6105491e-08
1.5795542e-08
1.5581091e-08
1.542794e-08
1.5315558e-08
1.5230953e-08
1.5165763e-08
1.5114438e-08
1.5073166e-08
1.5039264e-08
1.5010822e-08
1.4986461e-08
1.4965168e-08
1.4946187e-08
1.4928955e-08
1.491304e-08
1.4898117e-08
1.4883933e-08
1.4870293e-08
1.4857047e-08
1.4844076e-08
1.483129e-08
1.4818616e-08
1.4805998e-08
1.4793392e-08
1.4780764e-08
1.4768089e-08
1.4755347e-08
1.4742521e-08
1.4729603e-08
1.4716583e-08
1.4703456e-08
1.4690221e-08
1.4676875e-08
1.4663419e-08
1.4649854e-08
1.4636184e-08
1.462241e-08
1.4608537e-08
1.459457e-08
1.4580513e-08
1.4566372e-08
1.4552152e-08
1.453786e-08
1.4523502e-08
1.4509085e-08
1.4494615e-08
1.4480099e-08
1.4465544e-08
1.4450958e-08
1.4436348e-08
1.4421721e-08
1.4407086e-08
1.4392449e-08
1.4377819e-08
1.4363205e-08
1.4348613e-08
1.4334052e-08
1.4319531e-08
1.4305057e-08
1.429064e-08
1.4276288e-08
1.4262009e-08
1.4247813e-08
1.4233707e-08
1.4219702e-08
1.4205806e-08
1.4192028e-08
1.4178377e-08
1.4164863e-08
1.4151494e-08
1.4138281e-08
1.4125232e-08
1.4112357e-08
1.4099666e-08
1.4087168e-08
1.4074873e-08
1.4062791e-08
1.4050931e-08
1.4039304e-08
1.4027916e-08
1.4016811e-08
1.4005679e-08
1.3997902e-08
1.3994327e-08
1.3992753e-08
1.3991887e-08
1.3991324e-08
1.3990931e-08
1.3990645e-08
1.3990433e-08
1.3990271e-08
1.3990148e-08
1.399005e-08
1.3989974e-08
1.3989912e-08
1.3989863e-08
1.3989823e-08
1.398979e-08
1.3989764e-08
1.3989741e-08
1.3989723e-08
1.3989708e-08
1.3989695e-08
1.3989686e-08
1.398967e-08
2.0531284e-07
2.0359477e-07
2.035695e-07
2.0359111e-07
2.035967e-07
2.0359846e-07
2.035999e-07
2.0360159e-07
2.0360357e-07
2.0360583e-07
2.0360833e-07
2.0361107e-07
2.0361403e-07
2.036172e-07
2.0362057e-07
2.0362411e-07
2.0362779e-07
2.0363161e-07
2.0363552e-07
2.036396e-07
2.0364368e-07
2.0365073e-07
2.0368435e-07
2.0261392e-07
3.4861754e-08
4.3516497e-08
3.8231472e-08
3.4301788e-08
3.1883238e-08
3.0487613e-08
2.963942e-08
2.9079195e-08
2.868935e-08
2.8409545e-08
2.8203421e-08
2.8047793e-08
2.7927632e-08
2.7832916e-08
2.7756731e-08
2.7694197e-08
2.7641825e-08
2.7597081e-08
2.7558101e-08
2.752349e-08
2.74922e-08
2.746343e-08
2.7436571e-08
2.7411149e-08
2.7386798e-08
2.7363233e-08
2.734023e-08
2.7317613e-08
2.7295247e-08
2.7273021e-08
2.7250851e-08
2.7228671e-08
2.720643e-08
2.7184086e-08
2.716161e-08
2.7138979e-08
2.7116177e-08
2.7093191e-08
2.7070015e-08
2.7046645e-08
2.702308e-08
2.699932e-08
2.6975369e-08
2.6951232e-08
2.6926914e-08
2.6902423e-08
2.6877766e-08
2.6852953e-08
2.6827993e-08
2.6802896e-08
2.6777674e-08
2.6752337e-08
2.6726896e-08
2.6701364e-08
2.6675754e-08
2.6650078e-08
2.6624347e-08
2.6598577e-08
2.6572779e-08
2.6546969e-08
2.6521159e-08
2.6495365e-08
2.6469599e-08
2.6443877e-08
2.6418213e-08
2.6392622e-08
2.6367119e-08
2.634172e-08
2.631644e-08
2.6291294e-08
2.6266299e-08
2.624147e-08
2.6216823e-08
2.6192375e-08
2.6168141e-08
2.6144139e-08
2.6120386e-08
2.6096897e-08
2.6073691e-08
2.6050784e-08
2.6028195e-08
2.6005938e-08
2.5984034e-08
2.5962499e-08
2.5941351e-08
2.592061e-08
2.5900287e-08
2.5880461e-08
2.5860575e-08
2.5846489e-08
2.583984e-08
2.5836842e-08
2.5835173e-08
2.5834085e-08
2.5833321e-08
2.5832765e-08
2.5832351e-08
2.5832033e-08
2.5831791e-08
2.58316e-08
2.5831448e-08
2.5831327e-08
2.5831229e-08
2.583115e-08
2.5831085e-08
2.5831031e-08
2.5830987e-08
2.583095e-08
2.583092e-08
2.5830893e-08
2.5830875e-08
2.5830844e-08
2.0555995e-07
2.0343204e-07
2.0337897e-07
2.0340396e-07
2.0341084e-07
2.0341298e-07
2.0341475e-07
2.0341688e-07
2.0341943e-07
2.0342235e-07
2.0342561e-07
2.0342919e-07
2.0343307e-07
2.0343723e-07
2.0344166e-07
2.0344633e-07
2.0345119e-07
2.0345622e-07
2.0346139e-07
2.0346676e-07
2.0347206e-07
2.0348143e-07
2.0351635e-07
2.0235846e-07
4.8796796e-08
6.4437803e-08
5.758291e-08
5.1966486e-08
4.8406496e-08
4.6322599e-08
4.5043845e-08
4.419261e-08
4.3596031e-08
4.3165132e-08
4.2846051e-08
4.2604155e-08
4.2416815e-08
4.2268844e-08
4.2149716e-08
4.2051962e-08
4.1970213e-08
4.1900553e-08
4.1840082e-08
4.1786626e-08
4.1738539e-08
4.1694563e-08
4.1653729e-08
4.1615286e-08
4.1578649e-08
4.154336e-08
4.1509057e-08
4.1475456e-08
4.1442332e-08
4.1409506e-08
4.1376837e-08
4.1344215e-08
4.1311552e-08
4.1278779e-08
4.1245843e-08
4.1212704e-08
4.1179331e-08
4.1145702e-08
4.1111803e-08
4.1077623e-08
4.1043157e-08
4.1008404e-08
4.0973366e-08
4.0938048e-08
4.0902457e-08
4.0866601e-08
4.0830491e-08
4.0794139e-08
4.0757557e-08
4.072076e-08
4.0683763e-08
4.0646581e-08
4.0609231e-08
4.057173e-08
4.0534096e-08
4.0496346e-08
4.0458499e-08
4.0420574e-08
4.0382591e-08
4.034457e-08
4.0306532e-08
4.0268495e-08
4.0230483e-08
4.0192515e-08
4.0154614e-08
4.0116801e-08
4.00791e-08
4.0041531e-08
4.000412e-08
3.9966888e-08
3.9929858e-08
3.9893056e-08
3.9856505e-08
3.9820229e-08
3.9784254e-08
3.9748603e-08
3.9713302e-08
3.9678376e-08
3.9643852e-08
3.9609754e-08
3.9576113e-08
3.9542948e-08
3.9510291e-08
3.9478167e-08
3.9446605e-08
3.9415633e-08
3.9385269e-08
3.9355634e-08
3.9325892e-08
3.9304475e-08
3.9294029e-08
3.9289173e-08
3.9286427e-08
3.9284626e-08
3.9283357e-08
3.9282429e-08
3.9281736e-08
3.9281202e-08
3.9280792e-08
3.9280469e-08
3.9280212e-08
3.9280005e-08
3.9279838e-08
3.9279702e-08
3.9279591e-08
3.9279499e-08
3.9279423e-08
3.9279359e-08
3.9279306e-08
3.9279261e-08
3.9279228e-08
3.9279176e-08
2.059074e-07
2.0321532e-07
2.0312012e-07
2.0314883e-07
2.0315726e-07
2.031598e-07
2.0316194e-07
2.0316461e-07
2.0316788e-07
2.0317166e-07
2.0317592e-07
2.0318061e-07
2.0318571e-07
2.031912e-07
2.0319705e-07
2.0320321e-07
2.0320965e-07
2.0321631e-07
2.0322315e-07
2.0323026e-07
2.0323717e-07
2.0324971e-07
2.0328563e-07
2.0203095e-07
6.2079423e-08
8.6322423e-08
7.8254468e-08
7.0982088e-08
6.621145e-08
6.3367839e-08
6.1601467e-08
6.0414409e-08
5.957544e-08
5.8964884e-08
5.8509885e-08
5.8163181e-08
5.7893604e-08
5.768008e-08
5.7507907e-08
5.7366599e-08
5.7248563e-08
5.7148229e-08
5.706145e-08
5.6985099e-08
5.6916795e-08
5.6854709e-08
5.6797425e-08
5.6743839e-08
5.6693085e-08
5.6644481e-08
5.6597488e-08
5.6551675e-08
5.6506701e-08
5.6462295e-08
5.6418239e-08
5.637436e-08
5.6330519e-08
5.6286609e-08
5.6242542e-08
5.6198253e-08
5.6153689e-08
5.6108811e-08
5.6063591e-08
5.6018008e-08
5.5972051e-08
5.5925712e-08
5.5878989e-08
5.5831885e-08
5.5784406e-08
5.573656e-08
5.5688359e-08
5.5639815e-08
5.5590946e-08
5.5541767e-08
5.5492298e-08
5.5442557e-08
5.5392566e-08
5.5342347e-08
5.5291923e-08
5.5241316e-08
5.5190551e-08
5.5139653e-08
5.5088648e-08
5.5037562e-08
5.4986423e-08
5.4935257e-08
5.4884093e-08
5.4832958e-08
5.4781883e-08
5.4730897e-08
5.4680029e-08
5.462931e-08
5.4578771e-08
5.4528445e-08
5.4478361e-08
5.4428554e-08
5.4379055e-08
5.4329898e-08
5.4281117e-08
5.4232746e-08
5.418482e-08
5.4137373e-08
5.4090441e-08
5.4044059e-08
5.3998269e-08
5.3953098e-08
5.390859e-08
5.3864781e-08
5.3821709e-08
5.3779415e-08
5.3737925e-08
5.3697408e-08
5.3656721e-08
5.3626848e-08
5.3611706e-08
5.3604408e-08
5.3600207e-08
5.359743e-08
5.3595463e-08
5.3594019e-08
5.3592935e-08
5.3592096e-08
5.359145e-08
5.3590938e-08
5.3590529e-08
5.3590201e-08
5.3589934e-08
5.3589715e-08
5.3589536e-08
5.3589388e-08
5.3589265e-08
5.3589162e-08
5.3589076e-08
5.3589002e-08
5.3588948e-08
5.3588864e-08
2.0638864e-07
2.0293378e-07
2.0277593e-07
2.0280818e-07
2.0281826e-07
2.0282114e-07
2.0282364e-07
2.0282695e-07
2.0283109e-07
2.0283596e-07
2.0284149e-07
2.0284762e-07
2.028543e-07
2.0286151e-07
2.0286919e-07
2.0287731e-07
2.028858e-07
2.0289459e-07
2.0290362e-07
2.0291302e-07
2.02922e-07
2.0293877e-07
2.0297515e-07
2.0162118e-07
7.4322993e-08
1.0895185e-07
1.0004301e-07
9.1163947e-08
8.5101136e-08
8.1410607e-08
7.9085663e-08
7.7506217e-08
7.6379282e-08
7.555215e-08
7.4931245e-08
7.4455291e-08
7.4083457e-08
7.3787897e-08
7.354905e-08
7.3352862e-08
7.3189088e-08
7.3050161e-08
7.2930411e-08
7.2825534e-08
7.2732237e-08
7.2647971e-08
7.2570752e-08
7.2499025e-08
7.2431563e-08
7.236739e-08
7.2305731e-08
7.2245966e-08
7.2187597e-08
7.2130226e-08
7.2073529e-08
7.2017248e-08
7.1961176e-08
7.1905146e-08
7.1849023e-08
7.1792703e-08
7.1736102e-08
7.1679155e-08
7.1621812e-08
7.1564038e-08
7.1505805e-08
7.1447097e-08
7.1387903e-08
7.1328221e-08
7.1268052e-08
7.1207402e-08
7.1146282e-08
7.1084705e-08
7.1022687e-08
7.0960247e-08
7.0897406e-08
7.0834187e-08
7.0770614e-08
7.0706714e-08
7.0642515e-08
7.0578043e-08
7.051333e-08
7.0448406e-08
7.0383303e-08
7.0318053e-08
7.0252693e-08
7.0187254e-08
7.0121772e-08
7.0056284e-08
6.9990826e-08
6.9925437e-08
6.9860153e-08
6.9795015e-08
6.9730063e-08
6.9665336e-08
6.9600876e-08
6.9536724e-08
6.9472924e-08
6.9409518e-08
6.934655e-08
6.9284066e-08
6.9222109e-08
6.9160727e-08
6.9099965e-08
6.9039869e-08
6.8980496e-08
6.8921881e-08
6.8864082e-08
6.8807148e-08
6.8751128e-08
6.8696079e-08
6.8642033e-08
6.8589218e-08
6.8536151e-08
6.8496326e-08
6.8475263e-08
6.8464705e-08
6.8458507e-08
6.8454373e-08
6.8451429e-08
6.8449255e-08
6.8447616e-08
6.8446341e-08
6.8445355e-08
6.8444571e-08
6.8443943e-08
6.8443435e-08
6.8443022e-08
6.8442683e-08
6.8442404e-08
6.8442172e-08
6.8441979e-08
6.8441817e-08
6.8441682e-08
6.8441565e-08
6.844148e-08
6.8441349e-08
2.0705144e-07
2.0257592e-07
2.0232637e-07
2.0236099e-07
2.0237257e-07
2.0237556e-07
2.0237831e-07
2.0238228e-07
2.0238745e-07
2.0239366e-07
2.0240077e-07
2.024087e-07
2.0241739e-07
2.0242678e-07
2.0243682e-07
2.0244744e-07
2.0245855e-07
2.0247007e-07
2.0248191e-07
2.0249426e-07
2.0250586e-07
2.0252821e-07
2.0256414e-07
2.0111666e-07
8.521759e-08
1.3230013e-07
1.2296784e-07
1.125556e-07
1.0510202e-07
1.0045926e-07
9.7489624e-08
9.5448345e-08
9.3976818e-08
9.2886717e-08
9.2061838e-08
9.1425304e-08
9.0925321e-08
9.0526233e-08
9.0202794e-08
8.9936728e-08
8.9714612e-08
8.9526455e-08
8.9364721e-08
8.9223656e-08
8.909882e-08
8.8986762e-08
8.8884776e-08
8.8790727e-08
8.8702919e-08
8.8619998e-08
8.8540878e-08
8.8464685e-08
8.8390714e-08
8.8318393e-08
8.8247259e-08
8.8176934e-08
8.8107115e-08
8.8037553e-08
8.7968048e-08
8.7898437e-08
8.7828593e-08
8.7758411e-08
8.7687811e-08
8.7616729e-08
8.7545119e-08
8.7472947e-08
8.7400188e-08
8.7326828e-08
8.7252862e-08
8.7178288e-08
8.7103113e-08
8.7027348e-08
8.6951007e-08
8.6874109e-08
8.6796676e-08
8.6718733e-08
8.6640306e-08
8.6561426e-08
8.6482123e-08
8.6402432e-08
8.6322385e-08
8.6242021e-08
8.6161377e-08
8.6080491e-08
8.5999408e-08
8.5918166e-08
8.5836808e-08
8.575538e-08
8.5673925e-08
8.5592491e-08
8.5511125e-08
8.5429875e-08
8.534879e-08
8.5267922e-08
8.518732e-08
8.5107039e-08
8.502713e-08
8.4947649e-08
8.4868651e-08
8.4790192e-08
8.471233e-08
8.4635123e-08
8.4558632e-08
8.4482912e-08
8.4408038e-08
8.4334056e-08
8.4261039e-08
8.4189051e-08
8.4118157e-08
8.4048429e-08
8.397991e-08
8.3912897e-08
8.3845525e-08
8.3793757e-08
8.3765125e-08
8.3750182e-08
8.3741224e-08
8.3735194e-08
8.3730871e-08
8.3727662e-08
8.3725228e-08
8.3723329e-08
8.3721851e-08
8.3720671e-08
8.3719723e-08
8.3718954e-08
8.3718326e-08
8.3717809e-08
8.3717381e-08
8.3717026e-08
8.3716728e-08
8.3716479e-08
8.3716269e-08
8.3716088e-08
8.3715954e-08
8.3715753e-08
2.0796329e-07
2.0213067e-07
2.0174874e-07
2.0178287e-07
2.0179528e-07
2.0179786e-07
2.0180058e-07
2.0180515e-07
2.0181147e-07
2.0181925e-07
2.0182829e-07
2.0183845e-07
2.0184964e-07
2.0186176e-07
2.0187475e-07
2.0188852e-07
2.0190294e-07
2.0191792e-07
2.0193332e-07
2.0194942e-07
2.019643e-07
2.0199389e-07
2.0202796e-07
2.0050401e-07
9.4516964e-08
1.5631029e-07
1.4709352e-07
1.352791e-07
1.2632537e-07
1.2061023e-07
1.1689689e-07
1.1431274e-07
1.1242949e-07
1.1102061e-07
1.0994537e-07
1.0910962e-07
1.0844923e-07
1.0791957e-07
1.0748879e-07
1.0713364e-07
1.0683691e-07
1.065857e-07
1.0637018e-07
1.0618282e-07
1.0601777e-07
1.0587043e-07
1.057372e-07
1.056152e-07
1.0550212e-07
1.0539614e-07
1.0529575e-07
1.0519975e-07
1.0510716e-07
1.0501717e-07
1.0492914e-07
1.0484253e-07
1.047569e-07
1.0467189e-07
1.045872e-07
1.045026e-07
1.044179e-07
1.0433293e-07
1.0424756e-07
1.041617e-07
1.0407526e-07
1.0398819e-07
1.0390044e-07
1.0381198e-07
1.0372278e-07
1.0363284e-07
1.0354216e-07
1.0345072e-07
1.0335856e-07
1.0326568e-07
1.031721e-07
1.0307785e-07
1.0298295e-07
1.0288744e-07
1.0279136e-07
1.0269473e-07
1.0259759e-07
1.025e-07
1.0240199e-07
1.023036e-07
1.0220489e-07
1.0210591e-07
1.020067e-07
1.0190733e-07
1.0180783e-07
1.0170827e-07
1.0160871e-07
1.0150919e-07
1.014098e-07
1.0131057e-07
1.0121159e-07
1.011129e-07
1.0101458e-07
1.009167e-07
1.0081932e-07
1.0072251e-07
1.0062635e-07
1.005309e-07
1.0043625e-07
1.0034246e-07
1.0024963e-07
1.0015781e-07
1.000671e-07
9.9977573e-08
9.9889323e-08
9.9802436e-08
9.9716967e-08
9.9633301e-08
9.9549137e-08
9.9482854e-08
9.9444492e-08
9.9423647e-08
9.9410882e-08
9.9402201e-08
9.9395935e-08
9.9391256e-08
9.9387689e-08
9.9384891e-08
9.9382705e-08
9.9380951e-08
9.9379537e-08
9.9378386e-08
9.9377442e-08
9.9376663e-08
9.9376016e-08
9.9375477e-08
9.9375025e-08
9.9374644e-08
9.9374323e-08
9.9374045e-08
9.9373839e-08
9.9373532e-08
2.0921848e-07
2.015893e-07
2.0101857e-07
2.0104651e-07
2.0105816e-07
2.0105931e-07
2.0106141e-07
2.0106634e-07
2.0107382e-07
2.0108339e-07
2.010947e-07
2.0110755e-07
2.0112178e-07
2.0113728e-07
2.0115393e-07
2.011716e-07
2.0119015e-07
2.0120945e-07
2.012293e-07
2.0125011e-07
2.01269e-07
2.0130793e-07
2.0133802e-07
1.9976799e-07
1.0195543e-07
1.8077914e-07
1.7247491e-07
1.5947048e-07
1.4890713e-07
1.4198949e-07
1.3742399e-07
1.3420666e-07
1.318354e-07
1.3004318e-07
1.2866303e-07
1.2758203e-07
1.2672229e-07
1.2602906e-07
1.2546289e-07
1.2499477e-07
1.2460301e-07
1.2427124e-07
1.239869e-07
1.237403e-07
1.2352383e-07
1.233315e-07
1.2315857e-07
1.2300123e-07
1.2285643e-07
1.2272169e-07
1.2259501e-07
1.2247474e-07
1.2235954e-07
1.2224832e-07
1.2214016e-07
1.2203431e-07
1.2193017e-07
1.2182722e-07
1.2172503e-07
1.2162326e-07
1.2152163e-07
1.2141989e-07
1.2131786e-07
1.2121538e-07
1.2111232e-07
1.2100858e-07
1.2090409e-07
1.2079878e-07
1.2069261e-07
1.2058556e-07
1.204776e-07
1.2036872e-07
1.2025893e-07
1.2014824e-07
1.2003665e-07
1.199242e-07
1.198109e-07
1.1969679e-07
1.1958191e-07
1.1946628e-07
1.1934997e-07
1.19233e-07
1.1911543e-07
1.1899731e-07
1.1887871e-07
1.1875966e-07
1.1864023e-07
1.1852048e-07
1.1840048e-07
1.1828028e-07
1.1815996e-07
1.1803959e-07
1.1791924e-07
1.1779898e-07
1.1767888e-07
1.1755903e-07
1.174395e-07
1.1732038e-07
1.1720174e-07
1.1708368e-07
1.1696628e-07
1.1684963e-07
1.1673382e-07
1.1661895e-07
1.1650512e-07
1.1639241e-07
1.1628094e-07
1.1617081e-07
1.1606212e-07
1.1595498e-07
1.1584948e-07
1.1574609e-07
1.1564203e-07
1.15558e-07
1.1550713e-07
1.1547837e-07
1.1546038e-07
1.1544801e-07
1.1543902e-07
1.1543226e-07
1.1542708e-07
1.15423e-07
1.1541979e-07
1.1541721e-07
1.1541512e-07
1.1541341e-07
1.1541201e-07
1.1541085e-07
1.1540988e-07
1.1540907e-07
1.1540839e-07
1.1540781e-07
1.1540732e-07
1.154069e-07
1.1540659e-07
1.1540612e-07
2.1094721e-07
2.0094882e-07
2.0011097e-07
2.0012246e-07
2.0013018e-07
2.0012804e-07
2.001284e-07
2.0013314e-07
2.0014162e-07
2.0015308e-07
2.0016699e-07
2.00183e-07
2.0020089e-07
2.0022046e-07
2.0024156e-07
2.0026401e-07
2.0028764e-07
2.0031225e-07
2.003376e-07
2.0036428e-07
2.0038802e-07
2.0043885e-07
2.0046194e-07
1.9888975e-07
1.0726789e-07
2.0535692e-07
1.9906666e-07
1.8524892e-07
1.7298053e-07
1.6472561e-07
1.5919392e-07
1.5524676e-07
1.5230402e-07
1.5005632e-07
1.4830918e-07
1.4692967e-07
1.4582492e-07
1.4492891e-07
1.4419367e-07
1.4358355e-07
1.4307175e-07
1.426378e-07
1.4226592e-07
1.4194382e-07
1.4166179e-07
1.4141215e-07
1.4118874e-07
1.4098663e-07
1.4080179e-07
1.4063098e-07
1.4047151e-07
1.4032121e-07
1.4017827e-07
1.400412e-07
1.3990875e-07
1.3977991e-07
1.3965382e-07
1.3952976e-07
1.3940715e-07
1.392855e-07
1.3916438e-07
1.3904346e-07
1.3892245e-07
1.3880113e-07
1.3867929e-07
1.3855679e-07
1.3843349e-07
1.3830929e-07
1.3818413e-07
1.3805794e-07
1.3793067e-07
1.378023e-07
1.3767281e-07
1.3754221e-07
1.3741049e-07
1.3727766e-07
1.3714376e-07
1.3700879e-07
1.3687281e-07
1.3673585e-07
1.3659795e-07
1.3645915e-07
1.3631952e-07
1.3617911e-07
1.3603797e-07
1.3589617e-07
1.3575378e-07
1.3561087e-07
1.354675e-07
1.3532376e-07
1.3517972e-07
1.3503546e-07
1.3489107e-07
1.3474662e-07
1.3460222e-07
1.3445796e-07
1.3431392e-07
1.341702e-07
1.3402691e-07
1.3388415e-07
1.3374202e-07
1.3360064e-07
1.3346011e-07
1.3332055e-07
1.3318209e-07
1.3304482e-07
1.329089e-07
1.3277444e-07
1.3264158e-07
1.3251046e-07
1.3238117e-07
1.3225431e-07
1.3212657e-07
1.3202081e-07
1.3195391e-07
1.3191462e-07
1.3188949e-07
1.3187203e-07
1.3185923e-07
1.3184956e-07
1.3184209e-07
1.3183619e-07
1.3183153e-07
1.3182776e-07
1.3182469e-07
1.3182218e-07
1.3182011e-07
1.3181838e-07
1.3181694e-07
1.3181573e-07
1.3181472e-07
1.3181385e-07
1.3181312e-07
1.3181248e-07
1.31812e-07
1.3181131e-07
2.1332819e-07
2.0021624e-07
1.9900299e-07
1.989805e-07
1.9897851e-07
1.9896984e-07
1.9896653e-07
1.9896999e-07
1.9897896e-07
1.9899223e-07
1.9900894e-07
1.9902855e-07
1.990507e-07
1.9907511e-07
1.9910154e-07
1.9912976e-07
1.9915953e-07
1.9919061e-07
1.9922264e-07
1.9925654e-07
1.9928606e-07
1.9935191e-07
1.9936376e-07
1.9784441e-07
1.1009452e-07
2.2962291e-07
2.2671646e-07
2.1269648e-07
1.9866119e-07
1.8893557e-07
1.8232215e-07
1.7754558e-07
1.7394329e-07
1.7116213e-07
1.6897949e-07
1.6724162e-07
1.6583969e-07
1.6469552e-07
1.6375169e-07
1.6296519e-07
1.6230337e-07
1.6174109e-07
1.6125884e-07
1.6084127e-07
1.6047619e-07
1.6015389e-07
1.5986653e-07
1.5960776e-07
1.5937242e-07
1.5915626e-07
1.589558e-07
1.5876817e-07
1.5859096e-07
1.584222e-07
1.5826022e-07
1.5810364e-07
1.579513e-07
1.5780222e-07
1.5765558e-07
1.5751069e-07
1.5736698e-07
1.5722396e-07
1.5708123e-07
1.5693844e-07
1.5679531e-07
1.566516e-07
1.5650712e-07
1.5636172e-07
1.5621526e-07
1.5606765e-07
1.559188e-07
1.5576865e-07
1.5561718e-07
1.5546434e-07
1.5531013e-07
1.5515454e-07
1.549976e-07
1.548393e-07
1.5467969e-07
1.5451879e-07
1.5435665e-07
1.5419331e-07
1.5402884e-07
1.5386327e-07
1.5369669e-07
1.5352916e-07
1.5336075e-07
1.5319153e-07
1.530216e-07
1.5285102e-07
1.526799e-07
1.5250833e-07
1.5233639e-07
1.5216419e-07
1.5199184e-07
1.5181944e-07
1.516471e-07
1.5147494e-07
1.5130308e-07
1.5113163e-07
1.5096073e-07
1.5079051e-07
1.5062109e-07
1.5045263e-07
1.5028527e-07
1.5011914e-07
1.4995441e-07
1.4979124e-07
1.4962978e-07
1.4947022e-07
1.4931266e-07
1.4915787e-07
1.4900192e-07
1.4886959e-07
1.4878225e-07
1.4872903e-07
1.4869426e-07
1.4866979e-07
1.4865173e-07
1.4863798e-07
1.4862732e-07
1.4861884e-07
1.4861211e-07
1.4860664e-07
1.4860218e-07
1.4859851e-07
1.4859547e-07
1.4859294e-07
1.4859081e-07
1.4858902e-07
1.4858751e-07
1.4858622e-07
1.4858513e-07
1.4858418e-07
1.4858346e-07
1.4858241e-07
2.1660484e-07
1.9941496e-07
1.9767724e-07
1.9759186e-07
1.9757014e-07
1.9754949e-07
1.9753919e-07
1.975394e-07
1.9754781e-07
1.9756243e-07
1.9758192e-07
1.9760544e-07
1.976324e-07
1.976624e-07
1.9769508e-07
1.9773013e-07
1.9776722e-07
1.9780605e-07
1.9784613e-07
1.9788878e-07
1.9792505e-07
1.9800968e-07
1.9800454e-07
1.9660305e-07
1.1004026e-07
2.5287286e-07
2.5523781e-07
2.418375e-07
2.2603516e-07
2.1471503e-07
2.0690714e-07
2.0120252e-07
1.9685124e-07
1.9345523e-07
1.9076384e-07
1.8860228e-07
1.8684526e-07
1.8540171e-07
1.8420409e-07
1.8320137e-07
1.8235442e-07
1.8163289e-07
1.81013e-07
1.8047591e-07
1.8000658e-07
1.7959287e-07
1.7922499e-07
1.7889491e-07
1.7859606e-07
1.7832304e-07
1.7807134e-07
1.7783724e-07
1.7761762e-07
1.7740988e-07
1.7721183e-07
1.7702161e-07
1.7683769e-07
1.7665874e-07
1.7648366e-07
1.7631149e-07
1.7614145e-07
1.7597286e-07
1.7580515e-07
1.7563783e-07
1.754705e-07
1.7530281e-07
1.7513447e-07
1.7496526e-07
1.7479496e-07
1.7462342e-07
1.7445051e-07
1.7427611e-07
1.7410017e-07
1.739226e-07
1.7374338e-07
1.7356248e-07
1.7337988e-07
1.731956e-07
1.7300964e-07
1.7282204e-07
1.7263282e-07
1.7244203e-07
1.7224971e-07
1.7205593e-07
1.7186075e-07
1.7166425e-07
1.7146649e-07
1.7126756e-07
1.7106755e-07
1.7086655e-07
1.7066466e-07
1.7046198e-07
1.7025862e-07
1.700547e-07
1.6985034e-07
1.6964565e-07
1.6944076e-07
1.6923582e-07
1.6903095e-07
1.688263e-07
1.6862203e-07
1.6841828e-07
1.6821522e-07
1.68013e-07
1.6781183e-07
1.6761185e-07
1.6741326e-07
1.6721626e-07
1.6702104e-07
1.6682783e-07
1.6663675e-07
1.6644873e-07
1.6625923e-07
1.6609452e-07
1.6598131e-07
1.6590981e-07
1.658621e-07
1.6582811e-07
1.658028e-07
1.6578341e-07
1.6576826e-07
1.6575621e-07
1.6574654e-07
1.6573868e-07
1.6573224e-07
1.6572691e-07
1.6572248e-07
1.6571878e-07
1.6571566e-07
1.6571303e-07
1.657108e-07
1.657089e-07
1.6570728e-07
1.6570587e-07
1.6570479e-07
1.6570324e-07
2.2110609e-07
1.9859414e-07
1.9612733e-07
1.9593259e-07
1.9587434e-07
1.9583276e-07
1.9581e-07
1.9580358e-07
1.9580939e-07
1.9582426e-07
1.9584609e-07
1.9587353e-07
1.9590569e-07
1.9594194e-07
1.9598176e-07
1.9602471e-07
1.9607036e-07
1.9611832e-07
1.9616791e-07
1.9622105e-07
1.9626505e-07
1.9637295e-07
1.9634301e-07
1.9513246e-07
1.0683691e-07
2.739877e-07
2.8434e-07
2.7260884e-07
2.5514405e-07
2.4212887e-07
2.330217e-07
2.2629566e-07
2.2110845e-07
2.1701598e-07
2.1374026e-07
2.1108601e-07
2.0891146e-07
2.0711236e-07
2.0561062e-07
2.0434669e-07
2.0327448e-07
2.0235793e-07
2.0156856e-07
2.0088362e-07
2.002848e-07
1.9975727e-07
1.9928889e-07
1.9886973e-07
1.9849155e-07
1.9814754e-07
1.9783201e-07
1.9754021e-07
1.9726814e-07
1.9701242e-07
1.9677022e-07
1.9653913e-07
1.9631709e-07
1.9610236e-07
1.9589347e-07
1.9568914e-07
1.954883e-07
1.9529002e-07
1.9509352e-07
1.9489813e-07
1.9470327e-07
1.9450846e-07
1.9431328e-07
1.9411738e-07
1.9392046e-07
1.9372229e-07
1.9352266e-07
1.9332139e-07
1.9311836e-07
1.9291345e-07
1.9270659e-07
1.9249771e-07
1.9228677e-07
1.9207375e-07
1.9185864e-07
1.9164146e-07
1.9142221e-07
1.9120093e-07
1.9097767e-07
1.9075245e-07
1.9052537e-07
1.9029649e-07
1.9006587e-07
1.898336e-07
1.8959979e-07
1.8936452e-07
1.891279e-07
1.8889005e-07
1.8865109e-07
1.8841114e-07
1.8817033e-07
1.879288e-07
1.8768671e-07
1.8744419e-07
1.8720142e-07
1.8695855e-07
1.8671577e-07
1.8647325e-07
1.8623117e-07
1.8598975e-07
1.8574919e-07
1.8550968e-07
1.8527146e-07
1.8503477e-07
1.8479984e-07
1.8456694e-07
1.8433623e-07
1.8410883e-07
1.8387955e-07
1.8367559e-07
1.8352983e-07
1.8343458e-07
1.8336965e-07
1.8332281e-07
1.8328763e-07
1.8326048e-07
1.8323913e-07
1.8322208e-07
1.8320831e-07
1.8319707e-07
1.8318782e-07
1.8318015e-07
1.8317375e-07
1.8316838e-07
1.8316384e-07
1.8316e-07
1.8315673e-07
1.8315394e-07
1.8315156e-07
1.8314947e-07
1.8314786e-07
1.8314557e-07
2.2727255e-07
1.9784217e-07
1.9436614e-07
1.9398859e-07
1.938664e-07
1.937894e-07
1.9374528e-07
1.9372656e-07
1.9372621e-07
1.9373915e-07
1.937621e-07
1.9379294e-07
1.9383031e-07
1.9387321e-07
1.939209e-07
1.9397276e-07
1.9402818e-07
1.9408667e-07
1.9414728e-07
1.9421277e-07
1.9426543e-07
1.9440188e-07
1.9433669e-07
1.9339543e-07
1.0039241e-07
2.9157549e-07
3.1351225e-07
3.0481366e-07
2.8596178e-07
2.7119861e-07
2.6070288e-07
2.5287252e-07
2.4676966e-07
2.4190289e-07
2.3796817e-07
2.3475107e-07
2.32094e-07
2.2987969e-07
2.2801943e-07
2.264449e-07
2.2510276e-07
2.239509e-07
2.2295576e-07
2.2209035e-07
2.2133276e-07
2.206651e-07
2.2007266e-07
2.1954328e-07
2.1906684e-07
2.1863489e-07
2.1824034e-07
2.1787722e-07
2.1754049e-07
2.1722587e-07
2.169297e-07
2.166489e-07
2.1638081e-07
2.1612316e-07
2.15874e-07
2.1563166e-07
2.153947e-07
2.151619e-07
2.1493217e-07
2.1470462e-07
2.1447845e-07
2.1425298e-07
2.1402764e-07
2.1380192e-07
2.135754e-07
2.1334772e-07
2.1311858e-07
2.1288771e-07