/*--------------------------------*- C++ -*----------------------------------*\
  =========                 |
  \\      /  F ield         | OpenFOAM: The Open Source CFD Toolbox
   \\    /   O peration     | Website:  https://openfoam.org
    \\  /    A nd           | Version:  12
     \\/     M anipulation  |
\*---------------------------------------------------------------------------*/
FoamFile
{
    format      ascii;
    class       volScalarField;
    location    "100";
    object      p;
}
// * * * * * * * * * * * * * * * * * * * * * * * * * * * * * * * * * * * * * //

dimensions      [0 2 -2 0 0 0 0];

internalField   nonuniform List<scalar> 
13056
(
0.00048199806
0.00048833087
0.00050164254
0.00051890207
0.00054018671
0.00056560035
0.00059518159
0.00062908604
0.00066762606
0.00071126176
0.00076061105
0.00081649326
0.00087999412
0.00095260131
0.0010363278
0.0011342079
0.001250292
0.0013923
0.0015686944
0.0018081396
0.0021230883
0.0026815956
0.0032981482
0.0071411721
0.0035892696
-0.0024715973
-0.0023098589
-0.0014539352
-0.00099176591
-0.00085609881
-0.00074813727
-0.00063929955
-0.00055142164
-0.00048370132
-0.00042727178
-0.00037803426
-0.00033504823
-0.00029754939
-0.00026453491
-0.00023514421
-0.00020880385
-0.00018509926
-0.00016366833
-0.00014420134
-0.00012645501
-0.00011024023
-9.5390923e-05
-8.1761394e-05
-6.9223921e-05
-5.7673047e-05
-4.7020768e-05
-3.7185273e-05
-2.8094826e-05
-1.968616e-05
-1.1904892e-05
-4.7030928e-06
1.9629458e-06
8.1327452e-06
1.3842418e-05
1.9124226e-05
2.4007008e-05
2.8516973e-05
3.2678311e-05
3.6513247e-05
4.0042168e-05
4.3283601e-05
4.6254477e-05
4.8970472e-05
5.1446266e-05
5.3695531e-05
5.5730729e-05
5.7563372e-05
5.920418e-05
6.0663146e-05
6.1949588e-05
6.3072193e-05
6.4039042e-05
6.4857681e-05
6.5535222e-05
6.6078361e-05
6.6493313e-05
6.6786014e-05
6.6961516e-05
6.7026392e-05
6.6985151e-05
6.683847e-05
6.6593788e-05
6.6257418e-05
6.5830819e-05
6.5317305e-05
6.4720407e-05
6.4043206e-05
6.3288606e-05
6.2459424e-05
6.1558279e-05
6.0587536e-05
5.9549297e-05
5.8445423e-05
5.7277525e-05
5.6046936e-05
5.4754662e-05
5.3401309e-05
5.1986992e-05
5.0511203e-05
4.8972556e-05
4.7368604e-05
4.5695195e-05
4.3945593e-05
4.2108611e-05
4.0166474e-05
3.807954e-05
3.5784592e-05
3.2939177e-05
2.9906386e-05
2.7615478e-05
2.6024568e-05
2.4670984e-05
2.336968e-05
2.2097646e-05
2.0850176e-05
1.9612276e-05
1.8370821e-05
1.7119686e-05
1.5856975e-05
1.4582423e-05
1.3296759e-05
1.2001845e-05
1.0700523e-05
9.3971451e-06
8.0959084e-06
6.8078162e-06
5.5305397e-06
4.3291076e-06
3.0836461e-06
2.6972987e-06
-4.9872728e-07
0.00048199806
0.00048833087
0.00050164254
0.00051890207
0.00054018671
0.00056560035
0.00059518159
0.00062908604
0.00066762606
0.00071126177
0.00076061106
0.00081649326
0.00087999413
0.00095260132
0.0010363278
0.0011342079
0.0012502921
0.0013923
0.0015686945
0.0018081397
0.0021230885
0.0026815959
0.0032981485
0.0071376754
0.0035903675
-0.0024709506
-0.0023097674
-0.001453899
-0.00099174269
-0.00085608374
-0.00074812736
-0.00063929282
-0.00055141693
-0.00048369792
-0.00042726925
-0.00037803233
-0.00033504673
-0.0002975482
-0.00026453394
-0.00023514341
-0.00020880317
-0.00018509867
-0.00016366781
-0.00014420087
-0.00012645458
-0.00011023984
-9.5390555e-05
-8.1761046e-05
-6.9223588e-05
-5.7672726e-05
-4.7020457e-05
-3.7184969e-05
-2.8094528e-05
-1.9685868e-05
-1.1904605e-05
-4.7028092e-06
1.9632256e-06
8.1330218e-06
1.3842691e-05
1.9124496e-05
2.4007275e-05
2.8517237e-05
3.2678572e-05
3.6513505e-05
4.0042422e-05
4.3283852e-05
4.6254724e-05
4.8970715e-05
5.1446506e-05
5.3695766e-05
5.5730961e-05
5.75636e-05
5.9204403e-05
6.0663364e-05
6.1949802e-05
6.3072402e-05
6.4039246e-05
6.485788e-05
6.5535416e-05
6.607855e-05
6.6493497e-05
6.6786193e-05
6.6961689e-05
6.702656e-05
6.6985313e-05
6.6838628e-05
6.659394e-05
6.6257564e-05
6.583096e-05
6.5317441e-05
6.4720537e-05
6.4043331e-05
6.3288726e-05
6.2459538e-05
6.1558389e-05
6.058764e-05
5.9549396e-05
5.8445517e-05
5.7277614e-05
5.604702e-05
5.4754741e-05
5.3401384e-05
5.1987063e-05
5.0511269e-05
4.8972618e-05
4.7368661e-05
4.5695248e-05
4.3945643e-05
4.2108657e-05
4.0166517e-05
3.8079579e-05
3.5784628e-05
3.2939205e-05
2.9906402e-05
2.7615485e-05
2.6024572e-05
2.4670986e-05
2.3369681e-05
2.2097647e-05
2.0850177e-05
1.9612277e-05
1.8370822e-05
1.7119686e-05
1.5856975e-05
1.4582424e-05
1.3296759e-05
1.2001845e-05
1.0700523e-05
9.3971452e-06
8.0959085e-06
6.8078163e-06
5.5305397e-06
4.3291076e-06
3.0836461e-06
2.6972988e-06
-4.9872725e-07
0.00048199806
0.00048833087
0.00050164254
0.00051890207
0.00054018671
0.00056560035
0.00059518159
0.00062908604
0.00066762606
0.00071126177
0.00076061106
0.00081649327
0.00087999413
0.00095260132
0.0010363278
0.0011342079
0.0012502921
0.0013923001
0.0015686945
0.0018081398
0.0021230886
0.0026815962
0.0032981487
0.00713453
0.0035917241
-0.0024702015
-0.0023096625
-0.0014538601
-0.00099171757
-0.00085606728
-0.0007481165
-0.00063928545
-0.00055141177
-0.0004836942
-0.00042726647
-0.00037803022
-0.00033504509
-0.00029754689
-0.00026453288
-0.00023514252
-0.00020880242
-0.00018509802
-0.00016366723
-0.00014420036
-0.00012645411
-0.0001102394
-9.5390143e-05
-8.1760654e-05
-6.9223212e-05
-5.7672364e-05
-4.7020105e-05
-3.7184626e-05
-2.8094192e-05
-1.9685537e-05
-1.1904279e-05
-4.7024882e-06
1.9635426e-06
8.1333349e-06
1.3843e-05
1.9124802e-05
2.4007578e-05
2.8517536e-05
3.2678868e-05
3.6513797e-05
4.004271e-05
4.3284136e-05
4.6255004e-05
4.897099e-05
5.1446777e-05
5.3696033e-05
5.5731222e-05
5.7563856e-05
5.9204655e-05
6.0663611e-05
6.1950043e-05
6.3072638e-05
6.4039477e-05
6.4858105e-05
6.5535636e-05
6.6078764e-05
6.6493705e-05
6.6786395e-05
6.6961885e-05
6.7026749e-05
6.6985497e-05
6.6838805e-05
6.6594111e-05
6.6257729e-05
6.5831119e-05
6.5317594e-05
6.4720684e-05
6.4043471e-05
6.3288861e-05
6.2459667e-05
6.1558511e-05
6.0587757e-05
5.9549508e-05
5.8445623e-05
5.7277714e-05
5.6047115e-05
5.4754831e-05
5.3401468e-05
5.1987142e-05
5.0511343e-05
4.8972687e-05
4.7368726e-05
4.5695308e-05
4.3945698e-05
4.2108709e-05
4.0166564e-05
3.8079623e-05
3.5784669e-05
3.2939237e-05
2.990642e-05
2.7615492e-05
2.6024575e-05
2.4670988e-05
2.3369683e-05
2.2097648e-05
2.0850177e-05
1.9612277e-05
1.8370822e-05
1.7119687e-05
1.5856975e-05
1.4582424e-05
1.3296759e-05
1.2001845e-05
1.0700523e-05
9.3971453e-06
8.0959085e-06
6.8078163e-06
5.5305398e-06
4.3291077e-06
3.0836461e-06
2.6972988e-06
-4.9872721e-07
0.00048199806
0.00048833087
0.00050164254
0.00051890207
0.00054018671
0.00056560036
0.00059518159
0.00062908604
0.00066762606
0.00071126177
0.00076061106
0.00081649327
0.00087999414
0.00095260133
0.0010363278
0.001134208
0.0012502921
0.0013923001
0.0015686946
0.0018081399
0.0021230887
0.0026815963
0.0032981489
0.0071317082
0.0035937121
-0.0024694007
-0.0023095622
-0.0014538279
-0.0009916957
-0.00085605223
-0.00074810635
-0.00063927847
-0.00055140685
-0.00048369062
-0.0004272638
-0.00037802817
-0.00033504348
-0.00029754561
-0.00026453183
-0.00023514165
-0.00020880168
-0.00018509738
-0.00016366667
-0.00014419985
-0.00012645365
-0.00011023898
-9.5389745e-05
-8.1760278e-05
-6.9222853e-05
-5.7672018e-05
-4.701977e-05
-3.71843e-05
-2.8093873e-05
-1.9685225e-05
-1.1903972e-05
-4.7021856e-06
1.963841e-06
8.1336295e-06
1.3843291e-05
1.9125089e-05
2.4007862e-05
2.8517817e-05
3.2679144e-05
3.651407e-05
4.004298e-05
4.3284401e-05
4.6255265e-05
4.8971248e-05
5.144703e-05
5.3696282e-05
5.5731467e-05
5.7564097e-05
5.9204891e-05
6.0663842e-05
6.1950269e-05
6.3072858e-05
6.4039693e-05
6.4858315e-05
6.5535841e-05
6.6078963e-05
6.6493899e-05
6.6786583e-05
6.6962068e-05
6.7026927e-05
6.6985668e-05
6.6838971e-05
6.6594272e-05
6.6257884e-05
6.5831268e-05
6.5317737e-05
6.4720822e-05
6.4043603e-05
6.3288987e-05
6.2459787e-05
6.1558627e-05
6.0587867e-05
5.9549612e-05
5.8445722e-05
5.7277808e-05
5.6047204e-05
5.4754915e-05
5.3401547e-05
5.1987216e-05
5.0511413e-05
4.8972752e-05
4.7368787e-05
4.5695365e-05
4.3945751e-05
4.2108757e-05
4.0166609e-05
3.8079664e-05
3.5784707e-05
3.2939267e-05
2.9906437e-05
2.76155e-05
2.6024579e-05
2.467099e-05
2.3369684e-05
2.2097649e-05
2.0850178e-05
1.9612278e-05
1.8370823e-05
1.7119687e-05
1.5856976e-05
1.4582424e-05
1.3296759e-05
1.2001845e-05
1.0700523e-05
9.3971454e-06
8.0959086e-06
6.8078164e-06
5.5305398e-06
4.3291077e-06
3.0836462e-06
2.6972988e-06
-4.9872718e-07
0.00048199806
0.00048833087
0.00050164254
0.00051890207
0.00054018671
0.00056560036
0.00059518159
0.00062908604
0.00066762606
0.00071126177
0.00076061106
0.00081649327
0.00087999414
0.00095260133
0.0010363278
0.001134208
0.0012502921
0.0013923001
0.0015686946
0.0018081399
0.0021230888
0.0026815964
0.0032981493
0.0071289096
0.0035964536
-0.0024684416
-0.0023094652
-0.001453806
-0.00099167915
-0.00085603966
-0.00074809748
-0.00063927227
-0.00055140244
-0.00048368739
-0.00042726135
-0.00037802628
-0.000335042
-0.00029754442
-0.00026453085
-0.00023514084
-0.00020880098
-0.00018509678
-0.00016366614
-0.00014419938
-0.00012645322
-0.00011023858
-9.5389371e-05
-8.1759925e-05
-6.9222517e-05
-5.7671695e-05
-4.7019458e-05
-3.7183996e-05
-2.8093577e-05
-1.9684935e-05
-1.1903688e-05
-4.701906e-06
1.9641164e-06
8.1339009e-06
1.3843559e-05
1.9125353e-05
2.4008122e-05
2.8518074e-05
3.2679398e-05
3.651432e-05
4.0043226e-05
4.3284645e-05
4.6255505e-05
4.8971484e-05
5.1447262e-05
5.369651e-05
5.5731691e-05
5.7564316e-05
5.9205106e-05
6.0664053e-05
6.1950475e-05
6.307306e-05
6.4039889e-05
6.4858507e-05
6.5536028e-05
6.6079146e-05
6.6494076e-05
6.6786755e-05
6.6962235e-05
6.7027088e-05
6.6985825e-05
6.6839122e-05
6.6594418e-05
6.6258024e-05
6.5831404e-05
6.5317867e-05
6.4720947e-05
6.4043723e-05
6.3289102e-05
6.2459897e-05
6.1558732e-05
6.0587967e-05
5.9549707e-05
5.8445812e-05
5.7277894e-05
5.6047285e-05
5.4754991e-05
5.3401619e-05
5.1987284e-05
5.0511476e-05
4.8972812e-05
4.7368842e-05
4.5695417e-05
4.3945799e-05
4.2108801e-05
4.016665e-05
3.8079701e-05
3.5784741e-05
3.2939295e-05
2.9906452e-05
2.7615507e-05
2.6024583e-05
2.4670992e-05
2.3369686e-05
2.209765e-05
2.0850179e-05
1.9612278e-05
1.8370823e-05
1.7119687e-05
1.5856976e-05
1.4582424e-05
1.3296759e-05
1.2001845e-05
1.0700524e-05
9.3971455e-06
8.0959087e-06
6.8078165e-06
5.5305399e-06
4.3291078e-06
3.0836462e-06
2.6972989e-06
-4.9872715e-07
0.00048199806
0.00048833087
0.00050164254
0.00051890207
0.00054018671
0.00056560036
0.00059518159
0.00062908605
0.00066762606
0.00071126177
0.00076061107
0.00081649328
0.00087999414
0.00095260134
0.0010363278
0.001134208
0.0012502921
0.0013923002
0.0015686946
0.00180814
0.0021230889
0.0026815965
0.0032981497
0.0071260432
0.0035993116
-0.0024672803
-0.0023093684
-0.0014537955
-0.00099166901
-0.00085603017
-0.00074809028
-0.0006392671
-0.00055139871
-0.00048368462
-0.00042725923
-0.00037802462
-0.00033504067
-0.00029754334
-0.00026452997
-0.00023514009
-0.00020880035
-0.00018509622
-0.00016366565
-0.00014419893
-0.00012645281
-0.0001102382
-9.5389025e-05
-8.1759598e-05
-6.9222206e-05
-5.7671397e-05
-4.701917e-05
-3.7183718e-05
-2.8093306e-05
-1.968467e-05
-1.1903428e-05
-4.7016515e-06
1.9643665e-06
8.134147e-06
1.3843801e-05
1.9125592e-05
2.4008358e-05
2.8518306e-05
3.2679627e-05
3.6514546e-05
4.0043448e-05
4.3284863e-05
4.625572e-05
4.8971696e-05
5.144747e-05
5.3696714e-05
5.5731891e-05
5.7564512e-05
5.9205298e-05
6.0664241e-05
6.1950659e-05
6.307324e-05
6.4040065e-05
6.4858678e-05
6.5536194e-05
6.6079308e-05
6.6494233e-05
6.6786908e-05
6.6962383e-05
6.7027232e-05
6.6985964e-05
6.6839257e-05
6.6594548e-05
6.625815e-05
6.5831524e-05
6.5317983e-05
6.4721058e-05
6.404383e-05
6.3289204e-05
6.2459995e-05
6.1558825e-05
6.0588056e-05
5.9549791e-05
5.8445892e-05
5.727797e-05
5.6047356e-05
5.4755059e-05
5.3401683e-05
5.1987344e-05
5.0511532e-05
4.8972864e-05
4.7368891e-05
4.5695462e-05
4.3945841e-05
4.2108841e-05
4.0166686e-05
3.8079735e-05
3.5784772e-05
3.2939319e-05
2.9906466e-05
2.7615513e-05
2.6024586e-05
2.4670995e-05
2.3369687e-05
2.2097651e-05
2.085018e-05
1.9612279e-05
1.8370824e-05
1.7119688e-05
1.5856976e-05
1.4582424e-05
1.3296759e-05
1.2001845e-05
1.0700524e-05
9.3971456e-06
8.0959088e-06
6.8078165e-06
5.5305399e-06
4.3291078e-06
3.0836462e-06
2.6972989e-06
-4.9872712e-07
0.00048199806
0.00048833087
0.00050164254
0.00051890207
0.00054018671
0.00056560036
0.00059518159
0.00062908605
0.00066762607
0.00071126177
0.00076061107
0.00081649328
0.00087999415
0.00095260135
0.0010363278
0.001134208
0.0012502922
0.0013923002
0.0015686946
0.00180814
0.002123089
0.0026815965
0.0032981504
0.0071230624
0.0036019397
-0.002465899
-0.0023092673
-0.0014537962
-0.00099166586
-0.00085602418
-0.00074808499
-0.00063926313
-0.0005513958
-0.00048368241
-0.0004272575
-0.00037802324
-0.00033503956
-0.00029754243
-0.0002645292
-0.00023513944
-0.00020879978
-0.00018509573
-0.0001636652
-0.00014419854
-0.00012645245
-0.00011023787
-9.5388709e-05
-8.17593e-05
-6.9221923e-05
-5.7671126e-05
-4.7018909e-05
-3.7183465e-05
-2.8093061e-05
-1.9684431e-05
-1.1903195e-05
-4.7014229e-06
1.9645907e-06
8.1343672e-06
1.3844018e-05
1.9125805e-05
2.4008567e-05
2.8518512e-05
3.267983e-05
3.6514745e-05
4.0043644e-05
4.3285056e-05
4.6255909e-05
4.8971881e-05
5.1447652e-05
5.3696893e-05
5.5732066e-05
5.7564684e-05
5.9205466e-05
6.0664405e-05
6.195082e-05
6.3073396e-05
6.4040217e-05
6.4858827e-05
6.5536339e-05
6.6079448e-05
6.649437e-05
6.6787041e-05
6.6962511e-05
6.7027356e-05
6.6986084e-05
6.6839373e-05
6.659466e-05
6.6258258e-05
6.5831628e-05
6.5318083e-05
6.4721154e-05
6.4043922e-05
6.3289292e-05
6.2460079e-05
6.1558905e-05
6.0588132e-05
5.9549864e-05
5.8445961e-05
5.7278035e-05
5.6047418e-05
5.4755117e-05
5.3401738e-05
5.1987395e-05
5.0511581e-05
4.8972909e-05
4.7368933e-05
4.5695501e-05
4.3945877e-05
4.2108874e-05
4.0166717e-05
3.8079763e-05
3.5784798e-05
3.2939339e-05
2.9906477e-05
2.7615518e-05
2.6024589e-05
2.4670996e-05
2.3369688e-05
2.2097652e-05
2.0850181e-05
1.961228e-05
1.8370824e-05
1.7119688e-05
1.5856976e-05
1.4582425e-05
1.329676e-05
1.2001845e-05
1.0700524e-05
9.3971457e-06
8.0959089e-06
6.8078166e-06
5.53054e-06
4.3291079e-06
3.0836463e-06
2.697299e-06
-4.9872708e-07
0.00048199806
0.00048833087
0.00050164254
0.00051890207
0.00054018671
0.00056560036
0.00059518159
0.00062908605
0.00066762607
0.00071126178
0.00076061107
0.00081649328
0.00087999415
0.00095260135
0.0010363279
0.001134208
0.0012502922
0.0013923002
0.0015686947
0.0018081401
0.002123089
0.0026815965
0.0032981512
0.0071199051
0.0036042759
-0.0024642894
-0.0023091554
-0.0014538071
-0.00099167
-0.00085602197
-0.00074808182
-0.00063926052
-0.00055139381
-0.00048368086
-0.00042725624
-0.0003780222
-0.00033503869
-0.00029754169
-0.00026452857
-0.00023513889
-0.0002087993
-0.0001850953
-0.00016366482
-0.00014419818
-0.00012645212
-0.00011023756
-9.5388425e-05
-8.1759031e-05
-6.9221667e-05
-5.7670881e-05
-4.7018674e-05
-3.7183238e-05
-2.809284e-05
-1.9684216e-05
-1.1902986e-05
-4.7012185e-06
1.9647907e-06
8.134563e-06
1.384421e-05
1.9125993e-05
2.4008752e-05
2.8518693e-05
3.2680007e-05
3.6514919e-05
4.0043816e-05
4.3285224e-05
4.6256074e-05
4.8972043e-05
5.144781e-05
5.3697048e-05
5.5732218e-05
5.7564832e-05
5.9205611e-05
6.0664546e-05
6.1950957e-05
6.307353e-05
6.4040348e-05
6.4858954e-05
6.5536462e-05
6.6079568e-05
6.6494486e-05
6.6787153e-05
6.696262e-05
6.7027462e-05
6.6986186e-05
6.6839471e-05
6.6594754e-05
6.6258348e-05
6.5831715e-05
6.5318167e-05
6.4721234e-05
6.4043999e-05
6.3289365e-05
6.2460149e-05
6.1558972e-05
6.0588195e-05
5.9549924e-05
5.8446018e-05
5.7278089e-05
5.6047469e-05
5.4755165e-05
5.3401783e-05
5.1987438e-05
5.0511621e-05
4.8972947e-05
4.7368968e-05
4.5695534e-05
4.3945908e-05
4.2108902e-05
4.0166743e-05
3.8079787e-05
3.578482e-05
3.2939356e-05
2.9906486e-05
2.7615523e-05
2.6024591e-05
2.4670998e-05
2.3369689e-05
2.2097653e-05
2.0850181e-05
1.961228e-05
1.8370825e-05
1.7119688e-05
1.5856977e-05
1.4582425e-05
1.329676e-05
1.2001846e-05
1.0700524e-05
9.3971458e-06
8.095909e-06
6.8078167e-06
5.5305401e-06
4.3291079e-06
3.0836463e-06
2.697299e-06
-4.9872704e-07
0.00048199806
0.00048833087
0.00050164254
0.00051890207
0.00054018671
0.00056560036
0.00059518159
0.00062908605
0.00066762607
0.00071126178
0.00076061108
0.00081649329
0.00087999416
0.00095260136
0.0010363279
0.001134208
0.0012502922
0.0013923002
0.0015686947
0.0018081402
0.0021230891
0.0026815965
0.0032981523
0.0071164992
0.0036063101
-0.0024624798
-0.002309024
-0.0014538264
-0.00099168165
-0.00085602384
-0.00074808097
-0.00063925943
-0.00055139289
-0.00048368006
-0.00042725553
-0.00037802156
-0.00033503812
-0.00029754119
-0.00026452811
-0.00023513848
-0.00020879892
-0.00018509495
-0.00016366449
-0.00014419788
-0.00012645184
-0.0001102373
-9.5388172e-05
-8.1758791e-05
-6.9221437e-05
-5.767066e-05
-4.7018461e-05
-3.7183032e-05
-2.8092641e-05
-1.9684023e-05
-1.1902797e-05
-4.7010349e-06
1.9649697e-06
8.1347378e-06
1.3844381e-05
1.912616e-05
2.4008915e-05
2.8518853e-05
3.2680164e-05
3.6515072e-05
4.0043965e-05
4.328537e-05
4.6256217e-05
4.8972182e-05
5.1447947e-05
5.3697181e-05
5.5732347e-05
5.7564958e-05
5.9205733e-05
6.0664666e-05
6.1951074e-05
6.3073643e-05
6.4040458e-05
6.485906e-05
6.5536566e-05
6.6079668e-05
6.6494583e-05
6.6787247e-05
6.6962711e-05
6.7027549e-05
6.698627e-05
6.6839552e-05
6.6594832e-05
6.6258423e-05
6.5831787e-05
6.5318235e-05
6.47213e-05
6.4044061e-05
6.3289425e-05
6.2460206e-05
6.1559026e-05
6.0588247e-05
5.9549973e-05
5.8446064e-05
5.7278133e-05
5.604751e-05
5.4755204e-05
5.3401819e-05
5.1987472e-05
5.0511652e-05
4.8972976e-05
4.7368996e-05
4.5695559e-05
4.3945931e-05
4.2108924e-05
4.0166763e-05
3.8079805e-05
3.5784837e-05
3.2939368e-05
2.9906492e-05
2.7615525e-05
2.6024593e-05
2.4671e-05
2.3369691e-05
2.2097654e-05
2.0850182e-05
1.9612281e-05
1.8370825e-05
1.7119689e-05
1.5856977e-05
1.4582425e-05
1.329676e-05
1.2001846e-05
1.0700524e-05
9.3971459e-06
8.0959091e-06
6.8078168e-06
5.5305401e-06
4.329108e-06
3.0836464e-06
2.6972991e-06
-4.98727e-07
0.00048199806
0.00048833087
0.00050164254
0.00051890207
0.00054018671
0.00056560036
0.00059518159
0.00062908605
0.00066762607
0.00071126178
0.00076061108
0.00081649329
0.00087999417
0.00095260138
0.0010363279
0.001134208
0.0012502922
0.0013923003
0.0015686948
0.0018081402
0.0021230892
0.0026815964
0.0032981538
0.0071127547
0.0036079697
-0.0024604704
-0.0023088611
-0.0014538514
-0.000991701
-0.00085603011
-0.00074808268
-0.00063926002
-0.00055139318
-0.00048368016
-0.00042725548
-0.00037802141
-0.00033503792
-0.00029754095
-0.00026452787
-0.00023513822
-0.00020879867
-0.0001850947
-0.00016366425
-0.00014419764
-0.00012645161
-0.00011023707
-9.5387954e-05
-8.175858e-05
-6.9221232e-05
-5.7670462e-05
-4.7018269e-05
-3.7182845e-05
-2.809246e-05
-1.9683847e-05
-1.1902626e-05
-4.7008689e-06
1.9651312e-06
8.134895e-06
1.3844534e-05
1.9126309e-05
2.400906e-05
2.8518994e-05
3.2680301e-05
3.6515206e-05
4.0044095e-05
4.3285497e-05
4.625634e-05
4.8972302e-05
5.1448063e-05
5.3697294e-05
5.5732457e-05
5.7565065e-05
5.9205837e-05
6.0664766e-05
6.195117e-05
6.3073737e-05
6.4040548e-05
6.4859147e-05
6.553665e-05
6.6079749e-05
6.6494661e-05
6.6787322e-05
6.6962783e-05
6.7027618e-05
6.6986336e-05
6.6839615e-05
6.6594893e-05
6.6258481e-05
6.5831842e-05
6.5318288e-05
6.472135e-05
6.4044109e-05
6.328947e-05
6.2460249e-05
6.1559067e-05
6.0588285e-05
5.955001e-05
5.8446099e-05
5.7278165e-05
5.6047541e-05
5.4755232e-05
5.3401846e-05
5.1987497e-05
5.0511676e-05
4.8972998e-05
4.7369016e-05
4.5695578e-05
4.3945949e-05
4.210894e-05
4.0166778e-05
3.8079819e-05
3.5784849e-05
3.2939376e-05
2.9906494e-05
2.7615527e-05
2.6024595e-05
2.4671001e-05
2.3369691e-05
2.2097654e-05
2.0850182e-05
1.9612281e-05
1.8370825e-05
1.7119689e-05
1.5856977e-05
1.4582425e-05
1.329676e-05
1.2001846e-05
1.0700524e-05
9.397146e-06
8.0959092e-06
6.8078169e-06
5.5305402e-06
4.3291081e-06
3.0836464e-06
2.6972992e-06
-4.9872696e-07
0.00048199806
0.00048833087
0.00050164254
0.00051890208
0.00054018671
0.00056560036
0.00059518159
0.00062908605
0.00066762608
0.00071126179
0.00076061109
0.0008164933
0.00087999418
0.00095260139
0.0010363279
0.0011342081
0.0012502923
0.0013923003
0.0015686948
0.0018081403
0.0021230894
0.0026815964
0.0032981557
0.0071085646
0.0036087496
-0.0024581414
-0.0023086499
-0.0014538784
-0.00099172812
-0.00085604111
-0.00074808716
-0.00063926252
-0.00055139487
-0.00048368131
-0.00042725622
-0.00037802186
-0.00033503817
-0.00029754107
-0.00026452789
-0.00023513818
-0.00020879857
-0.00018509457
-0.0001636641
-0.00014419748
-0.00012645144
-0.0001102369
-9.5387777e-05
-8.1758402e-05
-6.9221056e-05
-5.7670288e-05
-4.7018097e-05
-3.7182678e-05
-2.8092296e-05
-1.9683687e-05
-1.1902471e-05
-4.7007175e-06
1.9652783e-06
8.1350378e-06
1.3844672e-05
1.9126443e-05
2.400919e-05
2.851912e-05
3.2680423e-05
3.6515324e-05
4.0044209e-05
4.3285607e-05
4.6256446e-05
4.8972405e-05
5.1448162e-05
5.3697389e-05
5.5732549e-05
5.7565153e-05
5.9205922e-05
6.0664848e-05
6.1951249e-05
6.3073812e-05
6.404062e-05
6.4859217e-05
6.5536716e-05
6.6079812e-05
6.6494721e-05
6.6787379e-05
6.6962838e-05
6.7027671e-05
6.6986386e-05
6.6839662e-05
6.6594937e-05
6.6258523e-05
6.5831882e-05
6.5318326e-05
6.4721386e-05
6.4044142e-05
6.3289502e-05
6.2460278e-05
6.1559094e-05
6.0588311e-05
5.9550034e-05
5.8446121e-05
5.7278186e-05
5.604756e-05
5.4755251e-05
5.3401863e-05
5.1987512e-05
5.051169e-05
4.8973011e-05
4.7369028e-05
4.5695589e-05
4.3945959e-05
4.2108949e-05
4.0166786e-05
3.8079826e-05
3.5784856e-05
3.2939379e-05
2.9906493e-05
2.7615526e-05
2.6024595e-05
2.4671001e-05
2.3369692e-05
2.2097655e-05
2.0850183e-05
1.9612281e-05
1.8370826e-05
1.7119689e-05
1.5856977e-05
1.4582425e-05
1.329676e-05
1.2001846e-05
1.0700524e-05
9.3971461e-06
8.0959093e-06
6.8078169e-06
5.5305403e-06
4.3291081e-06
3.0836465e-06
2.6972992e-06
-4.9872691e-07
0.00048199806
0.00048833087
0.00050164254
0.00051890208
0.00054018671
0.00056560036
0.0005951816
0.00062908606
0.00066762608
0.00071126179
0.00076061109
0.00081649331
0.0008799942
0.00095260141
0.0010363279
0.0011342081
0.0012502923
0.0013923004
0.0015686949
0.0018081403
0.0021230895
0.0026815963
0.0032981582
0.0071038176
0.0036081536
-0.0024553534
-0.0023083679
-0.0014539017
-0.00099176276
-0.00085605716
-0.00074809464
-0.0006392671
-0.00055139815
-0.0004836837
-0.00042725791
-0.00037802304
-0.00033503899
-0.00029754163
-0.00026452826
-0.0002351384
-0.00020879869
-0.00018509462
-0.00016366409
-0.00014419742
-0.00012645135
-0.00011023679
-9.5387652e-05
-8.1758267e-05
-6.9220914e-05
-5.7670142e-05
-4.701795e-05
-3.718253e-05
-2.8092149e-05
-1.9683542e-05
-1.1902329e-05
-4.7005788e-06
1.9654133e-06
8.1351689e-06
1.3844799e-05
1.9126566e-05
2.4009309e-05
2.8519234e-05
3.2680533e-05
3.6515429e-05
4.004431e-05
4.3285704e-05
4.6256539e-05
4.8972493e-05
5.1448247e-05
5.369747e-05
5.5732626e-05
5.7565226e-05
5.9205991e-05
6.0664913e-05
6.1951311e-05
6.3073871e-05
6.4040676e-05
6.4859269e-05
6.5536765e-05
6.6079858e-05
6.6494765e-05
6.678742e-05
6.6962875e-05
6.7027707e-05
6.6986418e-05
6.6839692e-05
6.6594965e-05
6.6258549e-05
6.5831906e-05
6.5318347e-05
6.4721405e-05
6.4044161e-05
6.3289518e-05
6.2460293e-05
6.1559108e-05
6.0588324e-05
5.9550045e-05
5.8446131e-05
5.7278195e-05
5.6047568e-05
5.4755257e-05
5.3401869e-05
5.1987518e-05
5.0511695e-05
4.8973015e-05
4.7369031e-05
4.5695592e-05
4.3945961e-05
4.2108951e-05
4.0166788e-05
3.8079828e-05
3.5784857e-05
3.2939376e-05
2.9906487e-05
2.7615522e-05
2.6024594e-05
2.4671001e-05
2.3369692e-05
2.2097655e-05
2.0850183e-05
1.9612282e-05
1.8370826e-05
1.711969e-05
1.5856978e-05
1.4582426e-05
1.329676e-05
1.2001846e-05
1.0700524e-05
9.3971462e-06
8.0959094e-06
6.807817e-06
5.5305404e-06
4.3291082e-06
3.0836465e-06
2.6972993e-06
-4.9872686e-07
0.00048199805
0.00048833087
0.00050164254
0.00051890208
0.00054018671
0.00056560036
0.0005951816
0.00062908606
0.00066762609
0.0007112618
0.0007606111
0.00081649332
0.00087999421
0.00095260143
0.001036328
0.0011342081
0.0012502923
0.0013923004
0.0015686949
0.0018081404
0.0021230895
0.0026815961
0.0032981614
0.0070983876
0.0036065938
-0.0024520193
-0.0023079901
-0.0014539128
-0.00099180414
-0.00085607845
-0.00074810526
-0.00063927393
-0.0005514032
-0.0004836875
-0.00042726073
-0.00037802512
-0.00033504052
-0.00029754276
-0.00026452908
-0.00023513899
-0.0002087991
-0.00018509489
-0.00016366426
-0.00014419751
-0.00012645138
-0.00011023677
-9.5387601e-05
-8.175819e-05
-6.9220818e-05
-5.7670033e-05
-4.7017832e-05
-3.7182406e-05
-2.8092022e-05
-1.9683414e-05
-1.1902201e-05
-4.7004521e-06
1.9655377e-06
8.1352902e-06
1.3844917e-05
1.912668e-05
2.4009418e-05
2.8519339e-05
3.2680633e-05
3.6515525e-05
4.0044401e-05
4.328579e-05
4.625662e-05
4.897257e-05
5.1448319e-05
5.3697537e-05
5.5732689e-05
5.7565285e-05
5.9206046e-05
6.0664964e-05
6.1951358e-05
6.3073914e-05
6.4040715e-05
6.4859305e-05
6.5536798e-05
6.6079888e-05
6.6494791e-05
6.6787443e-05
6.6962896e-05
6.7027726e-05
6.6986434e-05
6.6839706e-05
6.6594976e-05
6.6258558e-05
6.5831913e-05
6.5318353e-05
6.4721409e-05
6.4044163e-05
6.3289519e-05
6.2460293e-05
6.1559106e-05
6.0588321e-05
5.9550041e-05
5.8446127e-05
5.727819e-05
5.6047563e-05
5.4755251e-05
5.3401863e-05
5.1987511e-05
5.0511688e-05
4.8973008e-05
4.7369024e-05
4.5695585e-05
4.3945955e-05
4.2108945e-05
4.0166781e-05
3.8079822e-05
3.5784851e-05
3.2939366e-05
2.9906475e-05
2.7615513e-05
2.602459e-05
2.4670999e-05
2.3369691e-05
2.2097655e-05
2.0850183e-05
1.9612281e-05
1.8370826e-05
1.711969e-05
1.5856978e-05
1.4582426e-05
1.3296761e-05
1.2001846e-05
1.0700525e-05
9.3971463e-06
8.0959094e-06
6.8078171e-06
5.5305404e-06
4.3291083e-06
3.0836466e-06
2.6972994e-06
-4.9872681e-07
0.00048199805
0.00048833087
0.00050164255
0.00051890208
0.00054018672
0.00056560037
0.0005951816
0.00062908606
0.00066762609
0.00071126181
0.00076061111
0.00081649334
0.00087999423
0.00095260145
0.001036328
0.0011342082
0.0012502924
0.0013923005
0.001568695
0.0018081404
0.0021230895
0.0026815956
0.0032981655
0.007092129
0.0036046243
-0.0024480024
-0.0023074867
-0.0014539003
-0.00099185051
-0.00085610498
-0.00074811901
-0.00063928304
-0.00055141014
-0.00048369289
-0.00042726486
-0.00037802826
-0.00033504292
-0.00029754458
-0.00026453046
-0.00023514003
-0.00020879988
-0.00018509546
-0.00016366466
-0.0001441978
-0.00012645156
-0.00011023688
-9.5387651e-05
-8.1758195e-05
-6.9220788e-05
-5.7669976e-05
-4.7017755e-05
-3.7182315e-05
-2.8091921e-05
-1.9683306e-05
-1.1902089e-05
-4.7003382e-06
1.9656517e-06
8.1354028e-06
1.3845027e-05
1.9126787e-05
2.4009521e-05
2.8519438e-05
3.2680727e-05
3.6515614e-05
4.0044485e-05
4.3285869e-05
4.6256694e-05
4.8972638e-05
5.1448382e-05
5.3697595e-05
5.5732742e-05
5.7565333e-05
5.9206089e-05
6.0665002e-05
6.1951392e-05
6.3073943e-05
6.404074e-05
6.4859326e-05
6.5536815e-05
6.6079902e-05
6.6494801e-05
6.678745e-05
6.69629e-05
6.7027727e-05
6.6986432e-05
6.6839701e-05
6.659497e-05
6.6258549e-05
6.5831902e-05
6.531834e-05
6.4721395e-05
6.4044148e-05
6.3289503e-05
6.2460276e-05
6.1559088e-05
6.0588302e-05
5.9550022e-05
5.8446107e-05
5.727817e-05
5.6047542e-05
5.4755231e-05
5.3401843e-05
5.1987491e-05
5.0511668e-05
4.8972989e-05
4.7369006e-05
4.5695567e-05
4.3945937e-05
4.2108928e-05
4.0166766e-05
3.8079807e-05
3.5784836e-05
3.2939348e-05
2.9906455e-05
2.76155e-05
2.6024583e-05
2.4670995e-05
2.3369689e-05
2.2097653e-05
2.0850182e-05
1.9612281e-05
1.8370825e-05
1.7119689e-05
1.5856978e-05
1.4582426e-05
1.3296761e-05
1.2001846e-05
1.0700525e-05
9.3971463e-06
8.0959095e-06
6.8078171e-06
5.5305405e-06
4.3291083e-06
3.0836466e-06
2.6972994e-06
-4.9872676e-07
0.00048199805
0.00048833088
0.00050164255
0.00051890208
0.00054018672
0.00056560037
0.00059518161
0.00062908607
0.0006676261
0.00071126182
0.00076061113
0.00081649335
0.00087999425
0.00095260148
0.001036328
0.0011342082
0.0012502924
0.0013923005
0.001568695
0.0018081403
0.0021230894
0.0026815947
0.0032981708
0.0070848762
0.0036023361
-0.0024430459
-0.002306821
-0.001453849
-0.00099189874
-0.0008561364
-0.00074813566
-0.00063929434
-0.00055141898
-0.00048369996
-0.00042727043
-0.00037803262
-0.00033504633
-0.00029754726
-0.00026453255
-0.00023514165
-0.00020880113
-0.00018509642
-0.0001636654
-0.00014419834
-0.00012645196
-0.00011023716
-9.5387842e-05
-8.1758313e-05
-6.9220848e-05
-5.7669991e-05
-4.7017735e-05
-3.7182269e-05
-2.8091854e-05
-1.9683225e-05
-1.1901997e-05
-4.70024e-06
1.9657539e-06
8.1355068e-06
1.3845131e-05
1.9126889e-05
2.4009621e-05
2.8519534e-05
3.2680819e-05
3.6515701e-05
4.0044566e-05
4.3285944e-05
4.6256764e-05
4.8972702e-05
5.144844e-05
5.3697647e-05
5.5732788e-05
5.7565373e-05
5.9206123e-05
6.0665031e-05
6.1951415e-05
6.3073962e-05
6.4040753e-05
6.4859334e-05
6.5536819e-05
6.6079901e-05
6.6494796e-05
6.6787442e-05
6.6962888e-05
6.7027711e-05
6.6986413e-05
6.683968e-05
6.6594945e-05
6.6258523e-05
6.5831874e-05
6.531831e-05
6.4721363e-05
6.4044114e-05
6.3289468e-05
6.246024e-05
6.1559052e-05
6.0588265e-05
5.9549984e-05
5.844607e-05
5.7278133e-05
5.6047505e-05
5.4755195e-05
5.3401807e-05
5.1987456e-05
5.0511634e-05
4.8972956e-05
4.7368974e-05
4.5695536e-05
4.3945907e-05
4.21089e-05
4.0166739e-05
3.8079781e-05
3.5784812e-05
3.293932e-05
2.9906425e-05
2.7615478e-05
2.6024571e-05
2.4670988e-05
2.3369684e-05
2.209765e-05
2.085018e-05
1.9612279e-05
1.8370824e-05
1.7119689e-05
1.5856977e-05
1.4582425e-05
1.329676e-05
1.2001846e-05
1.0700524e-05
9.3971462e-06
8.0959094e-06
6.8078171e-06
5.5305404e-06
4.3291083e-06
3.0836466e-06
2.6972994e-06
-4.9872674e-07
0.00048199805
0.00048833088
0.00050164255
0.00051890208
0.00054018672
0.00056560037
0.00059518161
0.00062908608
0.00066762611
0.00071126183
0.00076061114
0.00081649337
0.00087999427
0.0009526015
0.001036328
0.0011342083
0.0012502925
0.0013923005
0.0015686949
0.00180814
0.0021230891
0.0026815933
0.0032981777
0.0070764391
0.0035997797
-0.0024369947
-0.0023059521
-0.0014537395
-0.00099194348
-0.00085617177
-0.00074815469
-0.00063930744
-0.00055142955
-0.0004837087
-0.00042727753
-0.00037803832
-0.0003350509
-0.00029755091
-0.00026453547
-0.00023514398
-0.00020880298
-0.00018509788
-0.00016366654
-0.00014419923
-0.00012645265
-0.00011023768
-9.5388224e-05
-8.1758587e-05
-6.9221035e-05
-5.7670108e-05
-4.7017797e-05