/*--------------------------------*- C++ -*----------------------------------*\
  =========                 |
  \\      /  F ield         | OpenFOAM: The Open Source CFD Toolbox
   \\    /   O peration     | Website:  https://openfoam.org
    \\  /    A nd           | Version:  12
     \\/     M anipulation  |
\*---------------------------------------------------------------------------*/
FoamFile
{
    format      ascii;
    class       surfaceScalarField;
    location    "100";
    object      phi;
}
// * * * * * * * * * * * * * * * * * * * * * * * * * * * * * * * * * * * * * //

dimensions      [0 3 -1 0 0 0 0];

internalField   nonuniform List<scalar> 
14782
(
0.00078649862
7.0885018e-06
-0.00079358712
0.00077697841
9.5202088e-06
0.00076652358
1.0454831e-05
0.00075580964
1.0713937e-05
0.00074495387
1.0855778e-05
0.00073405687
1.0896992e-05
0.00072319901
1.0857862e-05
0.00071242384
1.0775172e-05
0.00070175872
1.0665119e-05
0.00069122808
1.053064e-05
0.0006808513
1.0376785e-05
0.00067064741
1.0203885e-05
0.0006606376
1.000981e-05
0.00065084535
9.7922481e-06
0.00064130176
9.5435944e-06
0.00063204993
9.2518248e-06
0.00062315204
8.8978924e-06
0.00061467703
8.4750127e-06
0.00060668322
7.9938054e-06
0.00059922097
7.4622525e-06
0.00059233444
6.8865277e-06
0.00058605814
6.2763036e-06
0.00058041603
5.642109e-06
0.00057541673
4.9992966e-06
0.00057104243
4.3743022e-06
0.00056724302
3.799415e-06
0.00056394393
3.2990812e-06
0.00056105199
2.8919468e-06
0.00055846305
2.5889402e-06
0.00055608035
2.3826995e-06
0.00055382676
2.2535868e-06
0.00055165037
2.1763937e-06
0.00054952009
2.1302728e-06
0.00054742069
2.0994019e-06
0.0005453437
2.0769954e-06
0.00054327912
2.0645816e-06
0.00054121623
2.0628883e-06
0.00053914514
2.0710914e-06
0.00053706039
2.0847478e-06
0.00053496425
2.0961392e-06
0.00053286435
2.0998959e-06
0.00053076925
2.0951026e-06
0.0005286858
2.0834481e-06
0.00052661718
2.0686216e-06
0.00052456521
2.0519712e-06
0.00052253153
2.0336766e-06
0.0005205177
2.0138359e-06
0.00051852496
1.99274e-06
0.0005165543
1.9706579e-06
0.00051460642
1.947878e-06
0.00051268111
1.925314e-06
0.00051077795
1.9031541e-06
0.00050889669
1.8812595e-06
0.00050703739
1.8593079e-06
0.00050519975
1.8376328e-06
0.00050338304
1.8167162e-06
0.00050158667
1.7963683e-06
0.00049981029
1.7763738e-06
0.00049805328
1.7570132e-06
0.0004963147
1.738576e-06
0.00049459388
1.7208293e-06
0.00049289022
1.7036512e-06
0.00049120278
1.6874438e-06
0.00048953061
1.672166e-06
0.00048787299
1.6576294e-06
0.00048622905
1.6439347e-06
0.00048459749
1.6315581e-06
0.00048297708
1.620409e-06
0.00048136648
1.6106071e-06
0.00047976357
1.6029067e-06
0.00047816599
1.5975761e-06
0.00047657109
1.5949035e-06
0.00047497532
1.5957734e-06
0.00047337435
1.6009638e-06
0.00047176331
1.6110427e-06
0.0004701362
1.6271056e-06
0.00046848578
1.6504256e-06
0.00046680387
1.6819097e-06
0.00046508104
1.7228267e-06
0.00046330638
1.7746575e-06
0.00046146799
1.8383968e-06
0.00045955287
1.9151228e-06
0.00045754716
2.0057041e-06
0.00045543701
2.110152e-06
0.00045320868
2.2283327e-06
0.00045084882
2.3598577e-06
0.00044834494
2.5038747e-06
0.00044568495
2.6599928e-06
0.0004428564
2.8285554e-06
0.00043984544
3.0109594e-06
0.00043663513
3.2103069e-06
0.00043320412
3.4310085e-06
0.00042952545
3.6786752e-06
0.00042556698
3.9584623e-06
0.00042128511
4.2818682e-06
0.00041665079
4.6343201e-06
0.00041154436
5.1064341e-06
0.00040608922
5.4551403e-06
0.00039917397
6.9152524e-06
6.4673037e-06
0.00082491229
6.8295411e-06
-0.00082465333
0.00082514531
9.2871803e-06
0.00082506573
1.0534415e-05
0.00082464955
1.1130114e-05
0.00082384284
1.166249e-05
0.00082260546
1.2134373e-05
0.00082093268
1.2530639e-05
0.00081881147
1.2896381e-05
0.00081623862
1.3237975e-05
0.00081321216
1.3557094e-05
0.00080973339
1.3855562e-05
0.00080580379
1.4133478e-05
0.00080142655
1.438706e-05
0.0007966032
1.4615589e-05
0.00079133556
1.4811235e-05
0.00078562107
1.4966317e-05
0.00077946522
1.5053743e-05
0.00077290792
1.5032309e-05
0.00076600612
1.4895611e-05
0.00075881587
1.4652502e-05
0.00075140439
1.4298003e-05
0.00074385386
1.3826843e-05
0.00073625688
1.3239086e-05
0.00072871428
1.2541894e-05
0.0007213377
1.1750887e-05
0.00071425042
1.0886687e-05
0.00070757283
9.9766737e-06
0.00070138746
9.0773163e-06
0.00069572151
8.254896e-06
0.00069055323
7.5509753e-06
0.00068582526
6.9815541e-06
0.00068145969
6.5419619e-06
0.00067737431
6.2156559e-06
0.00067350153
5.9721824e-06
0.0006697949
5.7836273e-06
0.00066622554
5.63394e-06
0.00066277829
5.5101352e-06
0.0006594438
5.4055805e-06
0.00065621282
5.315732e-06
0.00065307489
5.2340677e-06
0.00065001792
5.1568641e-06
0.00064702924
5.0837887e-06
0.00064409856
5.0141212e-06
0.00064121919
4.9479949e-06
0.00063838866
4.882498e-06
0.00063560662
4.8157175e-06
0.00063287227
4.7481929e-06
0.0006301835
4.6815044e-06
0.0006275379
4.6162586e-06
0.00062493377
4.5520135e-06
0.00062236978
4.4893003e-06
0.00061984486
4.4280749e-06
0.00061735785
4.368267e-06
0.0006149077
4.3094612e-06
0.00061249323
4.2520994e-06
0.00061011314
4.1968066e-06
0.00060776633
4.1431771e-06
0.00060545192
4.0907862e-06
0.00060316875
4.0401858e-06
0.00060091535
3.9919731e-06
0.00059869054
3.9456441e-06
0.00059649331
3.9008745e-06
0.00059432239
3.8583654e-06
0.00059217642
3.8181321e-06
0.00059005418
3.7798718e-06
0.00058795438
3.7437325e-06
0.00058587538
3.7105581e-06
0.00058381553
3.6802651e-06
0.00058177305
3.6530889e-06
0.00057974553
3.6304184e-06
0.00057773018
3.6129266e-06
0.00057572377
3.6013223e-06
0.00057372218
3.5973554e-06
0.00057172043
3.6027152e-06
0.00056971266
3.6188181e-06
0.00056769176
3.6480006e-06
0.00056564917
3.6930129e-06
0.00056357501
3.7560787e-06
0.00056145781
3.8400178e-06
0.00055928443
3.9480419e-06
0.00055704028
4.0825492e-06
0.00055470947
4.2459291e-06
0.00055227514
4.4400342e-06
0.00054972032
4.6649733e-06
0.00054702847
4.9201872e-06
0.00054418388
5.2044443e-06
0.00054117213
5.5156209e-06
0.00053797972
5.8524075e-06
0.00053459306
6.2152111e-06
0.00053099697
6.607054e-06
0.00052717241
7.034861e-06
0.00052309479
7.5086297e-06
0.0005187319
8.0415669e-06
0.00051404587
8.6444964e-06
0.00050898073
9.3470002e-06
0.00050351202
1.0103036e-05
0.00049745581
1.1162645e-05
0.0004911332
1.1777753e-05
0.00048238726
1.5661188e-05
1.3415059e-05
0.00085269945
6.539241e-06
-0.00085240915
0.00085311995
8.8666837e-06
0.00085348827
1.0166091e-05
0.00085377904
1.0839348e-05
0.0008540285
1.1413024e-05
0.00085422432
1.1938551e-05
0.00085438118
1.2373784e-05
0.00085449716
1.27804e-05
0.00085457315
1.3161981e-05
0.00085460355
1.3526697e-05
0.00085458239
1.3876721e-05
0.00085450111
1.4214756e-05
0.00085434893
1.4539242e-05
0.0008541118
1.4852717e-05
0.00085377097
1.5152075e-05
0.00085330302
1.5434267e-05
0.00085266379
1.5692969e-05
0.00085177582
1.5920281e-05
0.00085055748
1.6113946e-05
0.00084893581
1.6274176e-05
0.00084683382
1.6399992e-05
0.00084416969
1.6490975e-05
0.00084086176
1.6547015e-05
0.0008368345
1.6569149e-05
0.00083202686
1.6558528e-05
0.00082640003
1.6513519e-05
0.00081999329
1.6383416e-05
0.00081293598
1.613462e-05
0.00080541231
1.5778569e-05
0.00079765487
1.5308417e-05
0.00078990948
1.4726943e-05
0.00078240095
1.4050489e-05
0.0007753095
1.3307105e-05
0.00076874769
1.2533999e-05
0.0007627367
1.179461e-05
0.00075722375
1.1146893e-05
0.00075212201
1.061187e-05
0.00074733854
1.0189058e-05
0.00074279578
9.8584883e-06
0.00073844292
9.58693e-06
0.00073425166
9.3481246e-06
0.00073020671
9.1287355e-06
0.00072629795
8.92288e-06
0.00072251485
8.7311009e-06
0.00071884597
8.551376e-06
0.0007152793
8.3823822e-06
0.00071180333
8.2241656e-06
0.00070840854
8.076292e-06
0.00070508847
7.9363286e-06
0.00070183916
7.8013236e-06
0.00069865714
7.6713253e-06
0.00069553858
7.5466313e-06
0.0006924795
7.4273513e-06
0.00068947657
7.3123842e-06
0.00068652718
7.2014937e-06
0.00068362894
7.0950461e-06
0.00068077967
6.9924428e-06
0.00067797739
6.8930689e-06
0.00067522006
6.7975192e-06
0.00067250555
6.706481e-06
0.00066983201
6.6191812e-06
0.00066719777
6.5351191e-06
0.00066460091
6.4552197e-06
0.00066203954
6.3795066e-06
0.00065951187
6.3075383e-06
0.00065701614
6.2394703e-06
0.00065455025
6.1764439e-06
0.00065211214
6.1183709e-06
0.00064969965
6.0655804e-06
0.00064731003
6.0200446e-06
0.00064494007
5.9828852e-06
0.00064258611
5.9552842e-06
0.00064024359
5.9398734e-06
0.00063790695
5.9393574e-06
0.00063556959
5.9561734e-06
0.00063322355
5.9940383e-06
0.0006308592
6.0573661e-06
0.00062846532
6.1499632e-06
0.00062602892
6.2764154e-06
0.0006235351
6.4418577e-06
0.00062096735
6.6502974e-06
0.00061830777
6.9055151e-06
0.00061553748
7.2103216e-06
0.00061263764
7.5648125e-06
0.00060959017
7.967657e-06
0.00060637833
8.416281e-06
0.00060298711
8.9068416e-06
0.00059940272
9.4367984e-06
0.00059561132
1.0006614e-05
0.00059159702
1.0621351e-05
0.0005873393
1.1292583e-05
0.00058281085
1.2037084e-05
0.00057797517
1.2877243e-05
0.00057278928
1.3830392e-05
0.00056718876
1.4947513e-05
0.00056114742
1.6144376e-05
0.00055445038
1.7859691e-05
0.00054749866
1.872947e-05
0.00053765624
2.5503607e-05
2.0879693e-05
0.00088127921
6.3359701e-06
-0.00088107594
0.00088167216
8.4737371e-06
0.00088205049
9.7877572e-06
0.00088235671
1.0533135e-05
0.000882622
1.1147735e-05
0.00088284804
1.1712511e-05
0.00088304346
1.2178362e-05
0.0008832169
1.2606959e-05
0.00088337355
1.3005332e-05
0.00088351564
1.3384612e-05
0.00088364539
1.3746963e-05
0.00088376454
1.409561e-05
0.00088387348
1.4430304e-05
0.00088397273
1.4753464e-05
0.00088406173
1.5063074e-05
0.00088413958
1.535642e-05
0.0008842044
1.5628143e-05
0.00088425249
1.5872197e-05
0.00088427904
1.6087391e-05
0.00088427798
1.6275235e-05
0.00088424094
1.6437032e-05
0.00088415637
1.6575549e-05
0.00088400842
1.6694962e-05
0.00088377517
1.6802405e-05
0.00088342441
1.690929e-05
0.00088290665
1.7031274e-05
0.00088211439
1.7175678e-05
0.0008809003
1.7348712e-05
0.00087912078
1.7558083e-05
0.000876631
1.77982e-05
0.00087330319
1.8054758e-05
0.00086904935
1.8304323e-05
0.00086384023
1.8516229e-05
0.00085776585
1.8608378e-05
0.00085104083
1.8519635e-05
0.00084393272
1.8254998e-05
0.00083672357
1.7821017e-05
0.00082966777
1.7244861e-05
0.00082295762
1.6568635e-05
0.00081669346
1.5851092e-05
0.00081087707
1.516452e-05
0.00080544802
1.4557779e-05
0.00080032466
1.4046244e-05
0.00079543472
1.362104e-05
0.00079073161
1.3254481e-05
0.00078619142
1.2922575e-05
0.00078180235
1.2613236e-05
0.00077755543
1.2323215e-05
0.0007734404
1.2051359e-05
0.00076944561
1.1796116e-05
0.00076555905
1.1557881e-05
0.0007617703
1.1335379e-05
0.0007580714
1.1126258e-05
0.00075445668
1.0927104e-05
0.00075092139
1.0736777e-05
0.00074746071
1.055573e-05
0.00074407
1.0383154e-05
0.00074074534
1.0217725e-05
0.00073748339
1.005947e-05
0.00073428098
9.908895e-06
0.00073113514
9.765016e-06
0.00072804313
9.6271362e-06
0.00072500212
9.4962303e-06
0.00072200942
9.372204e-06
0.00071906252
9.254441e-06
0.00071615893
9.1430562e-06
0.00071329598
9.0393934e-06
0.00071047105
8.9433022e-06
0.00070768145
8.8551808e-06
0.00070492394
8.7775488e-06
0.00070219486
8.7119678e-06
0.00069949004
8.6601083e-06
0.0006968044
8.6255117e-06
0.00069413178
8.6119785e-06
0.00069146486
8.6230957e-06
0.0006887948
8.6640956e-06
0.00068611095
8.7412155e-06
0.00068340087
8.8600395e-06
0.0006806502
9.0270892e-06
0.0006778425
9.2495557e-06
0.00067495965
9.5331443e-06
0.00067198217
9.8830028e-06
0.00066888972
1.0302764e-05
0.00066566225
1.0792288e-05
0.0006622808
1.1349108e-05
0.00065872822
1.1968861e-05
0.00065498942
1.2645639e-05
0.00065105065
1.337557e-05
0.00064689786
1.4159406e-05
0.00064251435
1.5004855e-05
0.00063787784
1.5929094e-05
0.00063295804
1.6956889e-05
0.00062771408
1.8121202e-05
0.00062209766
1.9446814e-05
0.00061603709
2.1008077e-05
0.000609502
2.267947e-05
0.00060225783
2.5103863e-05
0.00059474967
2.6237627e-05
0.00058401528
3.6237996e-05
2.8843429e-05
0.00091085754
6.1669814e-06
-0.00091068855
0.00091120113
8.1301422e-06
0.00091154839
9.4405039e-06
0.00091184164
1.0239882e-05
0.00091210082
1.0888553e-05
0.00091233446
1.1478875e-05
0.00091253826
1.1974563e-05
0.00091272403
1.242119e-05
0.00091289371
1.2835644e-05
0.00091305012
1.322821e-05
0.00091319527
1.3601812e-05
0.00091333058
1.3960293e-05
0.00091345697
1.4303913e-05
0.00091357575
1.4634691e-05
0.00091368774
1.495108e-05
0.0009137936
1.525056e-05
0.0009138931
1.5528644e-05
0.0009139851
1.5780198e-05
0.00091406862
1.600387e-05
0.00091414295
1.620091e-05
0.00091420708
1.6372896e-05
0.00091425961
1.6523017e-05
0.00091429881
1.665576e-05
0.00091432293
1.6778293e-05
0.00091433039
1.6901827e-05
0.00091432022
1.7041448e-05
0.00091428921
1.7206685e-05
0.00091423158
1.7406343e-05
0.00091413857
1.765109e-05
0.00091399533
1.7941443e-05
0.00091377825
1.8271839e-05
0.00091344826
1.8634306e-05
0.00091294027
1.9024223e-05
0.0009121188
1.9429852e-05
0.00091079767
1.9840757e-05
0.00090880031
2.0252357e-05
0.00090597093
2.0650402e-05
0.0009022
2.1015791e-05
0.00089746472
2.1303912e-05
0.00089188429
2.1431528e-05
0.00088569632
2.1352492e-05
0.00087918223
2.1071869e-05
0.00087261899
2.0609483e-05
0.00086623165
2.0008381e-05
0.00086015198
1.9334151e-05
0.00085440989
1.8664661e-05
0.0008489698
1.805333e-05
0.00084377229
1.7520721e-05
0.00083876697
1.7056682e-05
0.00083392442
1.6638663e-05
0.00082923092
1.6251382e-05
0.00082467888
1.5887419e-05
0.00082026017
1.5544963e-05
0.00081596483
1.5222443e-05
0.00081178216
1.4919451e-05
0.00080770247
1.4635422e-05
0.0008037183
1.4367325e-05
0.00079982408
1.4111936e-05
0.00079601487
1.3868685e-05
0.00079228558
1.3638185e-05
0.00078863149
1.341911e-05
0.00078504851
1.3210113e-05
0.00078153282
1.3011921e-05
0.00077808071
1.2824308e-05
0.00077468866
1.2646496e-05
0.00077135329
1.2478428e-05
0.00076807118
1.2321502e-05
0.00076483903
1.2175453e-05
0.00076165348
1.2040733e-05
0.00075851067
1.1920352e-05
0.00075540638
1.1816261e-05
0.00075233588
1.1730608e-05
0.00074929353
1.1667861e-05
0.00074627254
1.1632968e-05
0.00074326488
1.1630758e-05
0.00074026088
1.1668092e-05
0.00073724895
1.1753153e-05
0.00073421554
1.1893443e-05
0.00073114509
1.2097544e-05
0.00072801985
1.237479e-05
0.00072482039
1.2732607e-05
0.00072152596
1.3177438e-05
0.00071811516
1.3713565e-05
0.00071456708
1.4340365e-05
0.00071086227
1.5053916e-05
0.0007069834
1.584773e-05
0.0007029154
1.6713635e-05
0.00069864452
1.7646458e-05
0.00069415633
1.8647589e-05
0.00068943313
1.9728057e-05
0.00068445064
2.0911584e-05
0.00067917546
2.2232068e-05
0.00067356238
2.3734286e-05
0.00066755778
2.5451411e-05
0.00066108333
2.7482529e-05
0.00065410341
2.9659384e-05
0.00064636854
3.2838734e-05
0.00063835342
3.4252753e-05
0.00062683525
4.7756164e-05
3.7283821e-05
0.00094141497
6.024067e-06
-0.00094127205
0.00094171698
7.8281284e-06
0.00094203924
9.1182422e-06
0.0009423222
9.9569255e-06
0.00094257663
1.0634127e-05
0.00094280928
1.1246221e-05
0.00094301534
1.17685e-05
0.00094320354
1.2232995e-05
0.00094337633
1.2662856e-05
0.00094353632
1.3068215e-05
0.00094368547
1.3452663e-05
0.00094382563
1.382013e-05
0.00094395777
1.4171772e-05
0.00094408309
1.4509372e-05
0.0009442023
1.4831871e-05
0.00094431587
1.5136985e-05
0.0009444237
1.5420814e-05
0.00094452502
1.5678879e-05
0.00094461908
1.590981e-05
0.00094470516
1.611483e-05
0.00094478251
1.6295553e-05
0.00094485067
1.6454849e-05
0.00094490925
1.6597188e-05
0.00094495777
1.6729774e-05
0.00094499642
1.6863169e-05
0.00094502629
1.7011584e-05
0.00094504792
1.7185053e-05
0.00094506208
1.7392183e-05
0.00094507007
1.7643103e-05
0.00094507214
1.7939375e-05
0.00094506736
1.8276615e-05
0.0009450534
1.8648264e-05
0.00094502698
1.905065e-05
0.00094498084
1.9475983e-05
0.00094490202
1.9919578e-05
0.00094477175
2.0382629e-05
0.00094456094
2.0861218e-05
0.00094422399
2.1352739e-05
0.0009436738
2.1854101e-05
0.00094275123
2.2354094e-05
0.00094126108
2.2842644e-05
0.00093902277
2.3310182e-05
0.00093589335
2.3738906e-05
0.00093181332
2.4088409e-05
0.00092687001
2.4277461e-05
0.00092127889
2.4255778e-05
0.00091530771
2.4024508e-05
0.00090922599
2.3602445e-05
0.00090324522
2.3037454e-05
0.00089747844
2.2405435e-05
0.00089194824
2.1781586e-05
0.00088662692
2.1208745e-05
0.00088147636
2.0695521e-05
0.00087647112
2.0227679e-05
0.00087160007
1.9790507e-05
0.00086685844
1.9377042e-05
0.00086224122
1.8984552e-05
0.00085774106
1.8612096e-05
0.00085334945
1.8260291e-05
0.00084905861
1.7929025e-05
0.00084486261
1.7615111e-05
0.00084075673
1.7315999e-05
0.00083673612
1.7032527e-05
0.00083279578
1.6764647e-05
0.00082893105
1.6511222e-05
0.00082513779
1.6271695e-05
0.00082141183
1.6047454e-05
0.0008177491
1.5838189e-05
0.00081414547
1.5644365e-05
0.00081059644
1.5469375e-05
0.00080709721
1.5315497e-05
0.00080364247
1.5185348e-05
0.00080022602
1.508431e-05
0.00079684049
1.5018495e-05
0.00079347721
1.4994041e-05
0.00079012578
1.5019517e-05
0.0007867738
1.5105138e-05
0.00078340682
1.5260416e-05
0.00078000828
1.5496083e-05
0.0007765594
1.5823672e-05
0.00077303968
1.625233e-05
0.0007694274
1.6789714e-05
0.00076570036
1.7440612e-05
0.00076183701
1.8203714e-05
0.00075781752
1.9073403e-05
0.00075362439
2.0040861e-05
0.00074924247
2.1095553e-05
0.00074465781
2.2231116e-05
0.00073985546
2.3449947e-05
0.0007348165
2.4767012e-05
0.00072951466
2.6213422e-05
0.00072391351
2.7833222e-05
0.0007179637
2.9684093e-05
0.00071160654
3.1808573e-05
0.00070475753
3.4331546e-05
0.00069737519
3.7041716e-05
0.00068919777
4.1016154e-05
0.00068072007
4.2730458e-05
0.00066850023
5.9975998e-05
4.6172857e-05
0.00097296461
5.9079822e-06
-0.00097284853
0.00097323436
7.5583788e-06
0.00097353744
8.815165e-06
0.00097381263
9.6817357e-06
0.00097406341
1.0383343e-05
0.00097429548
1.101416e-05
0.00097450449
1.1559486e-05
0.00097469582
1.2041663e-05
0.00097487247
1.2486211e-05
0.00097503663
1.2904048e-05
0.00097519007
1.3299224e-05
0.00097533451
1.3675694e-05
0.00097547096
1.4035318e-05
0.00097560056
1.4379774e-05
0.00097572403
1.4708406e-05
0.0009758418
1.5019211e-05
0.0009759538
1.5308812e-05
0.00097605936
1.5573319e-05
0.00097615781
1.5811362e-05
0.00097624863
1.6024009e-05
0.00097633127
1.6212918e-05
0.00097640523
1.6380887e-05
0.00097647009
1.6532332e-05
0.00097652563
1.667423e-05
0.00097657205
1.6816753e-05
0.00097661046
1.6973166e-05
0.00097664213
1.7153388e-05
0.00097666841
1.7365901e-05
0.00097669132
1.7620193e-05
0.00097671235
1.7918343e-05
0.00097673226
1.8256708e-05
0.00097675107
1.8629454e-05
0.00097676874
1.9032975e-05
0.00097678424
1.9460486e-05
0.00097679604
1.9907772e-05
0.00097680259
2.0376086e-05
0.00097680105
2.0862758e-05
0.00097678769
2.1366097e-05
0.00097675691
2.1884876e-05
0.00097669725
2.2413759e-05
0.00097658954
2.2950355e-05
0.00097640473
2.3494989e-05
0.00097609719
2.4046442e-05
0.00097558131
2.4604295e-05
0.00097469969
2.5159082e-05
0.00097325499
2.5700479e-05
0.00097106396
2.6215531e-05
0.00096798073
2.6685679e-05
0.00096397742
2.7040765e-05
0.00095918014
2.7202718e-05
0.00095381162
2.7150096e-05
0.00094813708
2.688329e-05
0.00094239738
2.6435224e-05
0.00093675022
2.5874838e-05
0.00093125807
2.5282655e-05
0.00092592085
2.4714262e-05
0.00092071724
2.4188159e-05
0.00091563179
2.3697549e-05
0.00091065978
2.3232298e-05
0.00090580089
2.2787919e-05
0.00090105326
2.2362737e-05
0.00089641206
2.19572e-05
0.00089187094
2.1573649e-05
0.00088742425
2.1211337e-05
0.00088306756
2.0867912e-05
0.00087879674
2.0542517e-05
0.00087460708
2.0237113e-05
0.00087049381
1.9951458e-05
0.00086645234
1.968583e-05
0.00086247778
1.9443938e-05
0.00085856483
1.9228448e-05
0.00085470774
1.9042439e-05
0.00085089989
1.8892161e-05
0.00084713349
1.8784893e-05
0.00084339939
1.8728145e-05
0.00083968666
1.8732245e-05
0.00083598231
1.8809484e-05
0.00083227128
1.8971447e-05
0.00082853627
1.9231091e-05
0.00082475776
1.9602189e-05
0.00082091447
2.0095616e-05
0.00081698398
2.0720205e-05
0.00081294343
2.1481162e-05
0.00080877077
2.2376375e-05
0.00080444576
2.3398415e-05
0.00079995059
2.4536032e-05
0.00079526983
2.5776309e-05
0.00079038912
2.711182e-05
0.0007852928
2.8546273e-05
0.00077996075
3.0099064e-05
0.0007743648
3.1809365e-05
0.00076846581
3.3732217e-05
0.00076221073
3.593917e-05
0.00075553616
3.8483142e-05
0.00074835195
4.151576e-05
0.00074061032
4.4783341e-05
0.00073203914
4.9587341e-05
0.00072314503
5.1624562e-05
0.00071029987
7.282116e-05
5.5476337e-05
0.00100558
5.8101828e-06
-0.0010054822
0.0010058178
7.3206674e-06
0.0010060985
8.5344701e-06
0.0010063626
9.4175705e-06
0.0010066077
1.0138308e-05
0.0010068377
1.078408e-05
0.0010070484
1.1348812e-05
0.0010072422
1.18479e-05
0.0010074219
1.2306431e-05
0.0010075896
1.2736358e-05
0.0010077468
1.3142094e-05
0.0010078949
1.3527564e-05
0.0010080351
1.3895145e-05
0.0010081683
1.424652e-05
0.0010082954
1.4581359e-05
0.0010084166
1.4897958e-05
0.001008532
1.5193414e-05
0.001008641
1.5464379e-05
0.0010087428
1.5709533e-05
0.001008837
1.5929793e-05
0.0010089231
1.6126827e-05
0.0010090006
1.6303384e-05
0.0010090691
1.646382e-05
0.0010091285
1.6614889e-05
0.0010091789
1.6766274e-05
0.0010092217
1.6930401e-05
0.001009258
1.7117113e-05
0.0010092892
1.7334689e-05
0.0010093174
1.7591985e-05
0.0010093442
1.7891526e-05
0.0010093707
1.8230256e-05
0.0010093972
1.8602889e-05
0.0010094243
1.9005929e-05
0.0010094514
1.9433324e-05
0.0010094782
1.9881005e-05
0.0010095045
2.0349793e-05
0.0010095298
2.0837481e-05
0.0010095534
2.1342445e-05
0.0010095747
2.1863566e-05
0.0010095921
2.2396401e-05
0.0010096033
2.2939198e-05
0.0010096052
2.349307e-05
0.0010095934
2.4058231e-05
0.0010095614
2.4636287e-05
0.0010094958
2.5224621e-05
0.0010093741
2.5822251e-05
0.0010091599
2.6429672e-05
0.001008798
2.7047617e-05
0.0010081691
2.7669617e-05
0.0010070881
2.8283793e-05
0.0010053596
2.8878537e-05
0.0010028071
2.9435818e-05
0.00099934457
2.9897755e-05
0.00099503686
3.0182545e-05
0.00099007254
3.0246984e-05
0.00098470463
3.0082165e-05
0.00097917938
2.9713412e-05
0.00097366776
2.9209172e-05
0.00096824684
2.8653216e-05
0.00096293014
2.8104618e-05
0.00095770939
2.7583491e-05
0.00095258009
2.7086498e-05
0.00094754487
2.6608866e-05
0.00094260719
2.6149023e-05
0.00093776688
2.5708221e-05
0.00093302055
2.5288841e-05
0.00092836382
2.4893849e-05
0.00092379291
2.4522361e-05
0.00091930419
2.4174558e-05
0.00091489298
2.3855144e-05
0.00091055397
2.3567458e-05
0.00090628147
2.331494e-05
0.00090206894
2.3104691e-05
0.00089790853
2.2945298e-05
0.00089379095
2.2845724e-05
0.00088970513
2.281807e-05
0.00088563787
2.2876746e-05
0.00088157383
2.3035483e-05
0.00087749539
2.3309527e-05
0.00087338263
2.3714953e-05
0.00086921384
2.4264404e-05
0.00086496613
2.4967917e-05
0.00086061616
2.5831128e-05
0.00085614141
2.6851124e-05
0.00085152116
2.8018669e-05
0.0008467371
2.9320092e-05
0.00084177328
3.0740127e-05
0.00083661472
3.2270381e-05
0.00083124492
3.3916071e-05
0.00082564266
3.5701332e-05
0.00081977817
3.7673855e-05
0.00081361005
3.9900337e-05
0.00080708218
4.2467035e-05
0.00080012701
4.5438316e-05
0.00079264929
4.8993477e-05
0.00078459463
5.2837999e-05
0.00077568209
5.8499879e-05
0.00076642223
6.0884428e-05
0.00075303026
8.6213124e-05
6.5153849e-05
0.0010392854
5.7255223e-06
-0.0010392007
0.0010394957
7.1103594e-06
0.001039755
8.2751739e-06
0.0010400077
9.1647866e-06
0.0010402465
9.8995863e-06
0.0010404735
1.0557011e-05
0.0010406845
1.1137832e-05
0.0010408798
1.1652599e-05
0.0010410619
1.2124323e-05
0.0010412325
1.2565777e-05
0.0010413928
1.2981751e-05
0.0010415443
1.3376102e-05
0.0010416879
1.3751564e-05
0.0010418245
1.4109885e-05
0.0010419549
1.4451005e-05
0.0010420793
1.4773515e-05
0.0010421978
1.507494e-05
0.0010423098
1.5352417e-05
0.0010424146
1.5604713e-05
0.0010425117
1.5832624e-05
0.0010426008
1.6037809e-05
0.0010426812
1.6222972e-05
0.0010427526
1.6392389e-05
0.0010428149
1.6552594e-05
0.0010428684
1.6712792e-05
0.0010429142
1.6884629e-05
0.0010429535
1.7077805e-05
0.0010429877
1.7300412e-05
0.001043019
1.7560733e-05
0.0010430489
1.7861611e-05
0.0010430786
1.8200577e-05
0.0010431086
1.8572886e-05
0.0010431394
1.897514e-05
0.0010431708
1.9401906e-05
0.0010432026
1.9849252e-05
0.0010432347
2.031763e-05
0.0010432671
2.0805126e-05
0.0010432995
2.131002e-05
0.0010433319
2.1831179e-05
0.0010433636
2.2364654e-05
0.0010433941
2.2908753e-05
0.0010434227
2.3464483e-05
0.0010434486
2.4032302e-05
0.001043471
2.4613902e-05
0.0010434881
2.520751e-05
0.0010434973
2.5813001e-05
0.0010434948
2.6432188e-05
0.0010434752
2.706721e-05
0.0010434283
2.7716541e-05
0.0010433343
2.8377845e-05
0.0010431605
2.9052292e-05
0.0010428564
2.9739867e-05
0.0010423183
3.043594e-05
0.0010413721
3.1128737e-05
0.0010398151
3.1803997e-05
0.0010374536
3.2443598e-05
0.0010341838
3.2983221e-05
0.0010300558
3.3337157e-05
0.0010252502
3.3458825e-05
0.001020022
3.3332797e-05
0.0010146155
3.299007e-05
0.0010091922
3.250978e-05
0.0010038215
3.1979519e-05
0.0009985171
3.1453449e-05
0.00099327908
3.0946245e-05
0.00098811269
3.0455226e-05
0.00098302588
2.9980661e-05
0.00097802308
2.9525164e-05
0.0009731038
2.9093841e-05
0.00096826497
2.8693973e-05
0.00096350329
2.8329138e-05
0.000958815
2.800323e-05
0.00095419471
2.7724976e-05
0.00094963529
2.7504719e-05
0.00094512811
2.7352908e-05
0.0009406627
2.7283477e-05
0.00093622631
2.7313138e-05
0.0009318039
2.7457893e-05
0.00092737807
2.7735356e-05
0.000922929
2.8164019e-05
0.00091843499
2.8758417e-05
0.000913873
2.9529909e-05
0.00090921944
3.048469e-05
0.00090445137
3.161919e-05
0.00089954752
3.2922517e-05
0.00089448892
3.43787e-05
0.00088925884
3.5970199e-05
0.00088384151
3.7687716e-05
0.00087821955
3.9538031e-05
0.00087237076
4.1550117e-05
0.00086626422
4.37804e-05
0.00085985688
4.6307677e-05
0.00085309031
4.9233601e-05
0.00084589352
5.263511e-05
0.00083816688
5.6720116e-05
0.00082984921
6.1155666e-05
0.00082065226
6.7696831e-05
0.00081108262
7.0454069e-05
0.00079722835
0.00010006739
7.5158634e-05
0.0010741138
5.6507254e-06
-0.001074039
0.0010743007
6.9234695e-06
0.00107454
8.0359386e-06
0.0010747814
8.9233991e-06
0.0010750136
9.6673858e-06
0.0010752371
1.0333453e-05
0.0010754477
1.0927246e-05
0.0010756442
1.1456124e-05
0.0010758283
1.1940192e-05
0.0010760015
1.2392561e-05
0.0010761649
1.2818409e-05
0.0010763195
1.3221493e-05
0.0010764663
1.3604755e-05
0.0010766061
1.3970036e-05
0.0010767396
1.4317509e-05
0.0010768671
1.464604e-05
0.0010769885
1.4953544e-05
0.0010771033
1.5237595e-05
0.001077211
1.5497075e-05
0.0010773109
1.5732681e-05
0.0010774027
1.5946056e-05
0.0010774858
1.613986e-05
0.0010775599
1.6318276e-05
0.0010776249
1.6487613e-05
0.001077681
1.6656621e-05
0.0010777294
1.6836224e-05
0.0010777713
1.7035918e-05
0.0010778081
1.726361e-05
0.0010778418
1.7527081e-05
0.001077874
1.7829411e-05
0.0010779059
1.8168686e-05
0.0010779381
1.8540686e-05
0.0010779711
1.8942143e-05
0.0010780048
1.9368172e-05
0.001078039
1.9815007e-05
0.0010780739
2.0282736e-05
0.0010781094
2.0769672e-05
0.0010781454
2.1274057e-05
0.0010781818
2.1794699e-05
0.0010782184
2.2328044e-05
0.0010782548
2.2872376e-05
0.0010782907
2.3428614e-05
0.0010783258
2.3997242e-05
0.0010783599
2.4579717e-05
0.0010783928
2.5174671e-05
0.0010784237
2.5782078e-05
0.0010784521
2.6403777e-05
0.0010784773
2.7042025e-05
0.0010784978
2.7696003e-05
0.0010785113
2.8364361e-05
0.0010785141
2.9049458e-05
0.001078501
2.9752968e-05
0.0010784625
3.0474528e-05
0.0010783794
3.1211791e-05
0.0010782187
3.1964658e-05
0.0010779283
3.2733995e-05
0.0010773976
3.3513935e-05
0.0010764428
3.429204e-05
0.0010748493
3.5052272e-05
0.0010724135
3.5768556e-05
0.0010690443
3.6359316e-05
0.0010648213
3.6732796e-05
0.001059954
3.6846833e-05
0.0010547146
3.6692842e-05
0.001049334
3.6326836e-05
0.0010439411
3.5848141e-05
0.00103858
3.534171e-05
0.0010332594
3.4845747e-05
0.0010279869
3.4366386e-05
0.0010227739
3.3906989e-05
0.0010176285
3.3474504e-05
0.0010125524
3.3079308e-05
0.0010075432
3.273419e-05
0.0010025968
3.2451108e-05
0.00099770756
3.2242177e-05
0.00099286704
3.2124001e-05
0.000988064
3.211617e-05
0.00098328479
3.2237105e-05
0.0009785132
3.2506953e-05
0.00097373027
3.294694e-05
0.00096891494
3.3573754e-05
0.00096404455
3.4400294e-05
0.00095909563
3.5433607e-05
0.00095404504
3.6669788e-05
0.00094887095
3.80966e-05
0.00094355363
3.9696026e-05
0.00093807543
4.1448398e-05
0.00093241961
4.3343535e-05
0.00092656793
4.5389709e-05
0.00092049744
4.762061e-05
0.00091417649
5.0101353e-05
0.00090756114
5.292302e-05
0.00090059156
5.620318e-05
0.0008931942
6.003247e-05
0.00088526593
6.4648386e-05
0.00087673888
6.9682721e-05
0.00086731896
7.7116748e-05
0.00085750101
8.0272017e-05
0.00084327697
0.00011429144
8.5437407e-05
0.0011101027
5.5835123e-06
-0.0011100355
0.0011102696
6.756607e-06
0.0011104901
7.8154576e-06
0.00111072
8.6935091e-06
0.0011109454
9.441979e-06
0.001111165
1.0113826e-05
0.0011113746
1.071766e-05
0.0011115719
1.1258859e-05
0.0011117577
1.1754321e-05
0.0011119333
1.2216935e-05
0.0011120995
1.2652224e-05
0.0011122572
1.3063832e-05
0.0011124072
1.3454785e-05
0.0011125502
1.3827014e-05
0.0011126868
1.418089e-05
0.0011128173
1.4515539e-05
0.0011129416
1.4829229e-05
0.0011130593
1.5119923e-05
0.0011131697
1.5386634e-05
0.0011132724
1.5629987e-05
0.0011133669
1.5851598e-05
0.0011134527
1.6054085e-05
0.0011135294
1.6241528e-05
0.001113597
1.6420007e-05
0.0011136558
1.6597836e-05
0.0011137068
1.6785275e-05
0.0011137511
1.6991564e-05
0.0011137903
1.7224428e-05
0.0011138262
1.7491201e-05
0.0011138604
1.7795148e-05
0.0011138942
1.8134872e-05
0.0011139283
1.8506658e-05
0.001113963
1.8907398e-05
0.0011139985
1.9332701e-05
0.0011140345
1.9778984e-05
0.0011140712
2.0246022e-05
0.0011141086
2.0732303e-05
0.0011141466
2.1236061e-05
0.0011141852
2.1756044e-05
0.0011142242
2.2289046e-05
0.0011142633
2.2833341e-05
0.0011143022
2.3389688e-05
0.0011143409
2.3958582e-05
0.0011143793
2.4541292e-05
0.0011144173
2.5136707e-05
0.0011144545
2.5744798e-05
0.001114491
2.6367357e-05
0.0011145265
2.7006525e-05
0.0011145608
2.7661684e-05
0.0011145934
2.8331778e-05
0.0011146237
2.9019096e-05
0.0011146511
2.9725556e-05
0.0011146743
3.0451353e-05
0.001114691
3.1195144e-05
0.0011146974
3.1958239e-05
0.0011146882
3.2743125e-05
0.0011146533
3.3548908e-05
0.0011145717
3.4373598e-05
0.0011144064
3.5217557e-05
0.0011140937
3.6081293e-05
0.0011134963
3.6956671e-05
0.0011124003
3.7828788e-05
0.0011105673
3.8679828e-05
0.0011078052
3.9454968e-05
0.0011040793