/*--------------------------------*- C++ -*----------------------------------*\
  =========                 |
  \\      /  F ield         | OpenFOAM: The Open Source CFD Toolbox
   \\    /   O peration     | Website:  https://openfoam.org
    \\  /    A nd           | Version:  12
     \\/     M anipulation  |
\*---------------------------------------------------------------------------*/
FoamFile
{
    format      ascii;
    class       volVectorField;
    location    "100";
    object      U;
}
// * * * * * * * * * * * * * * * * * * * * * * * * * * * * * * * * * * * * * //

dimensions      [0 1 -1 0 0 0 0];

internalField   nonuniform List<vector> 
7480
(
(0.98686819 0.00061532943 8.6975163e-17)
(0.97557929 0.0014798607 0)
(0.96312132 0.0021046008 0)
(0.94991504 0.0025094684 0)
(0.93635942 0.0027816034 0)
(0.92273517 0.0029502045 0)
(0.90914942 0.0030326182 0)
(0.89564563 0.0030390775 0)
(0.88226047 0.003001756 0)
(0.8690285 0.0029173576 0)
(0.85597794 0.0027997107 0)
(0.84313216 0.0026579219 0)
(0.83051474 0.0024985081 0)
(0.81815258 0.002325941 0)
(0.80607902 0.0021432371 0)
(0.79433753 0.0019516596 0)
(0.7829929 0.0017516257 0)
(0.77213789 0.0015478528 0)
(0.76184968 0.0013459561 0)
(0.75219561 0.0011483609 0)
(0.74323548 0.00095581612 0)
(0.73501917 0.00077113134 0)
(0.72758257 0.00059828142 0)
(0.72094966 0.00044181015 0)
(0.71511773 0.000305751 0)
(0.71004319 0.00019635162 0)
(0.70564583 0.0001183233 0)
(0.70181874 7.1874703e-05 0)
(0.69843407 5.2920762e-05 0)
(0.69536149 5.4550389e-05 0)
(0.69248959 6.8097689e-05 0)
(0.68973823 8.5191443e-05 0)
(0.68705799 9.9929324e-05 0)
(0.68442253 0.00010927694 0)
(0.68181943 0.00011307431 0)
(0.67923859 0.00011349898 0)
(0.67666671 0.00011316724 0)
(0.67408968 0.00011375741 0)
(0.67149701 0.00011559794 0)
(0.66888655 0.00011777654 0)
(0.66626546 0.00011930299 0)
(0.66364526 0.00011966349 0)
(0.66103655 0.00011877689 0)
(0.65844541 0.00011695442 0)
(0.65587416 0.00011453676 0)
(0.65332447 0.00011176973 0)
(0.65079854 0.00010878215 0)
(0.64829844 0.00010563251 0)
(0.6458255 0.00010237033 0)
(0.64338064 9.9056163e-05 0)
(0.64096415 9.5777813e-05 0)
(0.63857564 9.257597e-05 0)
(0.63621461 8.9456894e-05 0)
(0.63388087 8.640546e-05 0)
(0.63157441 8.3433471e-05 0)
(0.62929464 8.056792e-05 0)
(0.6270406 7.7806972e-05 0)
(0.62481168 7.5139081e-05 0)
(0.62260731 7.256925e-05 0)
(0.62042664 7.0106596e-05 0)
(0.61826852 6.7740887e-05 0)
(0.6161321 6.5462658e-05 0)
(0.61401658 6.3283654e-05 0)
(0.61192075 6.1202132e-05 0)
(0.60984345 5.9205081e-05 0)
(0.60778377 5.7289642e-05 0)
(0.60574047 5.5470765e-05 0)
(0.60371189 5.3743897e-05 0)
(0.6016964 5.2105329e-05 0)
(0.59969199 5.0573819e-05 0)
(0.59769588 4.9155769e-05 0)
(0.59570485 4.7850406e-05 0)
(0.59371513 4.6673636e-05 0)
(0.59172192 4.5642102e-05 0)
(0.5897194 4.4759844e-05 0)
(0.58770084 4.4042318e-05 0)
(0.58565809 4.3511992e-05 0)
(0.58358144 4.3177901e-05 0)
(0.58145992 4.305373e-05 0)
(0.57928088 4.3161282e-05 0)
(0.57702998 4.3508739e-05 0)
(0.57469154 4.4102515e-05 0)
(0.5722487 4.4948365e-05 0)
(0.56968394 4.6033761e-05 0)
(0.56697989 4.7341189e-05 0)
(0.56411963 4.8851554e-05 0)
(0.56108702 5.0534465e-05 0)
(0.55786689 5.2362329e-05 0)
(0.55444436 5.4320174e-05 0)
(0.55080351 5.6407579e-05 0)
(0.54692564 5.8648118e-05 0)
(0.54278713 6.108761e-05 0)
(0.53835852 6.3791748e-05 0)
(0.53360098 6.6818237e-05 0)
(0.52847554 7.0316781e-05 0)
(0.52290146 7.415201e-05 0)
(0.51692635 7.7246364e-05 0)
(0.51005633 0.0001327144 1.0082596e-19)
(0.50372678 0.00010962336 -6.6611018e-19)
(0.49054172 0.00014781401 -2.2692667e-17)
(0.9958798 0.0024042594 0)
(0.99621756 0.0034647843 0)
(0.99649694 0.0037934 0)
(0.99626375 0.0036838288 0)
(0.99549403 0.0035123194 0)
(0.99424067 0.0033223946 0)
(0.99248676 0.0031300206 0)
(0.99019851 0.0029559544 0)
(0.98736076 0.0028020666 0)
(0.98397418 0.0026709124 0)
(0.98004143 0.0025608611 0)
(0.97556368 0.0024679995 0)
(0.97054318 0.0023892691 0)
(0.9649832 0.0023209457 0)
(0.95888556 0.0022592547 0)
(0.9522524 0.0022009552 0)
(0.94507524 0.0021378316 0)
(0.93737682 0.0020577096 0)
(0.92923151 0.0019617193 0)
(0.9207018 0.0018562801 0)
(0.91186083 0.0017425638 0)
(0.90279817 0.0016204649 0)
(0.89362306 0.0014898706 0)
(0.88445018 0.0013509319 0)
(0.8754085 0.0012053731 0)
(0.86663784 0.0010541728 0)
(0.85829821 0.00090527792 0)
(0.85051941 0.00076865715 0)
(0.84336835 0.0006494013 0)
(0.83684419 0.0005524926 0)
(0.83089419 0.00048053808 0)
(0.82543228 0.00043264452 0)
(0.82035571 0.0004054542 0)
(0.81557001 0.00039298969 0)
(0.81100603 0.00038783105 0)
(0.80662002 0.00038381198 0)
(0.8023876 0.00037757379 0)
(0.79829621 0.00036808516 0)
(0.79433589 0.00035575362 0)
(0.79049482 0.00034149912 0)
(0.78675893 0.0003265355 0)
(0.78311276 0.00031205974 0)
(0.77954177 0.00029865302 0)
(0.77603546 0.00028637504 0)
(0.77258859 0.00027485071 0)
(0.76920014 0.00026378313 0)
(0.76587012 0.0002530897 0)
(0.76259684 0.00024277534 0)
(0.75937711 0.00023283921 0)
(0.75620811 0.00022326811 0)
(0.7530882 0.00021410087 0)
(0.7500162 0.00020531679 0)
(0.74699073 0.00019689196 0)
(0.74401035 0.00018879571 0)
(0.74107373 0.00018104327 0)
(0.73817945 0.00017365487 0)
(0.73532599 0.00016659874 0)
(0.7325121 0.00015984077 0)
(0.72973672 0.00015339295 0)
(0.72699823 0.00014726951 0)
(0.72429489 0.00014143329 0)
(0.7216254 0.00013585786 0)
(0.71898851 0.00013056017 0)
(0.71638262 0.00012552796 0)
(0.71380605 0.00012073497 0)
(0.71125735 0.00011617513 0)
(0.70873487 0.0001118674 0)
(0.70623652 0.00010779315 0)
(0.70376024 0.00010394407 0)
(0.70130365 0.00010035054 0)
(0.69886362 9.7015498e-05 0)
(0.69643642 9.3936887e-05 0)
(0.69401775 9.1143765e-05 0)
(0.69160221 8.8660282e-05 0)
(0.68918317 8.6493024e-05 0)
(0.6867529 8.4672339e-05 0)
(0.68430204 8.3235516e-05 0)
(0.68181936 8.2197387e-05 0)
(0.67929201 8.1584224e-05 0)
(0.67670517 8.14303e-05 0)
(0.67404197 8.1744054e-05 0)
(0.67128387 8.2532522e-05 0)
(0.66841097 8.3794814e-05 0)
(0.66540254 8.5493049e-05 0)
(0.66223814 8.7579552e-05 0)
(0.65889828 9.0000352e-05 0)
(0.65536469 9.2684352e-05 0)
(0.65162072 9.557492e-05 0)
(0.64765051 9.8645641e-05 0)
(0.64343729 0.00010190649 0)
(0.63896106 0.00010542108 0)
(0.63419583 0.0001092929 0)
(0.62910822 0.00011365982 0)
(0.62365318 0.00011861685 0)
(0.61778557 0.00012448991 0)
(0.61140918 0.00013061701 0)
(0.60458303 0.00014034619 0)
(0.59672089 0.00014858294 0)
(0.58953438 0.00018159916 0)
(0.57438252 0.00016210782 0)
(0.99617147 0.0021630094 0)
(0.99659448 0.0027678362 0)
(0.99716339 0.0029370467 0)
(0.99759439 0.002992712 0)
(0.99788789 0.0030823067 0)
(0.99812724 0.0031871512 0)
(0.99833387 0.0032902784 0)
(0.99849719 0.0033811048 0)
(0.99861001 0.0034577054 0)
(0.99867194 0.0035185952 0)
(0.99867873 0.0035616223 0)
(0.99862131 0.0035877498 0)
(0.99848789 0.0035947046 0)
(0.99826411 0.003586071 0)
(0.99793178 0.0035613093 0)
(0.99746529 0.0035208284 0)
(0.99683536 0.0034639581 0)
(0.99596736 0.0033907005 0)
(0.994755 0.0033013868 0)
(0.9931137 0.0031957829 0)
(0.99095703 0.0030742344 0)
(0.98819177 0.002938123 0)
(0.98471987 0.0027895324 0)
(0.98044865 0.0026318989 0)
(0.97529447 0.0024701764 0)
(0.96919827 0.0023102096 0)
(0.96212893 0.0021427849 0)
(0.95421203 0.0019664327 0)
(0.94562467 0.0017945748 0)
(0.93662135 0.001629871 0)
(0.92749196 0.0014722476 0)
(0.91852128 0.0013212389 0)
(0.90994868 0.0011760982 0)
(0.90195651 0.0010433483 0)
(0.89462323 0.00093111803 0)
(0.88791706 0.00084169372 0)
(0.88174666 0.00077493713 0)
(0.87599977 0.0007282503 0)
(0.8705715 0.00069674717 0)
(0.86538656 0.00067366152 0)
(0.8604013 0.00065276115 0)
(0.85559333 0.00063034033 0)
(0.85095006 0.00060559164 0)
(0.84646015 0.00057938947 0)
(0.84211063 0.000552762 0)
(0.83788738 0.000526728 0)
(0.83377631 0.0005020776 0)
(0.82976486 0.00047909045 0)
(0.82584358 0.0004575412 0)
(0.82200673 0.00043711132 0)
(0.81825052 0.00041772466 0)
(0.8145709 0.0003993197 0)
(0.81096304 0.00038183719 0)
(0.80742242 0.00036518897 0)
(0.80394565 0.00034934832 0)
(0.80053003 0.00033430256 0)
(0.79717291 0.00031998084 0)
(0.79387174 0.00030632522 0)
(0.79062426 0.00029333996 0)
(0.78742809 0.00028102868 0)
(0.7842808 0.00026932548 0)
(0.78118033 0.00025818192 0)
(0.77812471 0.00024761334 0)
(0.77511169 0.0002375926 0)
(0.772139 0.00022807324 0)
(0.76920466 0.00021903866 0)
(0.7663065 0.00021051031 0)
(0.763442 0.00020245596 0)
(0.76060872 0.00019485953 0)
(0.75780392 0.00018776348 0)
(0.75502414 0.00018117297 0)
(0.7522653 0.00017508753 0)
(0.74952272 0.00016955224 0)
(0.74679059 0.00016460761 0)
(0.74406174 0.00016027121 0)
(0.74132777 0.00015659533 0)
(0.73857848 0.00015364291 0)
(0.73580163 0.00015144528 0)
(0.73298309 0.00015004829 0)
(0.73010661 0.00014950675 0)
(0.72715368 0.00014983493 0)
(0.72410405 0.00015103863 0)
(0.72093608 0.00015310369 0)
(0.71762739 0.0001559537 0)
(0.71415618 0.00015948948 0)
(0.71050203 0.00016359774 0)
(0.70664635 0.00016814341 0)
(0.7025726 0.00017302304 0)
(0.6982652 0.00017819453 0)
(0.69370748 0.00018369116 0)
(0.68887891 0.00018964573 0)
(0.68375196 0.00019626098 0)
(0.67829034 0.00020380233 0)
(0.67244451 0.00021243156 0)
(0.66616442 0.00022277278 0)
(0.65934491 0.00023349174 0)
(0.65204627 0.000250624 0)
(0.64364402 0.00025397692 0)
(0.6359588 0.00033357941 0)
(0.61974087 0.00026941573 -2.8737599e-19)
(0.99634985 0.0020472143 0)
(0.99669936 0.0026616259 0)
(0.99722684 0.0029945196 0)
(0.99765985 0.0031563209 0)
(0.99796767 0.0032566273 0)
(0.99822579 0.003322342 0)
(0.99846222 0.0033222295 0)
(0.99867278 0.0033081419 0)
(0.9988581 0.0032768083 0)
(0.9990251 0.0032358799 0)
(0.99917787 0.0031897899 0)
(0.99931832 0.0031410352 0)
(0.99944711 0.0030926847 0)
(0.99956467 0.0030455897 0)
(0.99967115 0.0030000714 0)
(0.99976564 0.0029557472 0)
(0.99984676 0.0029119377 0)
(0.99991168 0.0028679142 0)
(0.99995538 0.0028236477 0)
(0.99997157 0.0027797479 0)
(0.99995238 0.0027368599 0)
(0.99988706 0.0026952292 0)
(0.99976018 0.0026551233 0)
(0.99955131 0.0026166635 0)
(0.99923123 0.0025792 0)
(0.99875617 0.002541417 0)
(0.99805665 0.0025020762 0)
(0.99695827 0.0024591228 0)
(0.99530279 0.0024081328 0)
(0.99292242 0.0023458746 0)
(0.98965802 0.0022714678 0)
(0.98538044 0.0021862304 0)
(0.98002081 0.0020949779 0)
(0.97358291 0.0019885055 0)
(0.96626954 0.0018642734 0)
(0.95836436 0.0017340479 0)
(0.95018941 0.0016015221 0)
(0.94206038 0.001469187 0)
(0.93423601 0.0013402962 0)
(0.92689201 0.0012229457 0)
(0.92007694 0.0011230598 0)
(0.91374451 0.0010415553 0)
(0.90780428 0.00097721075 0)
(0.90216169 0.00092678888 0)
(0.89674864 0.00088501407 0)
(0.8915279 0.00084690234 0)
(0.88648281 0.00080949022 0)
(0.88160377 0.00077224489 0)
(0.87688022 0.00073556937 0)
(0.87229933 0.00070006776 0)
(0.86784725 0.00066644997 0)
(0.863511 0.00063498753 0)
(0.85928007 0.00060552586 0)
(0.85514695 0.00057773119 0)
(0.85110621 0.00055144621 0)
(0.84715262 0.00052662241 0)
(0.84328064 0.00050313658 0)
(0.83948525 0.0004808639 0)
(0.83576249 0.00045976462 0)
(0.83210885 0.00043980871 0)
(0.8285208 0.00042088524 0)
(0.82499505 0.00040291734 0)
(0.82152855 0.00038590986 0)
(0.8181182 0.00036981052 0)
(0.81476097 0.00035454598 0)
(0.81145408 0.00034008384 0)
(0.80819471 0.00032644096 0)
(0.80497979 0.00031356655 0)
(0.80180635 0.00030143282 0)
(0.79867118 0.00029009025 0)
(0.79557037 0.00027954501 0)
(0.79249945 0.00026979764 0)
(0.78945333 0.00026090799 0)
(0.78642575 0.00025293436 0)
(0.78340905 0.00024590916 0)
(0.78039418 0.000239909 0)
(0.77737022 0.0002350258 0)
(0.77432406 0.00023131265 0)
(0.77124054 0.00022883786 0)
(0.76810228 0.00022767805 0)
(0.76488957 0.00022785432 0)
(0.76158098 0.00022936825 0)
(0.75815382 0.00023218595 0)
(0.7545849 0.00023618361 0)
(0.7508519 0.0002411969 0)
(0.74693433 0.00024703833 0)
(0.742814 0.0002534978 0)
(0.73847494 0.000260419 0)
(0.7339021 0.00026774635 0)
(0.72907885 0.00027554838 0)
(0.72398396 0.00028404725 0)
(0.71858814 0.00029356965 0)
(0.71285215 0.00030453717 0)
(0.70672231 0.00031718951 0)
(0.70014377 0.00033250408 0)
(0.69300527 0.00034832458 0)
(0.68536313 0.00037398259 0)
(0.67657851 0.00037907748 0)
(0.66851322 0.00050570497 0)
(0.65154669 0.00039489721 2.3224647e-19)
(0.99655777 0.0019945838 0)
(0.99684433 0.0025700662 0)
(0.99729582 0.0028943629 0)
(0.99768647 0.0030315053 0)
(0.99797847 0.0031092174 0)
(0.99823196 0.0031604153 0)
(0.99847007 0.0031924114 0)
(0.99868551 0.0032104518 0)
(0.99887877 0.003221487 0)
(0.99905542 0.003227801 0)
(0.99921977 0.0032290606 0)
(0.99937291 0.0032260164 0)
(0.99951576 0.0032174314 0)
(0.99964951 0.0032034093 0)
(0.99977537 0.0031835299 0)
(0.99989437 0.0031573799 0)
(1.0000067 0.0031243185 0)
(1.0001118 0.0030836604 0)
(1.0002081 0.0030355639 0)
(1.0002946 0.0029807683 0)
(1.0003705 0.0029201035 0)
(1.0004348 0.0028547966 0)
(1.0004853 0.002785987 0)
(1.0005204 0.0027151417 0)
(1.0005381 0.0026446531 0)
(1.0005369 0.0025773648 0)
(1.0005153 0.0025158273 0)
(1.0004686 0.0024620679 0)
(1.000389 0.0024181337 0)
(1.0002641 0.00238477 0)
(1.0000741 0.0023608981 0)
(0.99978717 0.0023438195 0)
(0.99934984 0.0023277795 0)
(0.99867154 0.0023082734 0)
(0.99754513 0.0022811802 0)
(0.99577076 0.002241414 0)
(0.99316107 0.0021872476 0)
(0.98956342 0.0021206084 0)
(0.98489182 0.0020426828 0)
(0.97918427 0.0019467841 0)
(0.9726664 0.0018353388 0)
(0.96563369 0.0017174052 0)
(0.95840686 0.0015967033 0)
(0.9512708 0.0014770682 0)
(0.9444325 0.0013661511 0)
(0.93797088 0.0012690974 0)
(0.93187091 0.0011867965 0)
(0.92606925 0.001118477 0)
(0.92049943 0.0010612111 0)
(0.91511776 0.0010106203 0)
(0.90990358 0.0009632929 0)
(0.90484803 0.00091773518 0)
(0.89994344 0.00087375955 0)
(0.89517962 0.00083159294 0)
(0.89054472 0.00079165493 0)
(0.88602724 0.00075418866 0)
(0.88161771 0.00071902314 0)
(0.8773092 0.00068585017 0)
(0.87309635 0.00065453996 0)
(0.86897378 0.00062504059 0)
(0.86493588 0.00059718599 0)
(0.86097778 0.00057083489 0)
(0.85709534 0.00054595629 0)
(0.85328452 0.0005224599 0)
(0.84954123 0.00050023448 0)
(0.84586172 0.00047922091 0)
(0.84224237 0.00045941976 0)
(0.83867947 0.00044075239 0)
(0.8351694 0.00042317378 0)
(0.83170832 0.00040673751 0)
(0.82829183 0.0003914459 0)
(0.824915 0.00037729669 0)
(0.8215723 0.00036436234 0)
(0.81825702 0.00035271833 0)
(0.81496102 0.00034241234 0)
(0.81167472 0.00033354587 0)
(0.80838658 0.00032624095 0)
(0.80508278 0.0003205739 0)
(0.8017474 0.00031663583 0)
(0.79836222 0.00031452422 0)
(0.79490671 0.00031426451 0)
(0.7913587 0.00031584878 0)
(0.78769492 0.00031921589 0)
(0.78389189 0.00032418609 0)
(0.77992724 0.00033051925 0)
(0.77578079 0.0003379429 0)
(0.77143491 0.00034616518 0)
(0.76687425 0.00035497638 0)
(0.7620841 0.00036431368 0)
(0.75704769 0.00037429345 0)
(0.7517429 0.00038524453 0)
(0.74613863 0.00039763738 0)
(0.74019282 0.00041206989 0)
(0.73384808 0.00042887046 0)
(0.72704509 0.00044939236 0)
(0.71966812 0.00047060387 0)
(0.71176732 0.00050547973 0)
(0.70269979 0.00051203406 5.1257595e-20)
(0.69434066 0.00068980078 0)
(0.67681524 0.00052696724 0)
(0.99674179 0.001945591 0)
(0.99698018 0.002468363 0)
(0.99736809 0.002784391 0)
(0.99772323 0.0029390576 0)
(0.99800269 0.0030394218 0)
(0.99824807 0.0031170364 0)
(0.99847913 0.0031643187 0)
(0.99868974 0.0031899392 0)
(0.99887988 0.0032018033 0)
(0.99905456 0.0032031142 0)
(0.99921747 0.0031955653 0)
(0.99937029 0.0031807361 0)
(0.99951413 0.0031598504 0)
(0.99965009 0.0031340528 0)
(0.99977925 0.0031037812 0)
(0.99990231 0.0030691417 0)
(1.0000195 0.0030298453 0)
(1.0001304 0.0029855009 0)
(1.0002341 0.0029364534 0)
(1.0003296 0.0028835126 0)
(1.0004162 0.0028273923 0)
(1.0004933 0.0027688968 0)
(1.0005605 0.0027090962 0)
(1.0006172 0.002649465 0)
(1.0006633 0.0025917042 0)
(1.0006993 0.002538106 0)
(1.0007262 0.0024898 0)
(1.000745 0.0024471676 0)
(1.0007564 0.0024108615 0)
(1.0007615 0.0023801722 0)
(1.0007603 0.0023535035 0)
(1.0007511 0.0023290001 0)
(1.0007307 0.0023063982 0)
(1.0006946 0.0022859568 0)
(1.0006326 0.0022678773 0)
(1.0005273 0.0022529508 0)
(1.0003555 0.0022412007 0)
(1.0000792 0.0022312354 0)
(0.99963953 0.0022191979 0)
(0.99890944 0.0022017257 0)
(0.99767811 0.0021748485 0)
(0.99574309 0.0021347337 0)
(0.99292429 0.0020814647 0)
(0.98910021 0.0020155892 0)
(0.98426817 0.0019317836 0)
(0.97861861 0.0018327176 0)
(0.9724187 0.0017265909 0)
(0.96596854 0.0016167079 0)
(0.95953891 0.0015090276 0)
(0.95330537 0.0014102977 0)
(0.94732955 0.0013227507 0)
(0.94159682 0.0012470414 0)
(0.93606282 0.0011818937 0)
(0.93069128 0.0011241331 0)
(0.92546462 0.0010707004 0)
(0.9203771 0.0010199099 0)
(0.91542466 0.00097129588 0)
(0.91060051 0.00092490387 0)
(0.90589574 0.0008810286 0)
(0.90130135 0.00083982973 0)
(0.89681 0.00080108523 0)
(0.89241635 0.00076452341 0)
(0.88811566 0.00073008062 0)
(0.88390262 0.0006976515 0)
(0.87977188 0.00066706894 0)
(0.87571886 0.00063821725 0)
(0.87173934 0.00061106886 0)
(0.86782891 0.00058551047 0)
(0.8639832 0.00056147008 0)
(0.86019777 0.00053899524 0)
(0.85646774 0.00051807714 0)
(0.85278771 0.00049870529 0)
(0.84915173 0.00048096166 0)
(0.84555273 0.0004649371 0)
(0.84198219 0.00045069351 0)
(0.83843011 0.00043835707 0)
(0.83488451 0.0004280801 0)
(0.83133111 0.00041996189 0)
(0.8277535 0.00041411565 0)
(0.82413295 0.00041065791 0)
(0.82044846 0.00040961478 0)
(0.8166775 0.00041096285 0)
(0.81279659 0.00041460642 0)
(0.80878221 0.00042030153 0)
(0.80461221 0.00042772366 0)
(0.80026677 0.00043650812 0)
(0.79572875 0.00044627788 0)
(0.79098319 0.00045677179 0)
(0.78601556 0.00046792766 0)
(0.78080876 0.0004799225 0)
(0.77533976 0.0004932078 0)
(0.7695758 0.00050841519 0)
(0.76347238 0.00052633554 0)
(0.75696904 0.00054739648 0)
(0.75000247 0.00057333962 0)
(0.74245365 0.0006002363 0)
(0.73436531 0.00064484424 0)
(0.72509669 0.00065218273 0)
(0.7165166 0.00088576662 1.5270469e-19)
(0.69858406 0.0006653857 0)
(0.996883 0.0019038349 0)
(0.99708688 0.0023792519 0)
(0.99742505 0.0026906574 0)
(0.99775091 0.0028605743 0)
(0.9980193 0.0029719804 0)
(0.99825721 0.0030548099 0)
(0.99848164 0.0031056244 0)
(0.99868832 0.0031343976 0)
(0.99887625 0.0031496862 0)
(0.99904953 0.0031552928 0)
(0.99921152 0.0031529335 0)
(0.99936379 0.0031441419 0)
(0.99950739 0.003129811 0)
(0.99964337 0.0031106538 0)
(0.99977274 0.0030868182 0)
(0.99989617 0.0030581735 0)
(1.0000139 0.0030243439 0)
(1.0001255 0.0029849432 0)
(1.0002301 0.0029402012 0)
(1.0003272 0.002890792 0)
(1.0004161 0.0028374227 0)
(1.0004964 0.0027809645 0)
(1.0005676 0.0027224945 0)
(1.0006293 0.0026633779 0)
(1.0006815 0.0026053797 0)
(1.0007246 0.0025504794 0)
(1.00076 0.0024998022 0)
(1.0007893 0.002454293 0)
(1.000814 0.0024149705 0)
(1.0008361 0.0023816133 0)
(1.0008568 0.0023533365 0)
(1.0008766 0.0023291907 0)
(1.0008954 0.0023086294 0)
(1.0009126 0.0022904859 0)
(1.0009271 0.0022737582 0)
(1.000937 0.0022582536 0)
(1.0009403 0.0022432632 0)
(1.0009337 0.0022280544 0)
(1.0009127 0.0022128179 0)
(1.0008701 0.0021978772 0)
(1.0007899 0.002183511 0)
(1.0006485 0.0021701487 0)
(1.0004096 0.0021573479 0)
(1.000016 0.0021428919 0)
(0.99934808 0.0021244134 0)
(0.99820199 0.0020983065 0)
(0.99637717 0.0020607758 0)
(0.99369872 0.0020125523 0)
(0.99004355 0.0019487862 0)
(0.98548053 0.0018671539 0)
(0.98020105 0.0017753125 0)
(0.97447126 0.0016773387 0)
(0.96856891 0.0015780924 0)
(0.96270902 0.0014839256 0)
(0.95699775 0.0013980975 0)
(0.95145577 0.0013218872 0)
(0.94606185 0.0012547528 0)
(0.94079338 0.0011943245 0)
(0.93564131 0.0011381313 0)
(0.93060533 0.0010848047 0)
(0.92568522 0.0010339198 0)
(0.92087719 0.00098550622 0)
(0.91617495 0.00093982719 0)
(0.91157203 0.00089689667 0)
(0.90706328 0.00085647677 0)
(0.90264468 0.00081837957 0)
(0.89831179 0.00078257972 0)
(0.89405956 0.00074893932 0)
(0.88988314 0.0007173375 0)
(0.88577788 0.00068780171 0)
(0.8817386 0.00066030867 0)
(0.87775956 0.00063483254 0)
(0.87383457 0.00061145707 0)
(0.86995638 0.00059028468 0)
(0.8661163 0.0005713894 0)
(0.8623041 0.00055492071 0)
(0.85850763 0.00054106032 0)
(0.85471248 0.00052992945 0)
(0.85090205 0.00052166249 0)
(0.84705746 0.0005163934 0)
(0.8431576 0.00051414558 0)
(0.83917988 0.00051487535 0)
(0.8351009 0.00051844667 0)
(0.83089728 0.00052454516 0)
(0.82654712 0.00053275585 0)
(0.8220309 0.0005426173 0)
(0.81733174 0.00055366564 0)
(0.81243489 0.00056559056 0)
(0.80732573 0.00057833739 0)
(0.80198678 0.00059215433 0)
(0.79639421 0.00060762851 0)
(0.790514 0.00062556746 0)
(0.7842998 0.00064696951 0)
(0.77768881 0.0006723733 0)
(0.7706144 0.00070391846 0)
(0.76295518 0.00073677502 0)
(0.75474568 0.00079155167 0)
(0.74535173 0.00079971879 0)
(0.73661854 0.0010950063 4.5633839e-19)
(0.7184166 0.00081071011 0)
(0.99702935 0.0018703939 0)
(0.99720171 0.0023016734 0)
(0.99749331 0.0026037133 0)
(0.99778814 0.002782124 0)
(0.99804218 0.0029009794 0)
(0.99827095 0.0029896656 0)
(0.99848793 0.0030483089 0)
(0.99868983 0.0030844081 0)
(0.99887477 0.0031059457 0)
(0.99904589 0.0031167719 0)
(0.99920624 0.0031186264 0)
(0.99935726 0.003113058 0)
(0.99949991 0.0031011126 0)
(0.99963516 0.0030836263 0)
(0.99976395 0.0030609573 0)
(0.9998869 0.0030331738 0)
(1.0000042 0.003000115 0)
(1.0001155 0.0029615809 0)
(1.0002202 0.0029178348 0)
(1.0003175 0.0028695482 0)
(1.0004069 0.0028174633 0)
(1.0004881 0.0027624529 0)
(1.0005605 0.0027055655 0)
(1.0006239 0.0026481327 0)
(1.0006782 0.0025918169 0)
(1.0007241 0.0025385121 0)
(1.0007629 0.0024894795 0)
(1.0007959 0.0024456328 0)
(1.0008249 0.0024078332 0)
(1.0008517 0.0023759037 0)
(1.0008778 0.0023489121 0)
(1.000904 0.0023257238 0)
(1.0009305 0.0023055296 0)
(1.0009574 0.0022872012 0)
(1.0009843 0.0022700575 0)
(1.0010107 0.0022541023 0)
(1.0010364 0.0022389995 0)
(1.0010608 0.0022246495 0)
(1.0010833 0.0022110378 0)
(1.0011029 0.0021975955 0)
(1.0011177 0.0021839586 0)
(1.001125 0.002170137 0)
(1.0011213 0.0021559034 0)
(1.0011014 0.002141488 0)
(1.0010573 0.0021271289 0)
(1.0009708 0.0021129236 0)
(1.0008149 0.0020990966 0)
(1.0005444 0.0020847088 0)
(1.0000943 0.0020685085 0)
(0.99929189 0.0020480557 0)
(0.99794214 0.0020190693 0)
(0.99585288 0.0019801636 0)
(0.99286638 0.0019277627 0)
(0.98897227 0.0018587394 0)
(0.98431173 0.0017778002 0)
(0.97911885 0.0016893941 0)
(0.97366215 0.0015983936 0)
(0.96816063 0.001510706 0)
(0.96273256 0.0014294208 0)
(0.95741142 0.0013561104 0)
(0.95219009 0.0012904059 0)
(0.94705903 0.0012302757 0)
(0.94201893 0.0011737778 0)
(0.93707465 0.0011200223 0)
(0.93222805 0.0010688327 0)
(0.92747676 0.0010203289 0)
(0.92281643 0.00097469526 0)
(0.91824288 0.0009318209 0)
(0.9137527 0.0008915337 0)
(0.90934195 0.00085386476 0)
(0.90500554 0.00081880015 0)
(0.90073792 0.00078629124 0)
(0.89653323 0.00075641133 0)
(0.89238448 0.00072927396 0)
(0.88828312 0.00070496316 0)
(0.8842191 0.00068364644 0)
(0.88018054 0.00066553227 0)
(0.87615322 0.00065076231 0)
(0.87212078 0.00063949094 0)
(0.8680646 0.00063186853 0)
(0.86396383 0.00062791374 0)
(0.85979616 0.00062755983 0)
(0.85553847 0.00063062751 0)
(0.85116767 0.00063672862 0)
(0.84666209 0.00064535464 0)
(0.84200235 0.00065594523 0)
(0.83717164 0.00066794871 0)
(0.83215512 0.00068100699 0)
(0.82693796 0.00069507712 0)
(0.82150232 0.00071048514 0)
(0.81582381 0.0007279628 0)
(0.80986768 0.00074850511 0)
(0.80358644 0.00077333059 0)
(0.79691583 0.00080310263 0)
(0.78978661 0.00084036837 0)
(0.78207594 0.00087940854 0)
(0.77380958 0.00094472117 0)
(0.76436355 0.00095407314 -2.2052805e-20)
(0.75554369 0.001305605 0)
(0.73720394 0.00096215469 -8.7006135e-20)
(0.99716779 0.0018414032 0)
(0.99731536 0.0022326882 0)
(0.99756736 0.0025227728 0)
(0.99783318 0.0027066119 0)
(0.99807222 0.0028323728 0)
(0.99829121 0.0029270415 0)
(0.99850003 0.0029926175 0)
(0.99869612 0.0030346573 0)
(0.99887717 0.0030608798 0)
(0.99904544 0.0030755961 0)
(0.99920357 0.0030808098 0)
(0.99935288 0.0030781583 0)
(0.99949417 0.0030688493 0)
(0.99962833 0.0030537769 0)
(0.99975618 0.0030333712 0)
(0.99987828 0.0030077553 0)
(0.99999479 0.0029768375 0)
(1.0001054 0.0029404865 0)
(1.0002096 0.0028989494 0)
(1.0003066 0.0028528553 0)
(1.000396 0.0028029319 0)
(1.0004773 0.0027500271 0)
(1.0005502 0.0026951695 0)
(1.0006143 0.0026396572 0)
(1.0006697 0.0025850796 0)
(1.000717 0.0025332301 0)
(1.0007575 0.002485366 0)
(1.0007924 0.0024423547 0)
(1.0008233 0.0024049819 0)
(1.0008522 0.0023731432 0)
(1.0008805 0.0023460219 0)
(1.000909 0.0023225885 0)
(1.0009381 0.0023021015 0)
(1.0009679 0.0022836353 0)
(1.0009983 0.0022665791 0)
(1.001029 0.0022508941 0)
(1.00106 0.0022362278 0)
(1.0010911 0.0022222909 0)
(1.0011222 0.0022088483 0)
(1.0011531 0.0021953552 0)
(1.0011832 0.0021816138 0)
(1.0012116 0.0021677011 0)
(1.001238 0.0021537081 0)
(1.0012614 0.0021399289 0)
(1.0012808 0.0021261383 0)
(1.0012941 0.0021122507 0)
(1.0012985 0.0020983789 0)
(1.0012892 0.002084646 0)
(1.0012605 0.0020710845 0)
(1.0011985 0.002057538 0)
(1.0010792 0.0020440762 0)
(1.0008636 0.002030268 0)
(1.0004933 0.0020152121 0)
(0.99982622 0.0019970154 0)
(0.99867015 0.001971996 0)
(0.9968278 0.0019382196 0)
(0.99412525 0.001891182 0)
(0.99053928 0.0018282084 0)
(0.98619161 0.001753995 0)
(0.98130854 0.0016720327 0)
(0.97615409 0.001587623 0)
(0.97093174 0.0015062476 0)
(0.96574662 0.0014305517 0)
(0.96062581 0.0013618523 0)
(0.95556782 0.001299381 0)
(0.95057436 0.0012412821 0)
(0.94565392 0.0011861954 0)
(0.94081343 0.0011337528 0)
(0.9360542 0.0010840743 0)
(0.93137383 0.0010374467 0)
(0.92676908 0.00099394166 0)
(0.92223676 0.0009535112 0)
(0.91777269 0.00091624772 0)
(0.91337083 0.00088230534 0)
(0.90902354 0.00085178276 0)
(0.90472175 0.00082485918 0)
(0.90045447 0.0008017708 0)
(0.89620825 0.00078267981 0)
(0.89196754 0.00076775756 0)
(0.88771448 0.00075716997 0)
(0.88342893 0.0007509307 0)
(0.87908924 0.00074894943 0)
(0.87467283 0.00075100363 0)
(0.87015706 0.00075663148 0)
(0.8655205 0.00076523111 0)
(0.86074377 0.0007761433 0)
(0.85580993 0.00078872812 0)
(0.85070386 0.0008025795 0)
(0.8454104 0.00081766698 0)
(0.83991143 0.00083439647 0)
(0.83418235 0.00085364867 0)
(0.82818825 0.00087661403 0)
(0.82188134 0.00090474242 0)
(0.8151968 0.00093883793 0)
(0.80806367 0.00098186576 0)
(0.80035852 0.001027246 0)
(0.7920981 0.0011033798 0)
(0.78267154 0.001114094 0)
(0.77383091 0.0015330586 1.4224602e-19)
(0.75548248 0.0011194593 0)
(0.99729687 0.0018159441 0)
(0.9974245 0.0021715152 0)
(0.99764296 0.0024481614 0)
(0.99788221 0.0026346796 0)
(0.99810618 0.0027658559 0)
(0.9983152 0.0028653044 0)
(0.99851572 0.0029364857 0)
(0.99870568 0.0029839102 0)
(0.99888255 0.0030147899 0)
(0.99904773 0.0030336286 0)
(0.99920342 0.0030425404 0)
(0.99935077 0.0030431423 0)
(0.99949048 0.003036708 0)
(0.99962332 0.0030241638 0)
(0.99975 0.0030060036 0)
(0.99987103 0.0029824237 0)
(0.99998654 0.0029534281 0)
(1.0000963 0.0029189833 0)
(1.0001997 0.0028793596 0)
(1.0002961 0.0028351679 0)
(1.0003852 0.0027871334 0)
(1.0004664 0.0027360958 0)
(1.0005394 0.0026830711 0)
(1.000604 0.0026293228 0)
(1.0006601 0.0025763708 0)
(1.0007084 0.002525904 0)
(1.0007499 0.0024791657 0)
(1.0007861 0.0024370166 0)
(1.0008183 0.0024001995 0)
(1.0008484 0.0023686793 0)
(1.0008779 0.0023417378 0)
(1.0009075 0.0023184299 0)
(1.0009377 0.0022980384 0)
(1.0009687 0.0022797006 0)
(1.0010003 0.0022627866 0)
(1.0010324 0.0022471777 0)
(1.0010651 0.0022325404 0)
(1.0010982 0.002218581 0)
(1.0011319 0.0022050941 0)
(1.0011659 0.0021916583 0)
(1.0011999 0.0021781037 0)
(1.0012335 0.0021645357 0)
(1.0012665 0.0021509796 0)
(1.0012986 0.002137521 0)
(1.0013298 0.0021239661 0)
(1.0013596 0.0021102847 0)
(1.0013873 0.0020965989 0)
(1.0014124 0.0020831163 0)
(1.0014339 0.0020697794 0)
(1.0014504 0.0020563983 0)
(1.001459 0.0020431549 0)
(1.0014555 0.0020302025 0)
(1.0014343 0.0020175679 0)
(1.0013833 0.0020050976 0)
(1.0012793 0.0019926481 0)
(1.0010836 0.0019797307 0)
(1.0007377 0.0019656723 0)
(1.0000934 0.0019486762 0)
(0.99895696 0.0019251422 0)
(0.9971237 0.0018929235 0)
(0.99442032 0.0018467971 0)
(0.99085356 0.0017856008 0)
(0.98656675 0.0017142786 0)
(0.98180724 0.001636283 0)
(0.97683348 0.0015573254 0)
(0.97181421 0.0014819261 0)
(0.96681851 0.0014125577 0)
(0.96185878 0.0013495203 0)
(0.95693824 0.0012913645 0)
(0.95206772 0.0012366153 0)
(0.94725806 0.001184779 0)
(0.94251328 0.0011360628 0)
(0.93783215 0.0010908614 0)
(0.93321155 0.0010494589 0)
(0.92864713 0.0010120056 0)
(0.92413246 0.00097873042 0)
(0.91965842 0.00094993058 0)
(0.9152133 0.00092580133 0)
(0.91078327 0.00090653189 0)
(0.90635202 0.00089230844 0)
(0.90190074 0.00088314335 0)
(0.89740894 0.00087892352 0)
(0.89285504 0.00087938585 0)
(0.88821706 0.00088399861 0)
(0.88347392 0.00089206976 0)
(0.87860624 0.0009028434 0)
(0.8735968 0.00091559138 0)
(0.86843007 0.00092985778 0)
(0.86309052 0.00094562179 0)
(0.85755986 0.00096336643 0)
(0.85181364 0.00098412054 0)
(0.8458174 0.001009274 0)
(0.83952391 0.0010405173 0)
(0.83286878 0.0010788131 0)
(0.82578029 0.001127557 0)
(0.81813539 0.0011793531 0)
(0.80994191 0.0012664914 0)
(0.80060453 0.0012789112 0)
(0.79180844 0.0017649485 0)
(0.77357971 0.0012814846 0)
(0.99741748 0.0017932801 0)
(0.99752883 0.0021170309 0)
(0.99771879 0.002379369 0)
(0.99793379 0.0025660708 0)
(0.99814276 0.0027011353 0)
(0.99834162 0.0028044575 0)
(0.99853378 0.0028804793 0)
(0.99871739 0.0029329975 0)
(0.99888982 0.0029684222 0)
(0.99905172 0.0029912521 0)
(0.9992048 0.0030037165 0)
(0.99935005 0.0030074429 0)
(0.99948807 0.0030037703 0)
(0.99961948 0.0029936799 0)
(0.99974492 0.0029777366 0)
(0.99986481 0.0029562113 0)
(0.99997926 0.0029291932 0)
(1.000088 0.0028967301 0)
(1.0001906 0.0028591094 0)
(1.0002865 0.0028169188 0)
(1.0003751 0.0027708732 0)
(1.0004561 0.0027218001 0)
(1.0005291 0.002670696 0)
(1.000594 0.0026187859 0)
(1.0006506 0.0025675228 0)
(1.0006997 0.0025184997 0)
(1.0007421 0.0024729443 0)
(1.0007793 0.0024317128 0)
(1.0008126 0.0023955055 0)
(1.0008436 0.0023643387 0)
(1.0008739 0.0023375826 0)
(1.0009042 0.002314369 0)
(1.0009351 0.002294003 0)
(1.0009666 0.0022756839 0)
(1.0009988 0.0022588017 0)
(1.0010315 0.0022432062 0)
(1.0010647 0.0022285961 0)
(1.0010986 0.0022146838 0)
(1.001133 0.0022012672 0)
(1.001168 0.0021879528 0)
(1.0012031 0.0021745445 0)