/*--------------------------------*- C++ -*----------------------------------*\
  =========                 |
  \\      /  F ield         | OpenFOAM: The Open Source CFD Toolbox
   \\    /   O peration     | Website:  https://openfoam.org
    \\  /    A nd           | Version:  12
     \\/     M anipulation  |
\*---------------------------------------------------------------------------*/
FoamFile
{
    format      ascii;
    class       volScalarField;
    location    "800";
    object      nut;
}
// * * * * * * * * * * * * * * * * * * * * * * * * * * * * * * * * * * * * * //

dimensions      [0 2 -1 0 0 0 0];

internalField   nonuniform List<scalar> 
13056
(
1.4727536e-06
1.4728288e-06
1.4730796e-06
1.4734901e-06
1.4740176e-06
1.4746384e-06
1.4753381e-06
1.4761053e-06
1.4769309e-06
1.477808e-06
1.4787317e-06
1.4796993e-06
1.4807098e-06
1.4817645e-06
1.4828673e-06
1.4840242e-06
1.4852494e-06
1.486552e-06
1.48798e-06
1.4895226e-06
1.4913442e-06
1.4934488e-06
1.495655e-06
1.5016076e-06
2.8213219e-13
8.1490442e-14
6.5860924e-14
6.0894287e-14
5.7837083e-14
5.5352677e-14
5.3212854e-14
5.1340737e-14
4.9684266e-14
4.820105e-14
4.6859621e-14
4.5637142e-14
4.4516246e-14
4.3483071e-14
4.252627e-14
4.1636505e-14
4.0805973e-14
4.0028085e-14
3.9297154e-14
3.8608304e-14
3.7957336e-14
3.7340559e-14
3.6754841e-14
3.6197382e-14
3.5665659e-14
3.5157545e-14
3.4671098e-14
3.4204524e-14
3.3756284e-14
3.3325017e-14
3.2909422e-14
3.2508322e-14
3.212073e-14
3.174572e-14
3.1382383e-14
3.1029915e-14
3.0687641e-14
3.0354916e-14
3.0031084e-14
2.971556e-14
2.9407866e-14
2.9107539e-14
2.8814101e-14
2.852711e-14
2.8246194e-14
2.7971017e-14
2.7701239e-14
2.7436512e-14
2.7176522e-14
2.6921024e-14
2.6669767e-14
2.6422482e-14
2.6178913e-14
2.5938838e-14
2.570207e-14
2.5468414e-14
2.5237654e-14
2.5009585e-14
2.4784048e-14
2.456089e-14
2.4339944e-14
2.4121029e-14
2.3903975e-14
2.3688657e-14
2.3474944e-14
2.326268e-14
2.3051703e-14
2.2841874e-14
2.2633077e-14
2.2425187e-14
2.2218048e-14
2.2011502e-14
2.1805436e-14
2.1599733e-14
2.1394237e-14
2.1188788e-14
2.0983243e-14
2.0777479e-14
2.0571344e-14
2.036466e-14
2.0157263e-14
1.9949015e-14
1.9739737e-14
1.9529221e-14
1.931728e-14
1.9103736e-14
1.888836e-14
1.8670884e-14
1.8451146e-14
1.8233649e-14
1.8025195e-14
1.7827619e-14
1.7640022e-14
1.7461565e-14
1.7291489e-14
1.712915e-14
1.6973967e-14
1.6825389e-14
1.6682914e-14
1.6546123e-14
1.6414631e-14
1.6288072e-14
1.6166098e-14
1.6048369e-14
1.5934621e-14
1.582447e-14
1.5717841e-14
1.5613494e-14
1.5513108e-14
1.5409092e-14
1.5319016e-14
1.5169306e-14
1.4727536e-06
1.4728287e-06
1.4730795e-06
1.47349e-06
1.4740176e-06
1.4746385e-06
1.4753383e-06
1.4761056e-06
1.4769313e-06
1.4778085e-06
1.4787323e-06
1.4797e-06
1.4807106e-06
1.4817654e-06
1.4828682e-06
1.4840252e-06
1.4852505e-06
1.4865531e-06
1.4879812e-06
1.4895237e-06
1.4913451e-06
1.4934498e-06
1.4956549e-06
1.5016176e-06
2.0772606e-11
6.7195578e-12
5.4378121e-12
5.0281117e-12
4.7758534e-12
4.5709642e-12
4.3944879e-12
4.2400573e-12
4.1033842e-12
3.9809872e-12
3.8702785e-12
3.769378e-12
3.6768548e-12
3.5915668e-12
3.5125789e-12
3.4391216e-12
3.3705517e-12
3.3063257e-12
3.2459747e-12
3.1890966e-12
3.135345e-12
3.0844154e-12
3.0360494e-12
2.990016e-12
2.9461071e-12
2.904147e-12
2.8639755e-12
2.8254448e-12
2.7884276e-12
2.7528116e-12
2.7184896e-12
2.6853643e-12
2.6533542e-12
2.6223829e-12
2.5923754e-12
2.5632655e-12
2.5349971e-12
2.5075171e-12
2.4807716e-12
2.454712e-12
2.4292989e-12
2.4044941e-12
2.3802581e-12
2.3565546e-12
2.3333527e-12
2.3106246e-12
2.2883423e-12
2.2664771e-12
2.2450032e-12
2.2239001e-12
2.2031472e-12
2.1827223e-12
2.1626043e-12
2.1427748e-12
2.1232184e-12
2.1039189e-12
2.0848586e-12
2.0660205e-12
2.0473915e-12
2.0289589e-12
2.0107089e-12
1.9926267e-12
1.9746981e-12
1.9569129e-12
1.9392603e-12
1.9217271e-12
1.9043004e-12
1.8869683e-12
1.8697215e-12
1.8525496e-12
1.8354396e-12
1.8183786e-12
1.8013572e-12
1.7843657e-12
1.7673913e-12
1.7504208e-12
1.7334422e-12
1.7164455e-12
1.6994182e-12
1.6823454e-12
1.6652138e-12
1.6480117e-12
1.6307247e-12
1.6133352e-12
1.5958281e-12
1.5781884e-12
1.5603974e-12
1.5424329e-12
1.5242815e-12
1.5063151e-12
1.4890958e-12
1.472775e-12
1.4572785e-12
1.4425369e-12
1.4284877e-12
1.4150775e-12
1.4022586e-12
1.3899851e-12
1.3782158e-12
1.366916e-12
1.356054e-12
1.3455994e-12
1.3355235e-12
1.3257984e-12
1.3164021e-12
1.3073029e-12
1.2984947e-12
1.2898752e-12
1.2815827e-12
1.2729914e-12
1.2655505e-12
1.2531832e-12
1.4727534e-06
1.4728286e-06
1.4730793e-06
1.4734899e-06
1.4740176e-06
1.4746387e-06
1.4753388e-06
1.4761064e-06
1.4769324e-06
1.4778099e-06
1.478734e-06
1.479702e-06
1.4807129e-06
1.4817679e-06
1.482871e-06
1.4840281e-06
1.4852535e-06
1.4865562e-06
1.4879842e-06
1.4895267e-06
1.4913475e-06
1.4934522e-06
1.4956537e-06
1.5016242e-06
1.5040507e-10
5.3726581e-11
4.3585858e-11
4.0307275e-11
3.8288971e-11
3.6650658e-11
3.5239303e-11
3.4003722e-11
3.2909743e-11
3.1929735e-11
3.1043119e-11
3.0234908e-11
2.9493688e-11
2.8810341e-11
2.8177401e-11
2.7588723e-11
2.7039167e-11
2.6524387e-11
2.6040635e-11
2.5584694e-11
2.5153792e-11
2.4745495e-11
2.4357732e-11
2.3988657e-11
2.3636602e-11
2.3300161e-11
2.2978052e-11
2.2669091e-11
2.2372259e-11
2.2086654e-11
2.1811421e-11
2.1545779e-11
2.1289073e-11
2.1040694e-11
2.0800041e-11
2.0566582e-11
2.0339869e-11
2.0119474e-11
1.9904968e-11
1.969596e-11
1.9492134e-11
1.9293185e-11
1.9098796e-11
1.8908676e-11
1.8722576e-11
1.8540275e-11
1.8361548e-11
1.8186165e-11
1.8013919e-11
1.7844645e-11
1.7678179e-11
1.7514343e-11
1.7352968e-11
1.7193905e-11
1.7037031e-11
1.6882217e-11
1.6729321e-11
1.6578207e-11
1.6428768e-11
1.6280904e-11
1.6134504e-11
1.5989449e-11
1.5845625e-11
1.5702951e-11
1.5561339e-11
1.5420685e-11
1.5280884e-11
1.5141841e-11
1.5003481e-11
1.4865722e-11
1.4728458e-11
1.4591587e-11
1.4455033e-11
1.4318718e-11
1.418254e-11
1.4046391e-11
1.3910178e-11
1.3773818e-11
1.3637212e-11
1.3500241e-11
1.3362797e-11
1.3224786e-11
1.3086094e-11
1.2946579e-11
1.2806119e-11
1.2664595e-11
1.2521856e-11
1.2377725e-11
1.2232094e-11
1.2087946e-11
1.1949791e-11
1.1818845e-11
1.1694512e-11
1.1576235e-11
1.1463513e-11
1.1355918e-11
1.1253065e-11
1.115459e-11
1.1060159e-11
1.0969495e-11
1.0882344e-11
1.0798461e-11
1.0717617e-11
1.0639586e-11
1.0564195e-11
1.0491187e-11
1.0420514e-11
1.0351357e-11
1.0284822e-11
1.0215903e-11
1.0156201e-11
1.0056966e-11
1.4727532e-06
1.4728283e-06
1.473079e-06
1.4734897e-06
1.4740177e-06
1.4746391e-06
1.4753396e-06
1.4761077e-06
1.4769342e-06
1.4778122e-06
1.4787368e-06
1.4797053e-06
1.4807166e-06
1.481772e-06
1.4828755e-06
1.4840329e-06
1.4852585e-06
1.4865613e-06
1.4879892e-06
1.4895314e-06
1.4913514e-06
1.4934559e-06
1.495651e-06
1.5016274e-06
5.513664e-10
2.1754949e-10
1.7716845e-10
1.6387942e-10
1.5570269e-10
1.4906919e-10
1.4335235e-10
1.3834401e-10
1.3390671e-10
1.299298e-10
1.2633062e-10
1.2304881e-10
1.200383e-10
1.1726227e-10
1.1469058e-10
1.1229837e-10
1.1006485e-10
1.0797243e-10
1.0600593e-10
1.0415231e-10
1.0240034e-10
1.0074016e-10
9.9163371e-11
9.7662473e-11
9.6230719e-11
9.4862387e-11
9.3552281e-11
9.2295598e-11
9.1088196e-11
8.9926418e-11
8.8806788e-11
8.7726142e-11
8.6681813e-11
8.5671326e-11
8.4692246e-11
8.3742409e-11
8.2819989e-11
8.1923258e-11
8.1050465e-11
8.0200028e-11
7.9370657e-11
7.8561109e-11
7.7770104e-11
7.6996456e-11
7.6239156e-11
7.5497298e-11
7.4769972e-11
7.4056247e-11
7.3355273e-11
7.2666387e-11
7.1988916e-11
7.1322139e-11
7.0665367e-11
7.0018e-11
6.9379532e-11
6.8749439e-11
6.8127146e-11
6.7512096e-11
6.6903858e-11
6.6302022e-11
6.5706138e-11
6.5115724e-11
6.4530316e-11
6.3949578e-11
6.3373156e-11
6.280063e-11
6.223157e-11
6.1665592e-11
6.1102387e-11
6.054162e-11
5.9982868e-11
5.9425707e-11
5.8869832e-11
5.8314922e-11
5.7760565e-11
5.7206325e-11
5.6651816e-11
5.6096705e-11
5.5540586e-11
5.4982977e-11
5.4423437e-11
5.3861587e-11
5.3296953e-11
5.2728968e-11
5.2157131e-11
5.1580956e-11
5.0999831e-11
5.0413032e-11
4.9820116e-11
4.9233237e-11
4.8670754e-11
4.8137614e-11
4.7631396e-11
4.7149833e-11
4.6690883e-11
4.6252804e-11
4.5834033e-11
4.5433081e-11
4.5048596e-11
4.4679444e-11
4.4324592e-11
4.3983048e-11
4.3653875e-11
4.333616e-11
4.3029186e-11
4.2731921e-11
4.2444161e-11
4.2162586e-11
4.1891672e-11
4.1611121e-11
4.1368029e-11
4.0963946e-11
1.4727529e-06
1.4728279e-06
1.4730785e-06
1.4734894e-06
1.4740177e-06
1.4746397e-06
1.4753407e-06
1.4761095e-06
1.4769367e-06
1.4778154e-06
1.4787408e-06
1.4797099e-06
1.480722e-06
1.4817779e-06
1.4828819e-06
1.4840397e-06
1.4852656e-06
1.4865685e-06
1.4879962e-06
1.4895381e-06
1.4913566e-06
1.493461e-06
1.4956469e-06
1.5016269e-06
1.4566811e-09
6.3661991e-10
5.2136095e-10
4.824603e-10
4.5853239e-10
4.3912714e-10
4.2239035e-10
4.0771219e-10
3.9469507e-10
3.830203e-10
3.7244888e-10
3.6280558e-10
3.5395634e-10
3.4579388e-10
3.3823028e-10
3.3119301e-10
3.246213e-10
3.1846369e-10
3.1267577e-10
3.0721935e-10
3.0206154e-10
2.9717341e-10
2.9253032e-10
2.8811031e-10
2.8389358e-10
2.7986332e-10
2.7600427e-10
2.7230234e-10
2.6874537e-10
2.6532259e-10
2.6202381e-10
2.5883973e-10
2.5576251e-10
2.5278485e-10
2.4989964e-10
2.4710049e-10
2.4438202e-10
2.4173915e-10
2.3916675e-10
2.3666017e-10
2.3421558e-10
2.3182935e-10
2.294977e-10
2.2721717e-10
2.2498475e-10
2.227978e-10
2.2065362e-10
2.185495e-10
2.1648292e-10
2.1445192e-10
2.1245453e-10
2.1048863e-10
2.0855219e-10
2.0664344e-10
2.0476088e-10
2.0290298e-10
2.0106805e-10
1.9925444e-10
1.9746089e-10
1.9568617e-10
1.9392898e-10
1.9218789e-10
1.9046153e-10
1.8874891e-10
1.8704899e-10
1.8536054e-10
1.8368228e-10
1.8201308e-10
1.8035203e-10
1.7869815e-10
1.7705018e-10
1.7540689e-10
1.7376736e-10
1.7213065e-10
1.7049555e-10
1.6886077e-10
1.6722517e-10
1.6558777e-10
1.6394737e-10
1.6230256e-10
1.6065202e-10
1.5899465e-10
1.5732904e-10
1.5565352e-10
1.5396662e-10
1.5226689e-10
1.5055253e-10
1.4882141e-10
1.4707222e-10
1.4534081e-10
1.4368135e-10
1.4210844e-10
1.4061494e-10
1.3919416e-10
1.3784008e-10
1.3654757e-10
1.3531201e-10
1.3412901e-10
1.3299458e-10
1.3190539e-10
1.3085838e-10
1.2985063e-10
1.2887938e-10
1.2794192e-10
1.2703616e-10
1.2615904e-10
1.2530997e-10
1.2447918e-10
1.236798e-10
1.2285223e-10
1.2213495e-10
1.2094253e-10
1.4727525e-06
1.4728273e-06
1.4730779e-06
1.473489e-06
1.4740178e-06
1.4746404e-06
1.4753422e-06
1.4761118e-06
1.47694e-06
1.4778197e-06
1.478746e-06
1.479716e-06
1.4807289e-06
1.4817857e-06
1.4828903e-06
1.4840487e-06
1.4852749e-06
1.4865779e-06
1.4880053e-06
1.4895468e-06
1.4913633e-06
1.4934675e-06
1.4956409e-06
1.5016224e-06
3.1749945e-09
1.5428752e-09
1.2736234e-09
1.1795367e-09
1.1216066e-09
1.0746168e-09
1.0340324e-09
9.9838274e-10
9.667233e-10
9.3829932e-10
9.125416e-10
8.8903068e-10
8.6744452e-10
8.4752482e-10
8.2905963e-10
8.1187383e-10
7.9582049e-10
7.8077496e-10
7.6662961e-10
7.5329179e-10
7.4068164e-10
7.2872893e-10
7.173737e-10
7.0656259e-10
6.9624746e-10
6.863873e-10
6.7694501e-10
6.6788634e-10
6.5918153e-10
6.508044e-10
6.4273013e-10
6.3493605e-10
6.2740294e-10
6.2011309e-10
6.1304912e-10
6.0619546e-10
5.9953893e-10
5.9306715e-10
5.8676764e-10
5.80629e-10
5.7464188e-10
5.6879738e-10
5.6308637e-10
5.5750029e-10
5.5203186e-10
5.4667455e-10
5.4142185e-10
5.3626707e-10
5.3120411e-10
5.2622812e-10
5.2133429e-10
5.1651747e-10
5.1177269e-10
5.070956e-10
5.0248255e-10
4.9792977e-10
4.9343315e-10
4.8898868e-10
4.8459321e-10
4.8024378e-10
4.7593718e-10
4.7166994e-10
4.6743871e-10
4.6324103e-10
4.5907437e-10
4.549357e-10
4.5082193e-10
4.4673028e-10
4.4265849e-10
4.3860416e-10
4.3456427e-10
4.3053573e-10
4.2651631e-10
4.2250371e-10
4.1849497e-10
4.1448693e-10
4.1047679e-10
4.0646213e-10
4.0244004e-10
3.9840704e-10
3.9435991e-10
3.9029592e-10
3.8621164e-10
3.8210298e-10
3.779663e-10
3.7379807e-10
3.6959388e-10
3.653485e-10
3.6105868e-10
3.5681238e-10
3.5274244e-10
3.488847e-10
3.4522164e-10
3.4173687e-10
3.3841565e-10
3.3524537e-10
3.3221474e-10
3.29313e-10
3.2653036e-10
3.2385863e-10
3.2129034e-10
3.1881832e-10
3.164358e-10
3.1413618e-10
3.1191427e-10
3.0976263e-10
3.0767975e-10
3.0564183e-10
3.0368086e-10
3.0165133e-10
2.9989177e-10
2.9696624e-10
1.4727519e-06
1.4728266e-06
1.4730771e-06
1.4734884e-06
1.4740178e-06
1.4746412e-06
1.4753441e-06
1.4761148e-06
1.4769441e-06
1.477825e-06
1.4787525e-06
1.4797237e-06
1.4807377e-06
1.4817954e-06
1.4829008e-06
1.4840598e-06
1.4852864e-06
1.4865896e-06
1.4880167e-06
1.4895575e-06
1.4913715e-06
1.4934753e-06
1.4956329e-06
1.5016135e-06
6.0947535e-09
3.3065586e-09
2.7603059e-09
2.5601275e-09
2.4363511e-09
2.3358233e-09
2.2487933e-09
2.1721595e-09
2.103965e-09
2.0426466e-09
1.9870161e-09
1.9361914e-09
1.889492e-09
1.8463699e-09
1.8063746e-09
1.7691329e-09
1.734331e-09
1.7017021e-09
1.6710155e-09
1.6420724e-09
1.6147013e-09
1.5887511e-09
1.5640928e-09
1.5406116e-09
1.5182036e-09
1.4967803e-09
1.4762618e-09
1.4565742e-09
1.4376531e-09
1.4194419e-09
1.4018871e-09
1.3849397e-09
1.368558e-09
1.3527036e-09
1.3373392e-09
1.3224309e-09
1.3079502e-09
1.2938702e-09
1.2801639e-09
1.2668068e-09
1.2537784e-09
1.2410594e-09
1.2286302e-09
1.2164721e-09
1.2045694e-09
1.1929078e-09
1.1814732e-09
1.1702513e-09
1.1592287e-09
1.1483948e-09
1.1377393e-09
1.1272509e-09
1.1169189e-09
1.1067339e-09
1.0966878e-09
1.0867726e-09
1.0769792e-09
1.0672991e-09
1.0577252e-09
1.0482512e-09
1.0388702e-09
1.0295745e-09
1.0203569e-09
1.0112121e-09
1.0021344e-09
9.9311746e-10
9.8415443e-10
9.7523926e-10
9.6636704e-10
9.5753253e-10
9.4872918e-10
9.3995029e-10
9.3119095e-10
9.2244616e-10
9.1370949e-10
9.0497406e-10
8.9623376e-10
8.8748331e-10
8.7871636e-10
8.6992533e-10
8.6110324e-10
8.5224406e-10
8.4334036e-10
8.3438321e-10
8.2536467e-10
8.1627705e-10
8.0711071e-10
7.9785424e-10
7.8850058e-10
7.7924143e-10
7.7036659e-10
7.6195419e-10
7.5396608e-10
7.4636657e-10
7.3912353e-10
7.3220948e-10
7.2559981e-10
7.192711e-10
7.1320204e-10
7.0737474e-10
7.0177293e-10
6.9638101e-10
6.9118422e-10
6.8616816e-10
6.8132155e-10
6.7662818e-10
6.7208474e-10
6.6763956e-10
6.6336193e-10
6.5893627e-10
6.5509806e-10
6.4871534e-10
1.4727512e-06
1.4728258e-06
1.473076e-06
1.4734877e-06
1.4740177e-06
1.4746422e-06
1.4753463e-06
1.4761184e-06
1.4769491e-06
1.4778315e-06
1.4787604e-06
1.4797331e-06
1.4807483e-06
1.4818072e-06
1.4829136e-06
1.4840734e-06
1.4853004e-06
1.4866037e-06
1.4880303e-06
1.4895704e-06
1.4913812e-06
1.4934846e-06
1.4956223e-06
1.5015998e-06
1.0680875e-08
6.4903402e-09
5.5043746e-09
5.1181868e-09
4.8768732e-09
4.680238e-09
4.5093273e-09
4.3582738e-09
4.2234504e-09
4.1019473e-09
3.9915253e-09
3.8905046e-09
3.7975785e-09
3.711689e-09
3.6319631e-09
3.5576749e-09
3.4882118e-09
3.4230515e-09
3.3617413e-09
3.3038903e-09
3.2491606e-09
3.1972547e-09
3.1479173e-09
3.1009217e-09
3.0560627e-09
3.0131646e-09
2.972069e-09
2.9326296e-09
2.8947184e-09
2.8582229e-09
2.823037e-09
2.7890632e-09
2.7562184e-09
2.7244263e-09
2.6936127e-09
2.6637101e-09
2.6346614e-09
2.6064133e-09
2.5789121e-09
2.5521086e-09
2.5259619e-09
2.5004338e-09
2.4754849e-09
2.4510782e-09
2.4271819e-09
2.4037677e-09
2.3808075e-09
2.3582725e-09
2.3361361e-09
2.314377e-09
2.2929745e-09
2.2719064e-09
2.2511511e-09
2.2306895e-09
2.2105058e-09
2.1905835e-09
2.1709051e-09
2.1514529e-09
2.1322131e-09
2.1131729e-09
2.0943183e-09
2.0756344e-09
2.0571064e-09
2.0387235e-09
2.0204746e-09
2.0023468e-09
1.9843265e-09
1.9664016e-09
1.9485619e-09
1.9307972e-09
1.9130943e-09
1.8954397e-09
1.8778234e-09
1.8602356e-09
1.8426632e-09
1.8250925e-09
1.8075111e-09
1.7899084e-09
1.7722716e-09
1.7545856e-09
1.7368361e-09
1.7190112e-09
1.7010958e-09
1.6830721e-09
1.6649238e-09
1.6466357e-09
1.6281882e-09
1.6095584e-09
1.5907321e-09
1.572095e-09
1.5542305e-09
1.5372962e-09
1.5212153e-09
1.505916e-09
1.4913338e-09
1.4774134e-09
1.4641053e-09
1.4513625e-09
1.4391421e-09
1.4274081e-09
1.4161279e-09
1.40527e-09
1.3948047e-09
1.3847032e-09
1.3749427e-09
1.3654907e-09
1.3563404e-09
1.3473884e-09
1.3387731e-09
1.329863e-09
1.3221329e-09
1.3092752e-09
1.4727504e-06
1.4728247e-06
1.4730747e-06
1.4734867e-06
1.4740177e-06
1.4746433e-06
1.4753488e-06
1.4761225e-06
1.4769551e-06
1.4778392e-06
1.4787699e-06
1.4797442e-06
1.480761e-06
1.4818212e-06
1.4829288e-06
1.4840895e-06
1.4853171e-06
1.4866205e-06
1.4880464e-06
1.4895854e-06
1.4913924e-06
1.4934951e-06
1.4956087e-06
1.5015805e-06
1.745827e-08
1.1896903e-08
1.0314472e-08
9.6314907e-09
9.1953795e-09
8.8374959e-09
8.5243563e-09
8.2460042e-09
7.9964314e-09
7.7707486e-09
7.5651147e-09
7.376601e-09
7.2028992e-09
7.0421231e-09
6.8927058e-09
6.753337e-09
6.622905e-09
6.5004569e-09
6.3851646e-09
6.2763104e-09
6.1732725e-09
6.0755025e-09
5.9825284e-09
5.8939308e-09
5.8093296e-09
5.7283981e-09
5.6508421e-09
5.5763899e-09
5.5048026e-09
5.4358703e-09
5.3693956e-09
5.3051964e-09
5.2431168e-09
5.1830148e-09
5.1247514e-09
5.0682005e-09
5.0132544e-09
4.9598138e-09
4.9077782e-09
4.8570552e-09
4.8075677e-09
4.759244e-09
4.7120106e-09
4.6657979e-09
4.6205459e-09
4.5762013e-09
4.5327114e-09
4.4900224e-09
4.4480839e-09
4.4068556e-09
4.3662988e-09
4.3263716e-09
4.2870335e-09
4.2482485e-09
4.2099863e-09
4.1722164e-09
4.1349055e-09
4.0980205e-09
4.0615349e-09
4.0254247e-09
3.9896637e-09
3.9542235e-09
3.9190763e-09
3.8842015e-09
3.8495782e-09
3.8151821e-09
3.7809874e-09
3.746971e-09
3.713114e-09
3.6793967e-09
3.6457943e-09
3.6122812e-09
3.5788385e-09
3.5454472e-09
3.512083e-09
3.4787196e-09
3.4453336e-09
3.4119047e-09
3.3784088e-09
3.344817e-09
3.3111025e-09
3.2772421e-09
3.2432076e-09
3.2089647e-09
3.174483e-09
3.1397328e-09
3.1046775e-09
3.0692734e-09
3.0334929e-09
2.9980695e-09
2.9641124e-09
2.9319211e-09
2.9013501e-09
2.8722634e-09
2.8445384e-09
2.8180702e-09
2.792765e-09
2.7685335e-09
2.7452943e-09
2.722979e-09
2.7015257e-09
2.6808748e-09
2.66097e-09
2.6417563e-09
2.6231905e-09
2.6052111e-09
2.5878051e-09
2.570777e-09
2.5543878e-09
2.5374444e-09
2.5227398e-09
2.4982733e-09
1.4727494e-06
1.4728234e-06
1.4730732e-06
1.4734856e-06
1.4740175e-06
1.4746445e-06
1.4753517e-06
1.4761274e-06
1.4769619e-06
1.4778481e-06
1.4787809e-06
1.4797571e-06
1.4807757e-06
1.4818376e-06
1.4829466e-06
1.4841082e-06
1.4853364e-06
1.4866399e-06
1.488065e-06
1.4896027e-06
1.4914049e-06
1.4935069e-06
1.4955914e-06
1.501555e-06
2.6979888e-08
2.0576322e-08
1.8382421e-08
1.7281621e-08
1.6548993e-08
1.5939321e-08
1.5399865e-08
1.4915972e-08
1.4479074e-08
1.4081925e-08
1.3718613e-08
1.3384499e-08
1.3075846e-08
1.2789549e-08
1.2523e-08
1.2273995e-08
1.2040648e-08
1.182133e-08
1.1614617e-08
1.1419271e-08
1.1234211e-08
1.1058485e-08
1.0891267e-08
1.0731824e-08
1.057949e-08
1.0433689e-08
1.0293904e-08
1.0159655e-08
1.003052e-08
9.9061266e-09
9.7861264e-09
9.670196e-09
9.5580579e-09
9.4494597e-09
9.3441552e-09
9.2419191e-09
9.142559e-09
9.0458978e-09
8.9517574e-09
8.8599719e-09
8.7704031e-09
8.6829229e-09
8.5974004e-09
8.513711e-09
8.4317466e-09
8.3514117e-09
8.2726123e-09
8.1952518e-09
8.1192398e-09
8.0445035e-09
7.9709733e-09
7.8985747e-09
7.8272346e-09
7.7568879e-09
7.6874801e-09
7.6189564e-09
7.5512571e-09
7.4843225e-09
7.4181047e-09
7.35256e-09
7.2876417e-09
7.2232985e-09
7.1594803e-09
7.0961494e-09
7.0332684e-09
6.9707931e-09
6.9086774e-09
6.8468789e-09
6.7853634e-09
6.7240952e-09
6.6630298e-09
6.6021208e-09
6.5413333e-09
6.4806331e-09
6.4199761e-09
6.3593148e-09
6.2986063e-09
6.2378137e-09
6.1768932e-09
6.1157925e-09
6.0544626e-09
5.9928611e-09
5.9309368e-09
5.8686273e-09
5.805877e-09
5.7426318e-09
5.6788249e-09
5.6143766e-09
5.5492365e-09
5.4847398e-09
5.4229069e-09
5.364284e-09
5.3086067e-09
5.2556283e-09
5.205126e-09
5.1569093e-09
5.1108078e-09
5.0666593e-09
5.024316e-09
4.9836536e-09
4.9445593e-09
4.9069251e-09
4.8706486e-09
4.8356299e-09
4.8017905e-09
4.7690184e-09
4.7372902e-09
4.7062519e-09
4.6763749e-09
4.6455004e-09
4.6186954e-09
4.5740772e-09
1.4727482e-06
1.4728219e-06
1.4730713e-06
1.4734841e-06
1.4740171e-06
1.4746458e-06
1.475355e-06
1.4761329e-06
1.4769698e-06
1.4778584e-06
1.4787935e-06
1.479772e-06
1.4807927e-06
1.4818565e-06
1.4829669e-06
1.4841297e-06
1.4853585e-06
1.486662e-06
1.4880861e-06
1.4896222e-06
1.4914187e-06
1.4935197e-06
1.4955697e-06
1.5015222e-06
3.9773665e-08
3.3761837e-08
3.1349208e-08
2.9776147e-08
2.864444e-08
2.7677085e-08
2.6804654e-08
2.6010575e-08
2.5285712e-08
2.4621385e-08
2.4009861e-08
2.3444728e-08
2.2920588e-08
2.2432812e-08
2.1977427e-08
2.1551019e-08
2.115062e-08
2.0773633e-08
2.0417766e-08
2.0081005e-08
1.9761589e-08
1.9457951e-08
1.9168729e-08
1.8892707e-08
1.8628778e-08
1.8375977e-08
1.8133439e-08
1.7900359e-08
1.7676025e-08
1.7459809e-08
1.7251122e-08
1.7049416e-08
1.6854219e-08
1.6665104e-08
1.6481651e-08
1.6303477e-08
1.6130251e-08
1.5961673e-08
1.5797438e-08
1.5637263e-08
1.5480908e-08
1.5328155e-08
1.5178781e-08
1.5032571e-08
1.4889337e-08
1.4748917e-08
1.4611148e-08
1.4475864e-08
1.434291e-08
1.4212159e-08
1.4083491e-08
1.3956778e-08
1.3831894e-08
1.3708725e-08
1.3587177e-08
1.3467155e-08
1.3348557e-08
1.3231278e-08
1.3115236e-08
1.3000353e-08
1.288655e-08
1.2773738e-08
1.2661828e-08
1.2550756e-08
1.2440455e-08
1.233085e-08
1.2221859e-08
1.211341e-08
1.2005441e-08
1.189789e-08
1.1790681e-08
1.1683731e-08
1.1576979e-08
1.1470366e-08
1.1363814e-08
1.125724e-08
1.1150568e-08
1.1043733e-08
1.093666e-08
1.0829255e-08
1.0721433e-08
1.0613118e-08
1.0504221e-08
1.0394632e-08
1.0284252e-08
1.0172987e-08
1.0060717e-08
9.947304e-09
9.8326569e-09
9.719126e-09
9.6102693e-09
9.5070507e-09
9.4090063e-09
9.3157036e-09
9.2267519e-09
9.1418168e-09
9.0605994e-09
8.9828152e-09
8.9082048e-09
8.8365497e-09
8.7676521e-09
8.7013223e-09
8.6373807e-09
8.5756517e-09
8.5159973e-09
8.4582213e-09
8.4022818e-09
8.34756e-09
8.2948787e-09
8.2404624e-09
8.1932008e-09
8.1144892e-09
1.4727468e-06
1.4728201e-06
1.473069e-06
1.4734822e-06
1.4740166e-06
1.4746471e-06
1.4753586e-06
1.476139e-06
1.4769786e-06
1.47787e-06
1.4788078e-06
1.4797889e-06
1.480812e-06
1.4818778e-06
1.48299e-06
1.4841541e-06
1.4853835e-06
1.4866869e-06
1.4881096e-06
1.4896437e-06
1.4914334e-06
1.4935332e-06
1.4955425e-06
1.5014809e-06
5.6265153e-08
5.2724291e-08
5.1265929e-08
4.9409962e-08
4.7850903e-08
4.6447659e-08
4.5139379e-08
4.3919637e-08
4.2786447e-08
4.1734262e-08
4.0756092e-08
3.9845123e-08
3.8994958e-08
3.8199708e-08
3.7454077e-08
3.6753355e-08
3.6093325e-08
3.5470207e-08
3.4880604e-08
3.4321489e-08
3.3790185e-08
3.3284287e-08
3.2801684e-08
3.2340483e-08
3.1898946e-08
3.1475546e-08
3.1068915e-08
3.0677772e-08
3.0300972e-08
2.9937508e-08
2.9586435e-08
2.9246867e-08
2.8918035e-08
2.8599246e-08
2.8289824e-08
2.7989138e-08
2.7696647e-08
2.741186e-08
2.7134281e-08
2.6863441e-08
2.6598946e-08
2.6340437e-08
2.6087547e-08
2.583992e-08
2.5597247e-08
2.5359255e-08
2.5125678e-08
2.4896242e-08
2.4670687e-08
2.44488e-08
2.4230383e-08
2.4015224e-08
2.3803112e-08
2.3593857e-08
2.3387301e-08
2.3183287e-08
2.2981642e-08
2.2782193e-08
2.2584799e-08
2.2389331e-08
2.2195656e-08
2.2003624e-08
2.1813088e-08
2.1623934e-08
2.1436055e-08
2.1249322e-08
2.1063598e-08
2.0878758e-08
2.0694699e-08
2.0511317e-08
2.032848e-08
2.0146052e-08
1.9963925e-08
1.9781999e-08
1.9600143e-08
1.9418215e-08
1.9236086e-08
1.9053645e-08
1.8870761e-08
1.8687277e-08
1.8503046e-08
1.8317938e-08
1.81318e-08
1.7944444e-08
1.7755701e-08
1.7565407e-08
1.7373361e-08
1.717932e-08
1.6983131e-08
1.6788813e-08
1.6602462e-08
1.6425731e-08
1.6257832e-08
1.6098027e-08
1.5945651e-08
1.5800134e-08
1.5660968e-08
1.5527667e-08
1.5399789e-08
1.5276961e-08
1.5158846e-08
1.5045121e-08
1.4935479e-08
1.482962e-08
1.472731e-08
1.4628213e-08
1.4532257e-08
1.4438391e-08
1.4348011e-08
1.4254697e-08
1.4173621e-08
1.4038499e-08
1.4727451e-06
1.4728179e-06
1.4730663e-06
1.47348e-06
1.4740157e-06
1.4746484e-06
1.4753624e-06
1.4761457e-06
1.4769884e-06
1.4778829e-06
1.4788238e-06
1.4798078e-06
1.4808336e-06
1.4819017e-06
1.4830158e-06
1.4841812e-06
1.4854112e-06
1.4867144e-06
1.4881354e-06
1.489667e-06
1.4914486e-06
1.4935469e-06
1.4955086e-06
1.5014297e-06
7.6690738e-08
7.8549698e-08
8.0376355e-08
7.8958863e-08
7.7176365e-08
7.5390275e-08
7.3620867e-08
7.1902409e-08
7.0259067e-08
6.8700663e-08
6.7228737e-08
6.5840965e-08
6.4532993e-08
6.3299572e-08
6.2135292e-08
6.1034901e-08
5.9993363e-08
5.9005927e-08
5.8068158e-08
5.7175994e-08
5.6325766e-08
5.5514117e-08
5.4738052e-08
5.399486e-08
5.3282013e-08
5.2597268e-08
5.1938602e-08
5.1304107e-08
5.0692059e-08
5.0100939e-08
4.9529313e-08
4.897583e-08
4.8439304e-08
4.7918674e-08
4.7412896e-08
4.6920991e-08
4.6442114e-08
4.59755e-08
4.5520378e-08
4.507601e-08
4.4641773e-08
4.4217102e-08
4.3801421e-08
4.3394168e-08
4.2994848e-08
4.2603028e-08
4.2218287e-08
4.184019e-08
4.1468317e-08
4.1102329e-08
4.074191e-08
4.0386722e-08
4.0036424e-08
3.969071e-08
3.9349324e-08
3.9012014e-08
3.8678503e-08
3.834851e-08
3.8021803e-08
3.7698176e-08
3.7377412e-08
3.7059269e-08
3.6743505e-08
3.6429935e-08
3.6118382e-08
3.5808638e-08
3.5500479e-08
3.5193697e-08
3.4888124e-08
3.4583589e-08
3.4279877e-08
3.3976759e-08
3.367406e-08
3.3371611e-08
3.30692e-08
3.2766589e-08
3.2463563e-08
3.2159937e-08
3.1855494e-08
3.1549975e-08
3.1243131e-08
3.0934746e-08
3.0624564e-08
3.0312274e-08
2.9997588e-08
2.9680233e-08
2.9359872e-08
2.90361e-08
2.8708655e-08
2.8384249e-08
2.8073062e-08
2.7777868e-08
2.7497361e-08
2.7230319e-08
2.6975638e-08
2.6732373e-08
2.649968e-08
2.6276754e-08
2.6062861e-08
2.5857381e-08
2.5659753e-08
2.5469442e-08
2.5285937e-08
2.5108741e-08
2.4937461e-08
2.4771541e-08
2.4610862e-08
2.4453679e-08
2.4302304e-08
2.414609e-08
2.4010312e-08
2.3783821e-08
1.4727431e-06
1.4728154e-06
1.473063e-06
1.4734772e-06
1.4740145e-06
1.4746494e-06
1.4753663e-06
1.4761529e-06
1.476999e-06
1.477897e-06
1.4788414e-06
1.4798287e-06
1.4808574e-06
1.4819281e-06
1.4830442e-06
1.4842109e-06
1.4854415e-06
1.4867443e-06
1.4881632e-06
1.4896916e-06
1.4914638e-06
1.4935602e-06
1.4954667e-06
1.5013668e-06
1.0101576e-07
1.1187788e-07
1.2072578e-07
1.2131833e-07
1.1998085e-07
1.1816889e-07
1.1612827e-07
1.139915e-07
1.1184412e-07
1.0973533e-07
1.0769171e-07
1.0572666e-07
1.038455e-07
1.0204887e-07
1.0033498e-07
9.8700723e-08
9.7142141e-08
9.5654837e-08
9.4234271e-08
9.2875996e-08
9.1575804e-08
9.0329689e-08
8.9133964e-08
8.7985214e-08
8.6880173e-08
8.5815878e-08
8.4789636e-08
8.379886e-08
8.2841176e-08
8.1914477e-08
8.1016768e-08
8.0146129e-08
7.930087e-08
7.8479475e-08
7.7680446e-08
7.6902354e-08
7.6143963e-08
7.5404158e-08
7.4681809e-08
7.3975817e-08
7.3285251e-08
7.2609278e-08
7.1947039e-08
7.1297688e-08
7.0660475e-08
7.0034747e-08
6.9419873e-08
6.8815191e-08
6.8220061e-08
6.7633958e-08
6.7056405e-08
6.6486887e-08
6.5924879e-08
6.5369906e-08
6.482157e-08
6.4279486e-08
6.3743227e-08
6.3212353e-08
6.2686499e-08
6.2165346e-08
6.1648556e-08
6.1135751e-08
6.0626549e-08
6.0120654e-08
5.9617791e-08
5.9117632e-08
5.8619822e-08
5.8124031e-08
5.7629986e-08
5.7137418e-08
5.6645986e-08
5.6155323e-08
5.5665143e-08
5.5175177e-08
5.4685085e-08
5.4194484e-08
5.3703024e-08
5.3210403e-08
5.2716274e-08
5.2220215e-08
5.1721819e-08
5.1220735e-08
5.0716546e-08
5.0208743e-08
4.9696856e-08
4.9180436e-08
4.8658932e-08
4.8131681e-08
4.7598248e-08
4.7069567e-08
4.6562247e-08
4.6080838e-08
4.562323e-08
4.5187456e-08
4.4771735e-08
4.4374537e-08
4.3994498e-08
4.3630322e-08
4.3280817e-08
4.2944982e-08
4.2621909e-08
4.2310731e-08
4.2010623e-08
4.1720777e-08
4.1440555e-08
4.1169059e-08
4.0906094e-08
4.0648837e-08
4.0401025e-08
4.0145416e-08
3.9923158e-08
3.9551998e-08
1.4727408e-06
1.4728124e-06
1.4730592e-06
1.4734738e-06
1.4740127e-06
1.4746502e-06
1.4753703e-06
1.4761604e-06
1.4770103e-06
1.4779122e-06
1.4788604e-06
1.4798513e-06
1.4808832e-06
1.4819567e-06
1.4830749e-06
1.4842431e-06
1.485474e-06
1.4867761e-06
1.4881923e-06
1.489717e-06
1.491478e-06
1.4935721e-06
1.4954148e-06
1.5012903e-06
1.2887282e-07
1.5266956e-07
1.7369158e-07
1.7893622e-07
1.7940508e-07
1.7842162e-07
1.7668785e-07
1.7452218e-07
1.7212292e-07
1.6961507e-07
1.6707694e-07
1.6455702e-07
1.6208413e-07
1.5967497e-07
1.5733904e-07
1.5508116e-07
1.5290288e-07
1.5080352e-07
1.48781e-07
1.4683246e-07
1.4495471e-07
1.4314431e-07
1.4139781e-07
1.3971182e-07
1.3808291e-07
1.3650781e-07
1.349835e-07
1.3350696e-07
1.3207535e-07
1.3068611e-07
1.2933678e-07
1.2802493e-07
1.267484e-07
1.2550524e-07
1.2429351e-07
1.231113e-07
1.2195696e-07
1.2082901e-07
1.1972592e-07
1.1864619e-07
1.1758852e-07
1.1655179e-07
1.1553479e-07
1.1453635e-07
1.135554e-07
1.1259102e-07
1.1164233e-07
1.1070839e-07
1.0978827e-07
1.0888121e-07
1.0798654e-07
1.0710351e-07
1.0623136e-07
1.0536939e-07
1.0451701e-07
1.0367367e-07
1.0283875e-07
1.0201158e-07
1.0119162e-07
1.0037839e-07
9.9571407e-08
9.8770092e-08
9.7973871e-08
9.7182293e-08
9.6394942e-08
9.5611327e-08
9.4830907e-08
9.4053171e-08
9.3277701e-08
9.2504084e-08
9.17318e-08
9.0960277e-08
9.0189067e-08
8.9417753e-08
8.8645808e-08
8.7872632e-08
8.7097672e-08
8.6320452e-08
8.5540429e-08
8.4756936e-08
8.3969327e-08
8.3177041e-08
8.2379419e-08
8.1575651e-08
8.0764984e-08
7.9946699e-08
7.9119915e-08
7.8283573e-08
7.7436965e-08
7.6597444e-08
7.5791426e-08
7.5026197e-08
7.4298463e-08
7.3605146e-08
7.2943457e-08
7.2310997e-08
7.1705631e-08
7.1125322e-08
7.0568202e-08
7.0032692e-08
6.951737e-08
6.902087e-08
6.8541896e-08
6.8079172e-08
6.7631695e-08
6.7198047e-08
6.6777923e-08
6.6366873e-08
6.5970785e-08
6.5562439e-08
6.5207213e-08
6.461319e-08
1.4727382e-06
1.472809e-06
1.4730546e-06
1.4734696e-06
1.4740102e-06
1.4746505e-06
1.475374e-06
1.476168e-06
1.4770222e-06
1.4779283e-06
1.4788806e-06
1.4798754e-06
1.4809108e-06
1.4819872e-06
1.4831076e-06
1.4842771e-06
1.4855082e-06
1.4868092e-06
1.4882221e-06
1.4897422e-06
1.4914901e-06
1.4935813e-06
1.4953508e-06
1.5011976e-06
1.5953119e-07
2.00081e-07
2.3955807e-07
2.5322681e-07
2.5768405e-07
2.5900797e-07
2.5867873e-07
2.5731827e-07
2.55301e-07
2.5287264e-07
2.501977e-07
2.473859e-07
2.4450928e-07
2.4161558e-07
2.3873734e-07
2.3589674e-07
2.3310827e-07
2.3038082e-07
2.2771953e-07
2.2512697e-07
2.2260408e-07
2.2015054e-07
2.1776523e-07
2.1544653e-07
2.1319222e-07
2.1099991e-07
2.0886719e-07
2.0679144e-07
2.0476997e-07
2.0280032e-07
2.0088004e-07
1.9900655e-07
1.9717752e-07
1.9539083e-07
1.9364431e-07
1.9193574e-07
1.9026319e-07
1.8862493e-07
1.8701915e-07
1.8544397e-07
1.838978e-07
1.8237924e-07
1.8088684e-07
1.7941905e-07
1.7797451e-07
1.7655205e-07