/*--------------------------------*- C++ -*----------------------------------*\
  =========                 |
  \\      /  F ield         | OpenFOAM: The Open Source CFD Toolbox
   \\    /   O peration     | Website:  https://openfoam.org
    \\  /    A nd           | Version:  12
     \\/     M anipulation  |
\*---------------------------------------------------------------------------*/
FoamFile
{
    format      ascii;
    class       volScalarField;
    location    "800";
    object      nut;
}
// * * * * * * * * * * * * * * * * * * * * * * * * * * * * * * * * * * * * * //

dimensions      [0 2 -1 0 0 0 0];

internalField   nonuniform List<scalar> 
7480
(
1.095404e-06
7.3198279e-07
5.7319876e-07
5.3754791e-07
5.6333706e-07
6.3800253e-07
7.698816e-07
9.7538151e-07
1.2765746e-06
1.6971067e-06
2.2565413e-06
2.970841e-06
3.8453358e-06
4.8394277e-06
5.8328276e-06
6.6690041e-06
7.2489533e-06
7.5692881e-06
7.7065201e-06
7.6743519e-06
7.5832902e-06
7.455723e-06
7.3083264e-06
7.1657487e-06
7.0577496e-06
6.9896521e-06
6.9532693e-06
6.9376691e-06
6.9351357e-06
6.9413727e-06
6.9525896e-06
6.9651857e-06
6.977245e-06
6.9556354e-06
6.9189282e-06
6.8825099e-06
6.8508273e-06
6.8247122e-06
6.8031019e-06
6.7841722e-06
6.7663595e-06
6.7488533e-06
6.7314561e-06
6.7146317e-06
6.7011592e-06
6.6984942e-06
6.7348715e-06
6.8771928e-06
7.2285252e-06
7.8071191e-06
8.339824e-06
8.6827682e-06
8.9493189e-06
9.1465028e-06
9.2774183e-06
9.3600353e-06
9.4139733e-06
9.4530362e-06
9.483493e-06
9.5089666e-06
9.5310143e-06
9.5503986e-06
9.567749e-06
9.5836883e-06
9.5985919e-06
9.6127921e-06
9.6266802e-06
9.6404781e-06
9.654277e-06
9.6681697e-06
9.6822803e-06
9.6967436e-06
9.7116877e-06
9.7272318e-06
9.7434905e-06
9.7605747e-06
9.7785918e-06
9.7976462e-06
9.8178351e-06
9.8392446e-06
9.8619484e-06
9.8859916e-06
9.9112955e-06
9.9368865e-06
9.9510668e-06
9.7039873e-06
4.298135e-06
4.0041102e-06
4.0299394e-06
4.0472788e-06
4.057756e-06
4.065775e-06
4.0712357e-06
4.0746631e-06
4.0765898e-06
4.0774125e-06
4.077364e-06
4.076681e-06
4.0754221e-06
4.0712813e-06
1.4056998e-06
1.3384384e-06
1.2648289e-06
1.1915891e-06
1.1209968e-06
1.0548717e-06
9.926642e-07
9.4414701e-07
8.9665812e-07
9.1183241e-07
9.6057375e-07
1.0527951e-06
1.2032233e-06
1.4336905e-06
1.7642493e-06
2.2001411e-06
2.7510218e-06
3.3854513e-06
4.0865485e-06
4.8527625e-06
5.679439e-06
6.4687765e-06
7.1938711e-06
7.859398e-06
8.4629728e-06
9.005054e-06
9.489663e-06
9.9234745e-06
1.0318383e-05
1.0686353e-05
1.1030685e-05
1.1351341e-05
1.1644673e-05
1.1904979e-05
1.2135293e-05
1.2344913e-05
1.2543756e-05
1.2746032e-05
1.2956787e-05
1.3174903e-05
1.3397233e-05
1.3621254e-05
1.3844941e-05
1.4065933e-05
1.4285307e-05
1.4486159e-05
1.4678841e-05
1.489206e-05
1.5170956e-05
1.5543172e-05
1.5949956e-05
1.6319661e-05
1.6638058e-05
1.6904354e-05
1.7128378e-05
1.7320901e-05
1.7490866e-05
1.7646207e-05
1.779264e-05
1.7934166e-05
1.807104e-05
1.8202906e-05
1.8330017e-05
1.8453202e-05
1.857269e-05
1.8689038e-05
1.8803261e-05
1.8915782e-05
1.9026631e-05
1.9135892e-05
1.9243778e-05
1.9350554e-05
1.9456483e-05
1.9561807e-05
1.9666758e-05
1.9771558e-05
1.987642e-05
1.9981546e-05
2.0087125e-05
2.0193321e-05
2.0300279e-05
2.0408083e-05
2.0516572e-05
2.0623869e-05
2.0707902e-05
2.0527896e-05
1.7373053e-05
1.5971923e-05
1.4918071e-05
1.4262039e-05
1.382733e-05
1.3533083e-05
1.3325688e-05
1.3175662e-05
1.3064625e-05
1.2980824e-05
1.2916205e-05
1.2865661e-05
1.2825094e-05
1.279166e-05
1.4383294e-06
1.4148238e-06
1.3887104e-06
1.3613021e-06
1.3329752e-06
1.303182e-06
1.2716626e-06
1.2383593e-06
1.2032293e-06
1.168658e-06
1.135829e-06
1.1061269e-06
1.0813814e-06
1.0634182e-06
1.0465131e-06
1.0486795e-06
1.0650266e-06
1.1240027e-06
1.2368012e-06
1.416081e-06
1.67857e-06
2.0404403e-06
2.50446e-06
3.0904285e-06
3.7675475e-06
4.5291834e-06
5.388753e-06
6.296279e-06
7.2139017e-06
8.1136797e-06
8.9726531e-06
9.7721396e-06
1.0486896e-05
1.1132792e-05
1.173958e-05
1.232619e-05
1.2895331e-05
1.3446073e-05
1.3973311e-05
1.4480295e-05
1.4971008e-05
1.5449187e-05
1.5915415e-05
1.6368044e-05
1.6807506e-05
1.7231068e-05
1.7637249e-05
1.8029415e-05
1.8426815e-05
1.8840945e-05
1.9265622e-05
1.9688799e-05
2.0093607e-05
2.0476115e-05
2.083871e-05
2.1182522e-05
2.1508193e-05
2.1820268e-05
2.2124359e-05
2.2423926e-05
2.271595e-05
2.2999287e-05
2.3274164e-05
2.3541612e-05
2.3801168e-05
2.4053862e-05
2.4301279e-05
2.4543588e-05
2.4780539e-05
2.5012138e-05
2.5238598e-05
2.5460182e-05
2.5677148e-05
2.5889732e-05
2.6098158e-05
2.6302645e-05
2.6503403e-05
2.6700641e-05
2.689456e-05
2.7085351e-05
2.7273197e-05
2.7458249e-05
2.7640475e-05
2.7818766e-05
2.7979438e-05
2.7998824e-05
2.6868306e-05
2.62737e-05
2.5821131e-05
2.5545185e-05
2.537794e-05
2.5283216e-05
2.5232124e-05
2.5207464e-05
2.519857e-05
2.5199429e-05
2.5204337e-05
2.5215352e-05
2.521562e-05
2.524967e-05
1.4479873e-06
1.4361888e-06
1.4233073e-06
1.4098209e-06
1.3958354e-06
1.3813535e-06
1.3663743e-06
1.3507552e-06
1.3344543e-06
1.3172681e-06
1.2991131e-06
1.2798931e-06
1.2596034e-06
1.2385577e-06
1.2175754e-06
1.1971358e-06
1.1774722e-06
1.159419e-06
1.1448078e-06
1.1344558e-06
1.1288076e-06
1.133288e-06
1.1494022e-06
1.1912256e-06
1.281625e-06
1.4346608e-06
1.6706316e-06
2.0096857e-06
2.4663358e-06
3.066913e-06
3.8060779e-06
4.6631316e-06
5.6374638e-06
6.6754337e-06
7.7300675e-06
8.7674459e-06
9.7654553e-06
1.0713443e-05
1.1611613e-05
1.2466365e-05
1.3286491e-05
1.4081017e-05
1.4845705e-05
1.5580407e-05
1.6302156e-05
1.7012959e-05
1.7701441e-05
1.8365187e-05
1.9010117e-05
1.964099e-05
2.0259931e-05
2.0866215e-05
2.1458974e-05
2.2036412e-05
2.2596314e-05
2.3137188e-05
2.3658618e-05
2.4169979e-05
2.467532e-05
2.5175525e-05
2.5660903e-05
2.6133025e-05
2.659301e-05
2.704217e-05
2.7478522e-05
2.7905117e-05
2.8323687e-05
2.8733407e-05
2.9133885e-05
2.9525253e-05
2.990777e-05
3.0281688e-05
3.064723e-05
3.1004593e-05
3.1353956e-05
3.1695486e-05
3.2029336e-05
3.2355653e-05
3.2674577e-05
3.2986238e-05
3.3290766e-05
3.3588278e-05
3.387879e-05
3.4162003e-05
3.4432406e-05
3.464894e-05
3.4505247e-05
3.4473181e-05
3.446222e-05
3.4502661e-05
3.4582972e-05
3.4693759e-05
3.482307e-05
3.4962019e-05
3.5104375e-05
3.5247299e-05
3.5385253e-05
3.5527978e-05
3.5634027e-05
3.5847036e-05
1.4527547e-06
1.4457401e-06
1.4381655e-06
1.4302549e-06
1.4220542e-06
1.4135663e-06
1.4047862e-06
1.3957035e-06
1.3863083e-06
1.3765778e-06
1.3664817e-06
1.3559811e-06
1.3450332e-06
1.333586e-06
1.3216567e-06
1.3092126e-06
1.2962718e-06
1.2827042e-06
1.2684679e-06
1.2538582e-06
1.2393498e-06
1.2252152e-06
1.2117102e-06
1.199491e-06
1.1905629e-06
1.1821979e-06
1.1833873e-06
1.1906605e-06
1.2130347e-06
1.2563061e-06
1.352647e-06
1.5235615e-06
1.796289e-06
2.1978243e-06
2.7470575e-06
3.4847284e-06
4.3700918e-06
5.3922075e-06
6.5273577e-06
7.7182395e-06
8.9194677e-06
1.0097494e-05
1.1232948e-05
1.2320276e-05
1.3365561e-05
1.4380211e-05
1.5370367e-05
1.6334994e-05
1.7272613e-05
1.8183839e-05
1.9071441e-05
1.9932968e-05
2.0779967e-05
2.1606382e-05
2.2412389e-05
2.3198109e-05
2.3963124e-05
2.4710705e-05
2.5443991e-05
2.616553e-05
2.6872441e-05
2.7564024e-05
2.8240356e-05
2.8902586e-05
2.9545167e-05
3.0178537e-05
3.0801411e-05
3.1410791e-05
3.2007207e-05
3.2591186e-05
3.3163081e-05
3.3723167e-05
3.4271683e-05
3.480884e-05
3.5334831e-05
3.5849828e-05
3.6353985e-05
3.6847445e-05
3.7330342e-05
3.7802795e-05
3.8264926e-05
3.8716846e-05
3.9158603e-05
3.959027e-05
4.0010015e-05
4.0407608e-05
4.0701292e-05
4.1005343e-05
4.129345e-05
4.1580866e-05
4.1873031e-05
4.2172232e-05
4.2475703e-05
4.2779592e-05
4.3080169e-05
4.3376369e-05
4.3661857e-05
4.3953553e-05
4.4181971e-05
4.4608945e-05
1.4557511e-06
1.4511668e-06
1.4462477e-06
1.4411174e-06
1.4358004e-06
1.4302968e-06
1.4246012e-06
1.4187072e-06
1.4126087e-06
1.4062989e-06
1.3997719e-06
1.3930211e-06
1.3860408e-06
1.378823e-06
1.3713586e-06
1.3636346e-06
1.3556374e-06
1.3473473e-06
1.3387334e-06
1.3297636e-06
1.3204293e-06
1.3106954e-06
1.300617e-06
1.289852e-06
1.2787072e-06
1.2674018e-06
1.2563056e-06
1.245646e-06
1.2356454e-06
1.2278161e-06
1.2195207e-06
1.2197531e-06
1.2245316e-06
1.240919e-06
1.2777103e-06
1.3527186e-06
1.503248e-06
1.7603049e-06
2.1602281e-06
2.7292459e-06
3.5253492e-06
4.5031002e-06
5.6482316e-06
6.9268422e-06
8.2727788e-06
9.632138e-06
1.0967544e-05
1.2261822e-05
1.3514143e-05
1.4731043e-05
1.5918651e-05
1.7078191e-05
1.8210051e-05
1.9315634e-05
2.0396258e-05
2.1453219e-05
2.2486492e-05
2.3496609e-05
2.4485604e-05
2.5456241e-05
2.6408971e-05
2.7343535e-05
2.8259776e-05
2.9158522e-05
3.0037249e-05
3.0899878e-05
3.1747499e-05
3.257942e-05
3.3395554e-05
3.4196197e-05
3.49817e-05
3.5752376e-05
3.6508509e-05
3.7250353e-05
3.7978139e-05
3.8692076e-05
3.9392351e-05
4.0079135e-05
4.0752585e-05
4.1412844e-05
4.2060049e-05
4.269433e-05
4.3315766e-05
4.3924562e-05
4.4520287e-05
4.5101971e-05
4.5653485e-05
4.6195699e-05
4.6715014e-05
4.7215497e-05
4.7704217e-05
4.8187039e-05
4.866561e-05
4.9139082e-05
4.9605247e-05
5.006417e-05
5.0508305e-05
5.0961592e-05
5.1324212e-05
5.199026e-05
1.4579157e-06
1.4547182e-06
1.451306e-06
1.4477525e-06
1.4440717e-06
1.4402632e-06
1.4363231e-06
1.4322467e-06
1.4280292e-06
1.4236655e-06
1.419151e-06
1.4144813e-06
1.4096527e-06
1.4046619e-06
1.399506e-06
1.3941815e-06
1.3886839e-06
1.3830077e-06
1.3771458e-06
1.3710883e-06
1.3648242e-06
1.3583389e-06
1.3516209e-06
1.3446456e-06
1.3373838e-06
1.3298299e-06
1.3219573e-06
1.313766e-06
1.3052238e-06
1.2963271e-06
1.2870573e-06
1.2779053e-06
1.2690905e-06
1.2607853e-06
1.2543663e-06
1.2478573e-06
1.2484823e-06
1.2538878e-06
1.2715663e-06
1.3118924e-06
1.3926889e-06
1.5620722e-06
1.8610376e-06
2.3336499e-06
3.0252638e-06
3.9758917e-06
5.1397618e-06
6.4971278e-06
7.9733218e-06
9.4970432e-06
1.1012618e-05
1.249019e-05
1.3924829e-05
1.5324138e-05
1.6695219e-05
1.8039976e-05
1.9357386e-05
2.0647217e-05
2.1911091e-05
2.3151293e-05
2.4369048e-05
2.5564885e-05
2.6739173e-05
2.7892665e-05
2.9024574e-05
3.0135814e-05
3.1227771e-05
3.2300941e-05
3.3355447e-05
3.4391525e-05
3.5409509e-05
3.6409735e-05
3.7392528e-05
3.8358195e-05
3.9307013e-05
4.0239235e-05
4.1155093e-05
4.2054799e-05
4.2938545e-05
4.3806509e-05
4.4658859e-05
4.5495749e-05
4.6317291e-05
4.7123718e-05
4.7915091e-05
4.8692376e-05
4.9456316e-05
5.020794e-05
5.0937613e-05
5.1643399e-05
5.2329682e-05
5.3002268e-05
5.3664614e-05
5.4317721e-05
5.4960493e-05
5.5593919e-05
5.6209153e-05
5.6837257e-05
5.7346171e-05
5.8274543e-05
1.4596177e-06
1.4572817e-06
1.4548002e-06
1.4522192e-06
1.4495472e-06
1.4467837e-06
1.4439258e-06
1.4409704e-06
1.437914e-06
1.4347529e-06
1.4314838e-06
1.4281033e-06
1.4246083e-06
1.4209959e-06
1.4172636e-06
1.4134087e-06
1.4094279e-06
1.4053175e-06
1.4010732e-06
1.3966897e-06
1.3921618e-06
1.3874839e-06
1.3826494e-06
1.377653e-06
1.3724871e-06
1.3671438e-06
1.3616125e-06
1.3558818e-06
1.3499398e-06
1.3437647e-06
1.337348e-06
1.3306602e-06
1.3236986e-06
1.3164438e-06
1.3088732e-06
1.3009947e-06
1.2932502e-06
1.2858181e-06
1.279117e-06
1.2741487e-06
1.2704798e-06
1.2726027e-06
1.2818131e-06
1.3083125e-06
1.3649695e-06
1.4892282e-06
1.7349155e-06
2.1615339e-06
2.8192078e-06
3.7914379e-06
5.0222973e-06
6.4848386e-06
8.1032658e-06
9.787669e-06
1.1469573e-05
1.3115294e-05
1.4721085e-05
1.6295029e-05
1.7842524e-05
1.9363914e-05
2.0858682e-05
2.23279e-05
2.3772939e-05
2.5194491e-05
2.6592261e-05
2.7966458e-05
2.9317999e-05
3.0647586e-05
3.1955611e-05
3.3242426e-05
3.4508374e-05
3.5753783e-05
3.6979e-05
3.8184361e-05
3.9370173e-05
4.0536727e-05
4.1684291e-05
4.2813112e-05
4.3923419e-05
4.5015424e-05
4.6089324e-05
4.7145299e-05
4.8183492e-05
4.9204127e-05
5.0207428e-05
5.1194243e-05
5.216829e-05
5.3128743e-05
5.4068963e-05
5.4984646e-05
5.5877129e-05
5.6750725e-05
5.7609242e-05
5.8454773e-05
5.92871e-05
6.0108102e-05
6.0907681e-05
6.1724223e-05
6.2391826e-05
6.3604707e-05
1.4610466e-06
1.4592798e-06
1.4574099e-06
1.455467e-06
1.4534565e-06
1.451378e-06
1.4492293e-06
1.4470081e-06
1.4447118e-06
1.4423379e-06
1.4398838e-06
1.437347e-06
1.4347252e-06
1.4320162e-06
1.4292178e-06
1.4263277e-06
1.4233435e-06
1.4202623e-06
1.4170806e-06
1.4137945e-06
1.4104002e-06
1.4068936e-06
1.4032704e-06
1.3995262e-06
1.3956568e-06
1.3916578e-06
1.3875246e-06
1.3832522e-06
1.3788356e-06
1.3742689e-06
1.369546e-06
1.3646581e-06
1.3595947e-06
1.3543452e-06
1.3488894e-06
1.3432195e-06
1.3373051e-06
1.3311719e-06
1.3246683e-06
1.3179309e-06
1.3111084e-06
1.304506e-06
1.298255e-06
1.2933686e-06
1.2890112e-06
1.2901604e-06
1.2967495e-06
1.3177664e-06
1.3676948e-06
1.4764111e-06
1.7141597e-06
2.1519113e-06
2.8541584e-06
3.9197879e-06
5.2865212e-06
6.9181215e-06
8.7139725e-06
1.0570539e-05
1.241555e-05
1.4221812e-05
1.5992628e-05
1.7737309e-05
1.9458474e-05
2.115461e-05
2.2825089e-05
2.447058e-05
2.609159e-05
2.7688312e-05
2.9261143e-05
3.0810542e-05
3.2336782e-05
3.3840109e-05
3.5320839e-05
3.6779275e-05
3.8215699e-05
3.9630398e-05
4.1023643e-05
4.2395689e-05
4.3746779e-05
4.5077144e-05
4.6386995e-05
4.7676523e-05
4.8945894e-05
5.0195307e-05
5.1425031e-05
5.2635423e-05
5.3829743e-05
5.5008458e-05
5.6167626e-05
5.7302679e-05
5.8412731e-05
5.9500235e-05
6.056852e-05
6.1620171e-05
6.2655642e-05
6.3677671e-05
6.4674994e-05
6.569354e-05
6.653221e-05
6.8050825e-05
1.4623113e-06
1.4609383e-06
1.4594897e-06
1.4579858e-06
1.4564302e-06
1.4548225e-06
1.453161e-06
1.4514439e-06
1.4496693e-06
1.4478354e-06
1.4459402e-06
1.4439818e-06
1.4419583e-06
1.4398681e-06
1.4377094e-06
1.4354804e-06
1.4331792e-06
1.4308035e-06
1.4283507e-06
1.425818e-06
1.4232022e-06
1.4205004e-06
1.4177092e-06
1.4148253e-06
1.4118454e-06
1.4087661e-06
1.4055837e-06
1.4022948e-06
1.3988958e-06
1.3953828e-06
1.3917518e-06
1.3879986e-06
1.3841186e-06
1.3801071e-06
1.3759582e-06
1.3716667e-06
1.3672239e-06
1.3626225e-06
1.3578468e-06
1.3528788e-06
1.347711e-06
1.34233e-06
1.3367305e-06
1.3308668e-06
1.324786e-06
1.3188683e-06
1.3132338e-06
1.3087416e-06
1.3048287e-06
1.305934e-06
1.3125481e-06
1.3341291e-06
1.3876611e-06
1.5100451e-06
1.7861873e-06
2.301468e-06
3.1494879e-06
4.404731e-06
6.0010748e-06
7.8673909e-06
9.8721049e-06
1.1905112e-05
1.3909045e-05
1.5875656e-05
1.7814983e-05
1.9731931e-05
2.1624852e-05
2.3492523e-05
2.533563e-05
2.7154562e-05
2.89491e-05
3.0719276e-05
3.2465295e-05
3.4187266e-05
3.5885324e-05
3.7559672e-05
3.9210499e-05
4.0837997e-05
4.2442373e-05
4.4023826e-05
4.558254e-05
4.7118685e-05
4.863242e-05
5.0123906e-05
5.1593392e-05
5.3040789e-05
5.446841e-05
5.5877823e-05
5.7267216e-05
5.8632784e-05
5.997241e-05
6.1286863e-05
6.2578554e-05
6.3850081e-05
6.5102319e-05
6.6338794e-05
6.7547147e-05
6.8781036e-05
6.9803002e-05
7.1647801e-05
1.4634723e-06
1.462382e-06
1.4612346e-06
1.4600442e-06
1.4588133e-06
1.4575415e-06
1.4562274e-06
1.4548698e-06
1.4534671e-06
1.4520178e-06
1.4505205e-06
1.4489737e-06
1.447376e-06
1.4457259e-06
1.4440222e-06
1.4422633e-06
1.4404476e-06
1.4385734e-06
1.4366388e-06
1.4346414e-06
1.432579e-06
1.4304491e-06
1.4282494e-06
1.4259771e-06
1.4236297e-06
1.4212045e-06
1.4186988e-06
1.4161098e-06
1.4134345e-06
1.41067e-06
1.407813e-06
1.4048605e-06
1.4018087e-06
1.3986543e-06
1.3953936e-06
1.3920228e-06
1.3885381e-06
1.3849354e-06
1.3812106e-06
1.3773584e-06
1.3733729e-06
1.3692455e-06
1.3649682e-06
1.3605241e-06
1.355903e-06
1.3510865e-06
1.346075e-06
1.3408104e-06
1.3353429e-06
1.3300279e-06
1.3250243e-06
1.3210653e-06
1.3183669e-06
1.3202862e-06
1.3294029e-06
1.3580774e-06
1.4285848e-06
1.6026504e-06
1.9856067e-06
2.6718845e-06
3.8277414e-06
5.3919393e-06
7.3104755e-06
9.4463048e-06
1.1655687e-05
1.3850442e-05
1.6008729e-05
1.8139871e-05
2.0250415e-05
2.2338645e-05
2.4402697e-05
2.6442793e-05
2.8458895e-05
3.0450495e-05
3.2417431e-05
3.4359679e-05
3.627716e-05
3.8169879e-05
4.00379e-05
4.1881289e-05
4.3700118e-05
4.5494465e-05
4.7264429e-05
4.9010089e-05
5.0731619e-05
5.2428552e-05
5.4102462e-05
5.5755445e-05
5.73871e-05
5.8994736e-05
6.0575819e-05
6.2129842e-05
6.3658158e-05
6.5163007e-05
6.6645422e-05
6.810958e-05
6.9542062e-05
7.1004386e-05
7.222172e-05
7.4412566e-05
1.4645531e-06
1.4636718e-06
1.4627464e-06
1.4617869e-06
1.4607951e-06
1.4597704e-06
1.458712e-06
1.4576187e-06
1.4564893e-06
1.4553227e-06
1.4541178e-06
1.4528733e-06
1.4515881e-06
1.450261e-06
1.448891e-06
1.4474769e-06
1.4460173e-06
1.4445109e-06
1.4429561e-06
1.4413512e-06
1.4396943e-06
1.4379835e-06
1.4362169e-06
1.4343926e-06
1.4325083e-06
1.430562e-06
1.4285516e-06
1.4264747e-06
1.4243292e-06
1.4221127e-06
1.4198225e-06
1.4174562e-06
1.415011e-06
1.4124841e-06
1.4098724e-06
1.4071731e-06
1.4043831e-06
1.4014993e-06
1.3985184e-06
1.3954373e-06
1.3922525e-06
1.3889601e-06
1.3855561e-06
1.3820358e-06
1.3783945e-06
1.3746241e-06
1.3707175e-06
1.3666583e-06
1.3624363e-06
1.3580335e-06
1.3534537e-06
1.348629e-06
1.3437005e-06
1.3388756e-06
1.3348094e-06
1.3305408e-06
1.3308284e-06
1.3350767e-06
1.3512265e-06
1.3983101e-06
1.5140673e-06
1.8123251e-06
2.411662e-06
3.4680499e-06
5.0344001e-06
7.0295069e-06
9.3121291e-06
1.1704527e-05
1.4091732e-05
1.6442516e-05
1.8766793e-05
2.1071908e-05
2.3355765e-05
2.5616342e-05
2.7853592e-05
3.0067015e-05
3.2255881e-05
3.4419862e-05
3.6558691e-05
3.8672104e-05
4.075992e-05
4.2821996e-05
4.4858268e-05
4.6868661e-05
4.8853176e-05
5.0810976e-05
5.2743165e-05
5.4651978e-05
5.6537759e-05
5.8398863e-05
6.0232868e-05
6.2038465e-05
6.3816004e-05
6.5567135e-05
6.7292785e-05
6.8997606e-05
7.06671e-05
7.2370723e-05
7.3795374e-05
7.6351669e-05
1.4655541e-06
1.4648313e-06
1.4640739e-06
1.4632889e-06
1.4624777e-06
1.4616398e-06
1.4607744e-06
1.4598806e-06
1.4589575e-06
1.4580042e-06
1.4570197e-06
1.4560031e-06
1.4549534e-06
1.4538697e-06
1.4527511e-06
1.4515967e-06
1.4504052e-06
1.4491757e-06
1.4479068e-06
1.4465972e-06
1.4452454e-06
1.4438499e-06
1.442409e-06
1.4409214e-06
1.4393851e-06
1.4377987e-06
1.4361602e-06
1.434468e-06
1.4327202e-06
1.4309149e-06
1.4290501e-06
1.4271237e-06
1.4251334e-06
1.4230771e-06
1.4209524e-06
1.4187569e-06
1.4164881e-06
1.4141435e-06
1.4117205e-06
1.4092164e-06
1.4066284e-06
1.4039535e-06
1.4011887e-06
1.3983307e-06
1.3953763e-06
1.3923218e-06
1.3891635e-06
1.385897e-06
1.3825177e-06
1.3790182e-06
1.3753919e-06
1.3716228e-06
1.3677013e-06
1.3636134e-06
1.3593386e-06
1.3547789e-06
1.3503232e-06
1.3461151e-06
1.3426921e-06
1.3406852e-06
1.3428633e-06
1.3535459e-06
1.3882588e-06
1.4800602e-06
1.7319847e-06
2.2884276e-06
3.3203934e-06
4.9434783e-06
7.0622413e-06
9.5179445e-06
1.2101911e-05
1.4681715e-05
1.7225256e-05
1.9744632e-05
2.22462e-05
2.4727072e-05
2.7185512e-05
2.9621191e-05
3.2033128e-05
3.4420415e-05
3.6782437e-05
3.9118625e-05
4.1428591e-05
4.3711965e-05
4.5968433e-05
4.8196698e-05
5.0397562e-05
5.2573209e-05
5.4724177e-05
5.6849568e-05
5.8947319e-05
6.1015725e-05
6.3054317e-05
6.5064039e-05
6.7045496e-05
6.9003603e-05
7.0922726e-05
7.2880282e-05
7.452404e-05
7.7464786e-05
1.4664714e-06
1.4658714e-06
1.4652436e-06
1.4645935e-06
1.4639217e-06
1.4632278e-06
1.4625113e-06
1.4617715e-06
1.4610074e-06
1.4602185e-06
1.459404e-06
1.4585629e-06
1.4576947e-06
1.4567985e-06
1.4558735e-06
1.4549189e-06
1.4539338e-06
1.4529174e-06
1.4518685e-06
1.450786e-06
1.4496689e-06
1.4485157e-06
1.4473253e-06
1.4460964e-06
1.4448276e-06
1.4435176e-06
1.4421648e-06
1.4407679e-06
1.4393254e-06
1.4378356e-06
1.436297e-06
1.4347079e-06
1.4330665e-06
1.431371e-06
1.4296194e-06
1.4278098e-06
1.4259402e-06
1.4240086e-06
1.4220128e-06
1.4199506e-06
1.4178198e-06
1.4156179e-06
1.4133424e-06
1.4109906e-06
1.4085599e-06
1.4060473e-06
1.4034499e-06
1.4007646e-06
1.3979883e-06
1.3951177e-06
1.3921493e-06
1.3890793e-06
1.3859031e-06
1.3826145e-06
1.379202e-06
1.3756548e-06
1.3719511e-06
1.3680999e-06
1.3640222e-06
1.3598691e-06
1.3558558e-06
1.3524969e-06
1.3498772e-06
1.3513131e-06
1.3596993e-06
1.3889629e-06
1.4715997e-06
1.7115509e-06
2.2763282e-06
3.3685242e-06
5.1240758e-06
7.4336798e-06
1.0100519e-05
1.2887673e-05
1.566117e-05
1.8399496e-05
2.111742e-05
2.3818378e-05
2.6498924e-05
2.9157689e-05
3.1793697e-05
3.440562e-05
3.6992567e-05
3.9553662e-05
4.2088041e-05
4.4593765e-05
4.7071373e-05
4.9522886e-05
5.1948613e-05
5.4348e-05
5.6719325e-05
5.9060763e-05
6.1371242e-05
6.3650993e-05
6.5900136e-05
6.8123629e-05
7.0304604e-05
7.2528392e-05
7.4402801e-05
7.77477e-05
1.4673057e-06
1.4668023e-06
1.4662766e-06
1.4657323e-06
1.46517e-06
1.4645893e-06
1.4639897e-06
1.4633707e-06
1.4627315e-06
1.4620716e-06
1.4613903e-06
1.460687e-06
1.4599611e-06
1.4592118e-06
1.4584385e-06
1.4576406e-06
1.4568173e-06
1.4559678e-06
1.4550913e-06
1.4541868e-06
1.4532534e-06
1.45229e-06
1.4512957e-06
1.4502694e-06
1.4492098e-06
1.448116e-06
1.4469867e-06
1.4458207e-06
1.4446169e-06
1.4433738e-06
1.4420902e-06
1.4407646e-06
1.4393957e-06
1.4379818e-06
1.4365215e-06
1.4350131e-06
1.433455e-06
1.4318456e-06
1.4301829e-06
1.4284653e-06
1.4266909e-06
1.4248576e-06
1.4229634e-06
1.4210062e-06
1.4189837e-06
1.4168934e-06
1.4147331e-06
1.4125001e-06
1.4101917e-06
1.4078054e-06
1.4053384e-06
1.402788e-06
1.4001513e-06
1.3974253e-06
1.3946062e-06
1.3916907e-06
1.388672e-06
1.3855442e-06
1.3822929e-06
1.378905e-06
1.3753804e-06
1.3716476e-06
1.3677758e-06
1.3640105e-06
1.360826e-06
1.3581714e-06
1.3594094e-06
1.3672976e-06
1.3960649e-06
1.4812742e-06
1.7439977e-06
2.3752269e-06
3.6334017e-06
5.6155313e-06
8.1926872e-06
1.1104955e-05
1.4101359e-05
1.7069827e-05
2.0007417e-05
2.2927902e-05
2.583078e-05
2.871338e-05
3.1574729e-05
3.4413154e-05
3.7226923e-05
4.001323e-05
4.2772239e-05
4.550571e-05
4.8213381e-05
5.089459e-05
5.3547741e-05
5.617098e-05
5.8762817e-05
6.1322819e-05
6.3850512e-05
6.6350693e-05
6.8805128e-05
7.1306966e-05
7.3423202e-05
7.7191359e-05
1.4680614e-06
1.4676354e-06
1.467191e-06
1.4667311e-06
1.4662561e-06
1.4657656e-06
1.4652592e-06
1.4647364e-06
1.4641967e-06
1.4636396e-06
1.4630645e-06
1.4624709e-06
1.4618582e-06
1.4612259e-06
1.4605734e-06
1.4599001e-06
1.4592055e-06
1.4584888e-06
1.4577494e-06
1.4569865e-06
1.4561992e-06
1.4553868e-06
1.4545484e-06
1.453683e-06
1.4527898e-06
1.4518678e-06
1.450916e-06
1.4499335e-06
1.4489191e-06
1.4478719e-06
1.4467906e-06
1.4456742e-06
1.4445215e-06
1.4433311e-06
1.4421018e-06
1.4408322e-06
1.4395211e-06
1.4381669e-06
1.4367682e-06
1.4353235e-06
1.4338313e-06
1.4322899e-06
1.4306976e-06
1.4290526e-06
1.427353e-06
1.4255969e-06
1.4237822e-06
1.4219069e-06
1.4199688e-06
1.4179656e-06
1.415895e-06
1.4137549e-06
1.4115427e-06
1.4092559e-06
1.4068917e-06
1.4044474e-06
1.4019198e-06
1.3993059e-06
1.3966022e-06
1.3938039e-06
1.3909061e-06
1.3878959e-06
1.3847608e-06
1.3814965e-06
1.3780391e-06
1.3744285e-06
1.3709207e-06
1.3679397e-06
1.3656092e-06
1.3670614e-06
1.3760678e-06
1.409879e-06
1.5113746e-06
1.842762e-06
2.6151035e-06
4.1936139e-06
6.5123709e-06
9.4143924e-06
1.2582258e-05
1.5780395e-05
1.8943196e-05
2.2084492e-05
2.5211346e-05
2.8320173e-05
3.1408671e-05
3.4473238e-05
3.7513448e-05
4.053072e-05
4.3523927e-05
4.649183e-05
4.9432592e-05
5.2344241e-05
5.5224957e-05
5.8073697e-05
6.0889322e-05
6.3676276e-05
6.6414805e-05
6.9205727e-05
7.1574418e-05
7.5783065e-05
1.4687475e-06
1.4683841e-06
1.4680054e-06
1.4676137e-06
1.4672092e-06
1.4667915e-06
1.4663603e-06
1.4659152e-06
1.4654558e-06
1.4649816e-06
1.4644921e-06
1.4639869e-06
1.4634655e-06
1.4629275e-06
1.4623724e-06
1.4617996e-06
1.4612087e-06
1.4605991e-06
1.4599702e-06
1.4593214e-06
1.4586519e-06
1.457961e-06
1.4572481e-06
1.4565124e-06
1.4557531e-06
1.4549695e-06
1.4541606e-06
1.4533257e-06
1.4524638e-06
1.4515741e-06
1.4506557e-06
1.4497075e-06
1.4487286e-06
1.4477178e-06
1.4466742e-06
1.4455965e-06
1.4444837e-06
1.4433346e-06
1.4421479e-06
1.4409224e-06
1.4396567e-06
1.4383495e-06
1.4369994e-06
1.4356048e-06
1.4341642e-06
1.432676e-06
1.4311385e-06
1.4295499e-06
1.4279083e-06
1.4262121e-06
1.4244591e-06
1.4226476e-06
1.4207755e-06
1.4188406e-06
1.4168406e-06
1.4147731e-06
1.4126355e-06
1.4104254e-06
1.4081401e-06
1.405777e-06
1.4033331e-06
1.4008056e-06
1.3981901e-06
1.3954823e-06
1.3926699e-06
1.3897407e-06
1.3866904e-06
1.3834546e-06
1.3800831e-06
1.3768359e-06
1.3740655e-06
1.3724558e-06
1.3746294e-06
1.3869568e-06
1.4315548e-06
1.5749191e-06
2.0418179e-06
3.1039124e-06
5.086769e-06
7.8550199e-06
1.1125175e-05
1.4546641e-05
1.7947255e-05
2.131576e-05
2.4668497e-05
2.8002851e-05
3.1317814e-05
3.4615054e-05
3.7892347e-05
4.1147466e-05
4.4377923e-05
4.75814e-05
5.0755704e-05
5.3899181e-05
5.7009964e-05
6.0091958e-05
6.312372e-05
6.6213543e-05
6.884437e-05
7.3510046e-05
1.4693766e-06
1.4690644e-06
1.4687395e-06
1.4684034e-06
1.4680563e-06
1.4676981e-06
1.4673283e-06
1.4669466e-06
1.4665526e-06
1.4661459e-06
1.4657263e-06
1.4652932e-06
1.4648463e-06
1.4643851e-06
1.4639093e-06
1.4634185e-06
1.4629121e-06
1.4623897e-06
1.4618508e-06
1.4612949e-06
1.4607213e-06
1.4601295e-06
1.4595189e-06
1.4588887e-06
1.4582385e-06
1.4575674e-06
1.4568748e-06
1.45616e-06
1.4554223e-06
1.4546608e-06
1.4538748e-06
1.4530634e-06
1.4522258e-06
1.4513612e-06
1.4504685e-06
1.4495468e-06
1.4485952e-06
1.4476127e-06
1.4465982e-06
1.4455507e-06
1.444469e-06
1.443352e-06
1.4421984e-06
1.4410071e-06
1.4397767e-06
1.4385058e-06
1.437193e-06
1.4358368e-06
1.4344358e-06
1.4329883e-06
1.4314927e-06
1.4299474e-06
1.4283507e-06
1.4267008e-06
1.4249957e-06
1.4232335e-06
1.4214119e-06
1.4195288e-06
1.4175821e-06
1.4155693e-06
1.4134882e-06
1.4113363e-06
1.4091111e-06
1.4068099e-06
1.4044299e-06
1.4019673e-06
1.3994178e-06
1.3967698e-06
1.3940102e-06
1.3911376e-06
1.388082e-06
1.3849034e-06
1.3821002e-06
1.3787922e-06
1.378974e-06
1.3828481e-06
1.4024632e-06
1.4686629e-06
1.7164913e-06
2.4156203e-06
3.9816767e-06
6.5111784e-06
9.7884958e-06
1.3398975e-05
1.7040916e-05
2.0640346e-05
2.4219002e-05
2.7787022e-05
3.1340897e-05
3.487797e-05
3.8395033e-05
4.1889224e-05
4.5357852e-05
4.8798557e-05
5.2208652e-05
5.5591318e-05
5.8923229e-05
6.2319925e-05
6.5221083e-05
7.0358623e-05
1.4699614e-06
1.4696915e-06
1.4694108e-06
1.4691206e-06
1.4688209e-06
1.4685116e-06
1.4681923e-06
1.4678628e-06
1.4675227e-06
1.4671717e-06
1.4668095e-06
1.4664358e-06
1.4660501e-06
1.4656522e-06
1.4652417e-06
1.4648183e-06
1.4643814e-06
1.4639308e-06
1.463466e-06
1.4629865e-06
1.4624918e-06
1.4619815e-06
1.4614549e-06
1.4609116e-06
1.460351e-06
1.4597726e-06
1.4591756e-06
1.4585595e-06
1.4579238e-06
1.4572676e-06
1.4565904e-06
1.4558914e-06
1.45517e-06
1.4544253e-06
1.4536565e-06
1.4528629e-06
1.4520437e-06
1.4511979e-06
1.4503247e-06
1.4494232e-06
1.4484924e-06
1.4475314e-06
1.4465391e-06
1.4455144e-06
1.4444562e-06
1.4433634e-06
1.4422348e-06
1.4410691e-06
1.439865e-06
1.4386211e-06
1.4373362e-06
1.4360089e-06
1.4346376e-06
1.4332208e-06
1.431757e-06
1.4302444e-06
1.4286812e-06
1.4270655e-06
1.4253956e-06
1.4236694e-06
1.4218849e-06
1.4200401e-06
1.4181327e-06
1.4161605e-06
1.4141212e-06
1.4120124e-06
1.4098315e-06
1.4075759e-06
1.405242e-06
1.4028251e-06
1.4003162e-06
1.3976889e-06
1.3949903e-06
1.3920026e-06
1.3890635e-06
1.3864638e-06
1.384115e-06
1.3851593e-06
1.3933824e-06
1.4280742e-06
1.5494944e-06
2.0041973e-06
3.1458634e-06
5.4024205e-06
8.6057864e-06
1.2357044e-05
1.6235582e-05
2.0081754e-05
2.3902075e-05
2.7710669e-05
3.1505308e-05
3.5283401e-05
3.9041877e-05
4.2777568e-05
4.6486906e-05
5.0172177e-05
5.3807967e-05
5.7516824e-05
6.0694287e-05
6.631591e-05
1.4705124e-06
1.4702776e-06
1.4700338e-06
1.4697816e-06
1.4695214e-06
1.4692527e-06
1.4689754e-06
1.4686893e-06
1.468394e-06
1.4680893e-06
1.4677748e-06
1.4674504e-06
1.4671156e-06
1.4667703e-06
1.466414e-06
1.4660465e-06
1.4656674e-06
1.4652763e-06
1.464873e-06
1.464457e-06
1.4640278e-06
1.463585e-06
1.4631283e-06
1.462657e-06
1.4621708e-06
1.4616692e-06
1.4611515e-06
1.4606174e-06
1.4600662e-06
1.4594974e-06
1.4589104e-06
1.4583046e-06
1.4576794e-06
1.4570341e-06
1.456368e-06
1.4556806e-06
1.4549709e-06
1.4542384e-06
1.4534822e-06
1.4527016e-06
1.4518958e-06
1.4510639e-06
1.450205e-06
1.4493182e-06
1.4484026e-06
1.4474571e-06
1.4464808e-06
1.4454725e-06
1.4444312e-06
1.4433557e-06
1.4422449e-06
1.4410975e-06
1.4399124e-06
1.4386883e-06
1.4374236e-06
1.436117e-06
1.434767e-06
1.433372e-06
1.4319304e-06
1.4304405e-06
1.4289006e-06
1.427309e-06
1.4256638e-06
1.423963e-06
1.4222047e-06
1.4203867e-06
1.4185069e-06
1.416563e-06
1.4145529e-06
1.412474e-06
1.410324e-06
1.4080986e-06
1.4057939e-06
1.4033998e-06
1.4008919e-06
1.3982813e-06
1.3954738e-06
1.392773e-06
1.3904168e-06
1.3896029e-06
1.39268e-06
1.4109036e-06
1.4789209e-06
1.7577856e-06
2.5835684e-06
4.5660301e-06
7.6301802e-06
1.147194e-05
1.5577308e-05
1.9673506e-05
2.3737635e-05
2.7789314e-05
3.1828104e-05
3.5851019e-05
3.9854232e-05
4.3839164e-05
4.7778214e-05
5.1800741e-05
5.5257342e-05
6.137141e-05
1.4710385e-06
1.4708333e-06
1.4706203e-06
1.4704001e-06
1.4701728e-06
1.4699383e-06
1.4696962e-06
1.4694464e-06
1.4691886e-06
1.4689226e-06
1.4686481e-06
1.468365e-06
1.4680728e-06
1.4677714e-06
1.4674605e-06
1.4671399e-06
1.4668091e-06
1.4664679e-06
1.4661161e-06
1.4657531e-06
1.4653788e-06
1.4649926e-06
1.4645942e-06
1.4641833e-06
1.4637593e-06
1.4633219e-06
1.4628706e-06
1.4624049e-06
1.4619245e-06
1.4614287e-06
1.4609171e-06
1.4603892e-06
1.4598444e-06
1.4592822e-06
1.458702e-06
1.4581031e-06
1.4574851e-06
1.4568471e-06
1.4561887e-06
1.455509e-06
1.4548075e-06
1.4540834e-06
1.4533358e-06
1.4525641e-06
1.4517674e-06
1.4509448e-06
1.4500955e-06
1.4492185e-06
1.4483129e-06
1.4473778e-06
1.446412e-06
1.4454147e-06
1.4443847e-06
1.4433209e-06
1.4422221e-06
1.441087e-06
1.4399145e-06
1.438703e-06
1.4374513e-06
1.436158e-06
1.4348215e-06
1.4334404e-06
1.4320131e-06
1.4305379e-06
1.429013e-06
1.4274368e-06
1.4258072e-06
1.4241225e-06
1.4223806e-06
1.4205794e-06
1.4187168e-06
1.4167908e-06
1.4147984e-06
1.4127385e-06
1.4106058e-06
1.4083952e-06
1.4060911e-06
1.4036964e-06
1.4011147e-06
1.3985016e-06
1.3961436e-06
1.3940681e-06
1.3952831e-06
1.4048074e-06
1.4466028e-06
1.6098996e-06
2.2398441e-06
3.8628736e-06
6.7937432e-06
1.0725621e-05
1.506601e-05
1.9425323e-05
2.3741994e-05
2.804237e-05
3.2329675e-05
3.6605973e-05
4.084236e-05
4.5175133e-05
4.8909501e-05
5.5518939e-05
1.4715476e-06
1.4713674e-06
1.4711804e-06
1.4709872e-06
1.4707878e-06
1.470582e-06
1.4703696e-06
1.4701505e-06
1.4699244e-06
1.469691e-06
1.4694503e-06
1.469202e-06
1.4689457e-06