/*--------------------------------*- C++ -*----------------------------------*\
  =========                 |
  \\      /  F ield         | OpenFOAM: The Open Source CFD Toolbox
   \\    /   O peration     | Website:  https://openfoam.org
    \\  /    A nd           | Version:  12
     \\/     M anipulation  |
\*---------------------------------------------------------------------------*/
FoamFile
{
    format      ascii;
    class       volScalarField;
    location    "800";
    object      p;
}
// * * * * * * * * * * * * * * * * * * * * * * * * * * * * * * * * * * * * * //

dimensions      [0 2 -2 0 0 0 0];

internalField   nonuniform List<scalar> 
7480
(
0.0087171129
0.0081282594
0.0070201282
0.0064119591
0.0061121637
0.0058666821
0.0056062043
0.0053526307
0.0051125497
0.0048746793
0.0046319066
0.0043833168
0.0041398904
0.0039213744
0.0037511502
0.0036407353
0.0035858575
0.0035502617
0.0035294342
0.0035140867
0.0035022429
0.0034934976
0.0034815466
0.0034550265
0.0034161938
0.0033732926
0.0033305236
0.0032902578
0.0032498587
0.0032099904
0.003171573
0.003134593
0.0030996201
0.0030646699
0.0030263782
0.0029852681
0.0029431017
0.0029014397
0.0028616307
0.0028235346
0.0027864758
0.002750449
0.0027155094
0.0026815981
0.002648314
0.0026150675
0.0025814039
0.0025476581
0.0025139266
0.0024788837
0.0024411375
0.002403233
0.0023676138
0.0023346143
0.0023020348
0.0022684746
0.0022331463
0.0021953526
0.0021561779
0.0021169958
0.002077782
0.0020380757
0.0019979533
0.0019574674
0.0019163905
0.0018747489
0.0018326791
0.0017901039
0.0017469896
0.0017033956
0.0016591994
0.0016143592
0.0015689333
0.001522802
0.0014759732
0.0014284574
0.0013801165
0.0013309883
0.0012810431
0.0012301004
0.0011783743
0.0011255268
0.0010712358
0.0010158416
0.00095826699
0.00089060745
0.00081686362
0.00076201206
0.00070786975
0.00065015912
0.00059209441
0.00053549566
0.00048021547
0.000425507
0.00037321146
0.00032032036
0.00028390724
0.00022600539
0.00038489312
-0.00027975029
0.0082807556
0.0076994652
0.0068348715
0.0063081391
0.0060393431
0.005814504
0.0055723137
0.0053354433
0.0051150197
0.0049027551
0.0046925848
0.0044830493
0.0042823488
0.0041018819
0.0039519548
0.0038382059
0.0037550296
0.0037001718
0.0036589331
0.0036254524
0.0035935447
0.0035599869
0.0035207034
0.0034756461
0.0034286661
0.0033816037
0.0033375697
0.0032968772
0.0032569482
0.0032178252
0.0031800017
0.0031433667
0.0031081184
0.0030724453
0.0030337588
0.0029926954
0.0029508262
0.0029095141
0.0028699149
0.0028317869
0.0027944884
0.0027581108
0.0027227742
0.0026884605
0.0026546936
0.002620884
0.0025866737
0.0025522162
0.0025176253
0.0024817855
0.002444345
0.002407244
0.0023724307
0.0023394053
0.0023063057
0.0022722148
0.0022365389
0.0021985762
0.0021593084
0.002120036
0.0020807303
0.0020409359
0.0020007311
0.0019601654
0.0019190077
0.0018772851
0.0018351331
0.0017924726
0.0017492713
0.0017055903
0.0016613085
0.0016163845
0.0015708768
0.0015246656
0.0014777594
0.0014301684
0.0013817562
0.0013325625
0.0012825555
0.0012315542
0.001179772
0.0011268699
0.0010725241
0.001017066
0.00095924898
0.00089012366
0.0008194848
0.00076662865
0.00071216187
0.00065347781
0.00059474261
0.00053765643
0.00048199073
0.00042699011
0.00037449139
0.00032145114
0.00028492519
0.00022701588
0.00038594945
-0.00027898319
0.0079897251
0.0075790506
0.0069019991
0.0063869405
0.0060969163
0.0058590722
0.0056106341
0.0053669149
0.0051393183
0.0049197162
0.0047017896
0.0044827511
0.004270715
0.0040765558
0.0039122193
0.0037863325
0.0036996703
0.0036496512
0.0036197987
0.0035973398
0.0035746625
0.0035485133
0.0035177043
0.0034842847
0.0034478091
0.0034081003
0.0033670202
0.0033253374
0.0032834654
0.0032417694
0.0032007795
0.0031605375
0.0031216857
0.0030833626
0.003043304
0.0030016284
0.0029594952
0.0029180861
0.0028784541
0.0028402682
0.0028028357
0.0027662655
0.0027306889
0.0026961087
0.0026619528
0.0026276358
0.0025929271
0.0025580343
0.0025229822
0.0024868286
0.0024494097
0.0024121567
0.0023769681
0.002343483
0.0023100474
0.002275775
0.0022400084
0.0022020184
0.0021627296
0.0021234044
0.0020840164
0.0020441227
0.002003814
0.0019631434
0.0019218818
0.0018800614
0.0018378162
0.0017950627
0.0017517689
0.0017079974
0.0016636273
0.001618618
0.0015730278
0.0015267366
0.0014797531
0.0014320877
0.0013836028
0.0013343377
0.0012842613
0.0012331932
0.0011813475
0.0011283844
0.0010739818
0.0010184813
0.00096052554
0.00089094429
0.00082372196
0.00077107893
0.00071614448
0.0006569328
0.00059775147
0.00054024334
0.0004841997
0.00042889409
0.0003761576
0.00032291214
0.00028622942
0.00022831804
0.00038716639
-0.00027802267
0.0077640372
0.0074468286
0.006850755
0.0063462735
0.0060458264
0.005810392
0.0055700453
0.0053330228
0.0051112296
0.0048984027
0.0046883662
0.004478717
0.0042773308
0.0040942661
0.0039404522
0.0038231245
0.0037421651
0.0036922209
0.0036581614
0.0036281707
0.003597259
0.0035640674
0.0035283022
0.0034909492
0.0034510185
0.003409295
0.0033668161
0.0033242787
0.0032834318
0.003244095
0.0032060379
0.0031689343
0.0031320987
0.0030944002
0.0030546417
0.00301282
0.0029699735
0.0029274485
0.0028866803
0.0028476496
0.0028096807
0.0027727416
0.0027368783
0.0027021232
0.0026678406
0.0026333485
0.0025984029
0.0025633265
0.0025279984
0.0024915454
0.0024538426
0.0024162405
0.002380691
0.0023469196
0.0023133068
0.0022789144
0.0022430658
0.0022050588
0.0021657728
0.0021264151
0.0020869599
0.0020469858
0.0020065997
0.0019658508
0.0019245087
0.0018826141
0.0018402965
0.0017974664
0.001754094
0.0017102441
0.0016657955
0.0016207087
0.0015750422
0.0015286753
0.0014816177
0.0014338795
0.0013853215
0.0013359832
0.0012858347
0.001234696
0.0011827825
0.0011297534
0.0010752902
0.0010197361
0.00096176978
0.00089337251
0.00082724539
0.0007740823
0.00071881916
0.00065937305
0.00059994967
0.00054219922
0.0004859446
0.00043045105
0.000377542
0.00032414573
0.00028734928
0.00022932801
0.00038821289
-0.00027721427
0.0075576456
0.0072962627
0.0067813087
0.006322732
0.0060321096
0.005805357
0.0055737074
0.0053416916
0.0051224829
0.004912087
0.0047050144
0.0044992334
0.0043016077
0.0041212085
0.0039674721
0.0038470535
0.0037601891
0.0037021373
0.0036608333
0.0036260996
0.0035930888
0.0035597159
0.0035247735
0.0034881806
0.0034491211
0.0034082352
0.0033662822
0.0033241251
0.0032834314
0.003244004
0.0032057978
0.0031688816
0.003132085
0.0030943504
0.0030554293
0.0030151992
0.0029743709
0.0029338093
0.00289411
0.0028553581
0.0028173583
0.0027799838
0.0027433702
0.0027078914
0.0026731151
0.0026383113
0.0026031304
0.0025678937
0.0025324256
0.0024958208
0.0024579683
0.0024202282
0.0023844952
0.0023504987
0.002316677
0.002282106
0.0022461264
0.0022080711
0.002168768
0.0021293631
0.0020898394
0.0020497939
0.0020093426
0.001968524
0.0019271095
0.0018851532
0.0018427725
0.0017998713
0.0017564257
0.0017125026
0.0016679801
0.0016228193
0.0015770795
0.0015306391
0.0014835088
0.0014356986
0.0013870689
0.0013376599
0.0012874419
0.0012362345
0.0011842548
0.0011311604
0.0010766343
0.0010210173
0.00096305126
0.000895693
0.0008302188
0.00077689918
0.00072144554
0.00066179688
0.00060214025
0.00054415884
0.00048769982
0.00043201554
0.0003789318
0.0003253938
0.00028848285
0.00023031589
0.00038923176
-0.00027632041
0.0073686772
0.0071507467
0.0067135026
0.0063004102
0.0060145542
0.0057877434
0.0055593651
0.0053301416
0.0051127292
0.0049053042
0.0047012203
0.0045006417
0.0043082878
0.0041323916
0.0039816213
0.0038621617
0.0037745648
0.0037145407
0.0036716904
0.0036362604
0.0036028399
0.00356893
0.0035332506
0.0034956998
0.003455879
0.0034143651
0.0033718921
0.0033293485
0.0032881049
0.0032480805
0.0032092309
0.0031714946
0.0031337437
0.0030951808
0.0030557059
0.0030151776
0.0029743354
0.002933966
0.0028943056
0.0028558085
0.0028187077
0.0027826709
0.0027474194
0.0027127152
0.0026781794
0.0026433756
0.0026079171
0.0025722383
0.0025363964
0.0024995584
0.0024615851
0.0024237937
0.0023879668
0.0023538055
0.0023198148
0.0022851092
0.0022490381
0.0022109478
0.0021716278
0.0021321862
0.0020926145
0.0020525154
0.0020120137
0.0019711383
0.0019296645
0.0018876584
0.0018452255
0.0018022638
0.0017587554
0.0017147692
0.0016701818
0.0016249556
0.0015791503
0.0015326432
0.0014854466
0.0014375702
0.0013888741
0.0013393998
0.0012891169
0.0012378448
0.001185803
0.0011326465
0.0010780596
0.001022379
0.00096439277
0.00089773281
0.00083297718
0.00077978768
0.00072427484
0.0006644663
0.00060457945
0.00054634674
0.00048964682
0.00043374462
0.00038047131
0.00032677422
0.00028972289
0.00023139797
0.00039026902
-0.00027523099
0.0071961359
0.0070121915
0.0066408004
0.0062686246
0.0059899317
0.0057654404
0.0055438173
0.0053212578
0.0051085812
0.0049060964
0.0047059908
0.004510957
0.0043238523
0.0041522343
0.0040041073
0.0038850868
0.0037958582
0.0037324914
0.0036859193
0.0036471171
0.0036107366
0.0035744019
0.0035369724
0.0034982209
0.0034577795
0.0034159782
0.0033734397
0.003330945
0.0032896432
0.0032495796
0.003210669
0.0031727889
0.0031349857
0.0030965231
0.0030571972
0.0030168283
0.0029760387
0.0029355049
0.0028955189
0.0028566873
0.0028193042
0.0027831094
0.002747805
0.0027129731
0.002678561
0.0026444175
0.0026100537
0.0025752365
0.0025397525
0.0025031265
0.0024651692
0.0024272022
0.0023910988
0.0023566663
0.0023224716
0.0022876466
0.0022515329
0.0022134536
0.0021741526
0.0021347114
0.0020951277
0.0020550043
0.0020144783
0.0019735726
0.001932062
0.0018900222
0.0018475532
0.001804549
0.0017609946
0.0017169609
0.0016723228
0.0016270442
0.0015811855
0.0015346229
0.0014873701
0.0014394369
0.0013906827
0.0013411507
0.0012908096
0.0012394788
0.0011873805
0.0011341669
0.0010795235
0.0010237818
0.00096576607
0.00089967445
0.00083563854
0.00078262452
0.00072711739
0.00066720483
0.00060711857
0.00054864449
0.00049170142
0.00043557649
0.00038210697
0.00032824246
0.00029103382
0.00023254287
0.00039127894
-0.00027393131
0.0070379912
0.0068802251
0.0065637629
0.0062303352
0.0059630325
0.0057428219
0.0055280711
0.0053118498
0.0051033248
0.0049040001
0.0047081572
0.0045175579
0.0043349827
0.0041672106
0.0040214879
0.0039028826
0.0038121895
0.003745906
0.0036961745
0.0036547952
0.0036165533
0.0035790173
0.0035409403
0.0035018347
0.0034612797
0.003419461
0.003376947
0.0033344656
0.0032930311
0.0032527869
0.0032136302
0.0031754211
0.0031373419
0.0030986719
0.0030591742
0.0030187255
0.0029778832
0.0029373069
0.0028973428
0.002858529
0.0028210812
0.0027847169
0.0027491022
0.0027138806
0.0026791189
0.0026447267
0.0026103083
0.0025753856
0.0025398328
0.0025036268
0.002466541
0.0024294034
0.0023936708
0.0023593191
0.0023250122
0.0022899626
0.0022536815
0.0022155508
0.0021762463
0.0021368136
0.0020972488
0.0020571364
0.0020166222
0.001975722
0.0019342049
0.0018921564
0.0018496751
0.0018066506
0.0017630711
0.001719009
0.0016743378
0.0016290232
0.0015831266
0.0015365224
0.0014892263
0.0014412483
0.0013924467
0.0013428668
0.0012924763
0.0012410948
0.0011889475
0.0011356833
0.001080989
0.0010251908
0.00096714647
0.00090159265
0.00083821998
0.00078535069
0.00072987468
0.00066990005
0.00060964792
0.00055095501
0.00049378333
0.00043744424
0.00038378145
0.00032975114
0.00029237688
0.00023371245
0.00039221309
-0.00027240725
0.0068923106
0.0067549262
0.0064843089
0.0061870613
0.0059334732
0.0057183104
0.0055099723
0.0053001986
0.0050963467
0.0049008996
0.0047099044
0.004524062
0.0043463365
0.0041827192
0.0040396929
0.0039218533
0.003830084
0.0037613122
0.0037087124
0.0036648532
0.0036246629
0.0035856277
0.0035464292
0.0035064435
0.0034652668
0.0034230211
0.0033802226
0.0033375399
0.0032958553
0.0032553578
0.0032159328
0.0031774175
0.0031390912
0.0031002598
0.0030606771
0.0030202558
0.0029794788
0.0029389659
0.0028990655
0.0028602433
0.0028227081
0.0027862285
0.0027505016
0.0027152189
0.0026804032
0.0026459101
0.0026113063
0.0025761112
0.002540298
0.0025039343
0.0024668678
0.0024297445
0.0023939335
0.002359741
0.0023259638
0.0022914199
0.002255398
0.0022174473
0.0021781693
0.0021386554
0.0020990266
0.0020588896
0.0020183813
0.0019775076
0.0019360131
0.001893986
0.0018515224
0.0018085048
0.001764925
0.001720858
0.0016761748
0.0016308435
0.0015849269
0.0015382977
0.0014909739
0.0014429653
0.0013941294
0.0013445137
0.001294085
0.0012426627
0.0011904758
0.0011371695
0.0010824318
0.0010265834
0.00096851575
0.000903484
0.00084072106
0.00078796731
0.00073253321
0.00067252453
0.00061213413
0.0005532449
0.0004958614
0.00043931982
0.0003854703
0.00033127943
0.00029373377
0.00023488878
0.00039303523
-0.00027062786
0.006757309
0.0066361274
0.0064036674
0.0061393923
0.0059008221
0.0056917686
0.0054899923
0.0052871137
0.0050885975
0.0048974876
0.0047112563
0.0045301014
0.0043570109
0.0041973099
0.004056801
0.0039396747
0.0038468788
0.0037757525
0.0037203638
0.0036740136
0.0036318357
0.0035912773
0.00355098
0.0035102236
0.003468585
0.003426102
0.003383203
0.0033404789
0.0032986879
0.0032580426
0.0032184307
0.0031796731
0.0031411343
0.0031021618
0.0030625036
0.0030220936
0.0029813506
0.0029408547
0.0029009582
0.0028620845
0.0028244471
0.0027878535
0.0027520152
0.0027166384
0.0026817043
0.0026470697
0.0026123388
0.0025770786
0.0025412531
0.0025048845
0.0024677994
0.0024305665
0.0023945195
0.0023600673
0.0023261488
0.0022914663
0.0022553808
0.0022177484
0.0021790401
0.0021399623
0.0021005352
0.002060473
0.0020199266
0.001979009
0.0019374987
0.0018954801
0.0018530442
0.001810055
0.0017665006
0.001722455
0.0016777842
0.0016324591
0.0015865436
0.0015399084
0.0014925746
0.0014445519
0.0013956968
0.0013460596
0.0012956058
0.0012441546
0.0011919397
0.0011386014
0.0010838295
0.0010279393
0.00096985558
0.00090532941
0.00084313526
0.00079047551
0.00073508895
0.00067506748
0.00061456268
0.00055549852
0.00049792012
0.00044118874
0.00038716049
0.0003328156
0.00029509336
0.00023606064
0.00039371364
-0.00026855293
0.0066315489
0.0065235268
0.0063227727
0.006088078
0.0058652304
0.0056634196
0.0054684151
0.0052726083
0.0050797914
0.0048932582
0.004711733
0.004535306
0.0043668022
0.0042109894
0.0040730624
0.0039568345
0.0038632847
0.0037901349
0.003732233
0.003683568
0.0036395214
0.0035975237
0.0035561736
0.0035146664
0.0034725402
0.003429759
0.0033866725
0.0033438076
0.0033018231
0.0032609471
0.0032210785
0.0031820272
0.0031432307
0.0031040804
0.0030643179
0.0030238906
0.0029831646
0.00294268
0.0029027906
0.002863883
0.0028261647
0.0027894693
0.0027535205
0.0027180404
0.0026829873
0.0026482274
0.0026133942
0.0025780782
0.0025422121
0.0025058073
0.0024687355
0.0024315429
0.0023954733
0.0023609059
0.0023268016
0.002291883
0.0022555924
0.002217877
0.0021791734
0.0021400637
0.0021007032
0.0020610193
0.0020208785
0.0019801914
0.0019387993
0.001896786
0.0018543266
0.0018113264
0.0017677833
0.0017237653
0.0016791242
0.0016338271
0.0015879354
0.0015413154
0.0014939919
0.0014459736
0.0013971162
0.0013474734
0.0012970092
0.0012455426
0.0011933128
0.0011399544
0.0010851591
0.0010292377
0.00097114632
0.00090710897
0.00084544788
0.00079286353
0.00073752855
0.00067751332
0.00061691677
0.00055769919
0.00049994384
0.00044303675
0.00038883916
0.000334348
0.00029644458
0.00023721639
0.00039421526
-0.00026613628
0.0065138676
0.0064167294
0.0062423343
0.0060338822
0.0058269155
0.0056333005
0.0054452685
0.005256604
0.0050697988
0.0048881498
0.0047114187
0.0045397932
0.0043758512
0.0042238851
0.0040885541
0.0039733254
0.0038791941
0.0038042394
0.0037439986
0.0036931035
0.0036472131
0.0036037665
0.0035613265
0.0035190259
0.0034763659
0.0034332502
0.0033899561
0.0033469465
0.0033047889
0.0032637103
0.0032236182
0.0031843136
0.0031452932
0.003105992
0.003066148
0.0030257172
0.0029850215
0.0029445603
0.0029046845
0.0028657478
0.0028279485
0.0027911463
0.0027550816
0.0027194945
0.0026843253
0.0026494433
0.0026145037
0.0025791164
0.0025431951
0.0025067537
0.0024697041
0.0024325537
0.002396442
0.0023617348
0.0023274749
0.002292457
0.0022561331
0.0022184174
0.0021796642
0.0021404223
0.0021009299
0.0020612056
0.0020210191
0.0019803174
0.0019391642
0.0018975098
0.0018553052
0.0018124233
0.0017688985
0.0017248681
0.0016802218
0.00163494
0.0015890774
0.0015424869
0.0014951922
0.0014471981
0.0013983565
0.0013487257
0.0012982672
0.0012467999
0.0011945696
0.0011412041
0.0010863977
0.0010304571
0.00097236777
0.00090880185
0.0008476382
0.00079511193
0.00073983281
0.00067984257
0.00061917693
0.00055982824
0.00050191533
0.00044484835
0.00039049232
0.00033586406
0.00029777554
0.00023834383
0.00039448121
-0.00026332808
0.0064032966
0.0063153005
0.0061628715
0.0059775072
0.005786134
0.0056014466
0.0054206211
0.0052391491
0.0050586166
0.0048821423
0.004710297
0.0045434897
0.0043840617
0.0042358889
0.0041031626
0.0039890371
0.0038945128
0.0038179953
0.0037556307
0.0037026439
0.0036549891
0.0036101393
0.0035666305
0.0035235494
0.0034803605
0.003436912
0.0033934097
0.0033502505
0.0033079196
0.0032666336
0.0032263103
0.0031867471
0.0031474923
0.0031080252
0.0030680844
0.0030276315
0.0029869499
0.0029464991
0.0029066236
0.002867649
0.0028297636
0.0027928514
0.0027566698
0.0027209745
0.0026856891
0.0026506835
0.0026156341
0.0025801723
0.0025441992
0.0025077277
0.0024706993
0.0024335812
0.0023974192
0.0023625745
0.0023281713
0.0022930591
0.0022566852
0.0022189552
0.0021802032
0.002140964
0.0021014727
0.0020617048
0.0020214099
0.0019805805
0.0019393616
0.001897674
0.0018554494
0.0018127262
0.0017695012
0.0017257016
0.0016811617
0.0016359003
0.0015900335
0.001543445
0.0014961696
0.0014482059
0.0013993931
0.0013497901
0.0012993541
0.0012479019
0.0011956865
0.001142328
0.0010875234
0.0010315769
0.00097350011
0.00091038673
0.00084968314
0.0007971983
0.00074198006
0.00068203401
0.00062132247
0.00056186606
0.00050381652
0.00044660713
0.00039210519
0.00033735047
0.00029907365
0.00023942915
0.00039447626
-0.00026007845
0.0062990205
0.0062188083
0.0060847501
0.005919578
0.005743187
0.0055679292
0.0053945496
0.0052202983
0.0050462218
0.0048751662
0.0047083018
0.0045463243
0.0043913824
0.0042469753
0.0041168809
0.0040039721
0.0039092455
0.0038314
0.0037671206
0.0037121777
0.0036628304
0.0036166112
0.0035720406
0.0035281723
0.003484437
0.0034406324
0.0033968973
0.0033535653
0.0033110485
0.0032695477
0.0032289901
0.0031891735
0.0031496894
0.0031100595
0.0030700254
0.0030295505
0.0029888843
0.0029484472
0.0029085743
0.0028695663
0.0028316012
0.0027945838
0.0027582888
0.0027224855
0.0026870842
0.0026519555
0.0026167967
0.0025812601
0.0025452356
0.0025087334
0.0024717198
0.0024346277
0.002398417
0.0023634407
0.0023288957
0.0022936825
0.0022572498
0.0022195049
0.002180762
0.002141525
0.0021020194
0.0020622199
0.0020219074
0.0019810769
0.0019398342
0.0018980691
0.00185573
0.0018129337
0.0017696766
0.0017258566
0.0016814511
0.0016364445
0.0015907695
0.0015442681
0.0014970054
0.0014490432
0.001400241
0.0013506603
0.0013002537
0.0012488282
0.0011966422
0.0011433049
0.001088516
0.0010325779
0.00097452477
0.00091184334
0.00085156019
0.00079910003
0.00074394795
0.00068406574
0.00062333212
0.0005637924
0.00050562858
0.00044829592
0.00039366219
0.00033879318
0.00030032563
0.00024045755
0.00039415331
-0.00025632655
0.0062003495
0.0061268427
0.0060082143
0.0058606347
0.0056983995
0.0055328464
0.0053671225
0.0052001035
0.005032602
0.004867169
0.0047053892
0.0045482576
0.0043977819
0.0042571202
0.0041296847
0.0040180984
0.0039233494
0.0038443983
0.0037784089
0.0037216518
0.0036706935
0.0036231492
0.0035775356
0.0035328845
0.0034885972
0.0034444258
0.0034004471
0.0033569332
0.0033142299
0.0032725174
0.0032317301
0.0031916684
0.0031519608
0.0031121689
0.00307204
0.0030315371
0.00299088
0.002950452
0.0029105763
0.0028715316
0.0028334855
0.0027963612
0.0027599502
0.0027240352
0.0026885158
0.002653263
0.0026179935
0.0025823795
0.0025463017
0.0025097671
0.0024727639
0.002435694
0.0023994354
0.0023643295
0.0023296412
0.0022943242
0.0022578333
0.0022200751
0.00218134
0.0021420994
0.0021025751
0.0020627494
0.0020224242
0.0019815828
0.0019403155
0.0018985307
0.0018561878
0.0018133756
0.0017700541
0.0017261303
0.0016816577
0.0016366187
0.0015909313
0.0015445776
0.0014975319
0.0014497078
0.0014009724
0.0013513992
0.0013009968
0.0012495859
0.0011974289
0.0011441201
0.0010893582
0.001033443
0.00097542501
0.00091315361
0.00085324937
0.00080079628
0.0007457151
0.00068591628
0.00062518466
0.00056558674
0.00050733216
0.00044989683
0.00039514693
0.0003401773
0.0003015174
0.00024141415
0.00039345654
-0.00025200357
0.0061066956
0.0060390236
0.0059334162
0.0058011332
0.0056521012
0.005496321
0.0053384087
0.005178621
0.0050177624
0.004858113
0.0047015185
0.004549249
0.0044032204
0.0042662889
0.0041415424
0.0040313835
0.0039367885
0.00385695
0.0037894567
0.0037310357
0.0036785577
0.0036297401
0.0035831082
0.0035376819
0.0034928383
0.0034482891
0.0034040535
0.0033603452
0.0033174494
0.0032755227
0.003234505
0.0031942016
0.0031542726
0.0031143174
0.0030740913
0.0030335551
0.0029929023
0.0029524809
0.0029125998
0.0028735184
0.0028353934
0.0027981639
0.0027616383
0.0027256112
0.0026899745
0.002654599
0.0026192192
0.0025835265
0.0025473949
0.0025108277
0.0024738319
0.0024367804
0.0024004739
0.0023652399
0.0023304086
0.0022949872
0.0022584377
0.0022206642
0.0021819338
0.0021426884
0.002103147
0.0020632974
0.0020229561
0.0019820983
0.0019408082
0.0018990091
0.0018566577
0.0018138267
0.0017704841
0.0017265521
0.0016820626
0.0016369637
0.0015911837
0.0015447798
0.0014977009
0.0014498818
0.00140131
0.0013519209
0.0013016137
0.0012502382
0.0011980924
0.0011447926
0.0010900503
0.0010341632
0.00097618814
0.00091430264
0.0008547341
0.00080226955
0.00074726278
0.00068756609
0.00062686009
0.00056722917
0.00050890798
0.00045139165
0.00039654247
0.00034148721
0.00030263405
0.00024228269
0.00039235049
-0.0002470444
0.0060175546
0.0059550041
0.0058604402
0.0057414502
0.0056046119
0.0054584967
0.0053084821
0.0051559105
0.00500172
0.0048479709
0.0046966507
0.0045492598
0.0044076615
0.0042744511
0.0041524283
0.0040438005
0.0039495311
0.0038690164
0.0038002224
0.0037402916
0.0036863915
0.0036363576
0.0035887376
0.0035425476
0.0034971469
0.0034522115
0.0034077083
0.0033637954
0.003320703
0.0032785624
0.0032373166
0.0031967773
0.0031566324
0.0031165157
0.0030761919
0.0030356192
0.0029949667
0.0029545496
0.0029146607
0.0028755417
0.0028373389
0.0028000049
0.0027633646
0.0027272242
0.0026914693
0.0026559709
0.00262048
0.0025847064
0.0025485195
0.0025119188
0.0024749264
0.0024378884
0.0024015332
0.0023661732
0.0023311993
0.0022956727
0.0022590631
0.0022212717
0.0021825441
0.0021432937
0.0021037356
0.0020638613
0.002023502
0.0019826282
0.0019413174
0.0018995028
0.0018571381
0.0018142879
0.0017709287
0.0017269859
0.0016824785
0.0016373608
0.0015915729
0.0015451478
0.0014980066
0.0014501069
0.001401496
0.0013520818
0.0013018228
0.0012506101
0.0011986096
0.0011453726
0.001090644
0.0010347662
0.00097682235
0.00091528675
0.0008560046
0.00080350717
0.00074857617
0.00068899877
0.00062834088
0.0005687015
0.0005103378
0.00045276259
0.00039783182
0.00034270696
0.00030366018
0.00024304601
0.00039076956
-0.00024138168
0.005932492
0.0058744706
0.0057893217
0.0056818908
0.0055562313
0.0054195322
0.0052774236
0.0051320331
0.004984501
0.0048367261
0.0046907527
0.004548256
0.0044110734
0.0042815792
0.0041623172
0.004055322
0.0039615435
0.003880557
0.0038106625
0.0037493797
0.0036941623
0.0036429765
0.0035944049
0.0035474682
0.0035015136
0.0034561868
0.0034114074
0.0033672816
0.0033239888
0.0032816347
0.0032401631
0.0031993932
0.0031590369
0.0031187597
0.0030783369
0.0030377234
0.0029970666
0.0029566505
0.002916751
0.0028775932
0.0028393137
0.0028018763
0.0027651217
0.0027288671
0.002692994
0.0026573731
0.0026217712
0.0025859155
0.0025496722
0.0025130373
0.002476045
0.0024390162
0.002402612
0.0023671283
0.0023320128
0.00229638
0.0022597091
0.0022218979
0.0021831714
0.0021439156
0.0021043402
0.0020644408
0.002024063
0.0019831733
0.0019418418
0.00190001
0.0018576315
0.0018147639
0.0017713877
0.0017274301
0.0016829043
0.0016377713
0.0015919727
0.0015455298
0.0014983732
0.0014504655
0.0014018254
0.001352345
0.0013020222
0.0012507737
0.0011987753
0.0011456468
0.001091064
0.0010352713
0.00097737361
0.00091614076
0.00085707673
0.00080451124
0.00074964877
0.00069020312
0.00062961317
0.00056998828
0.00051160538
0.00045399324
0.0003989988
0.0003438209
0.00030458036
0.0002436862
0.00038865509
-0.00023494619
0.0058511311
0.0057971414
0.0057200616
0.0056226978
0.0055072323
0.0053795943
0.0052453222
0.0051070524
0.004966139
0.004824373
0.0046837981
0.0045462081
0.0044134277
0.0042876471
0.0041711847
0.0040659211
0.0039727933
0.0038915326
0.0038207344
0.0037582605
0.0037018369
0.0036495701
0.0036000893
0.0035524277
0.0035059262
0.0034602057
0.0034151436
0.0033707978
0.0033273016
0.0032847349
0.0032430407
0.0032020455
0.003161483
0.0031210472
0.0030805248
0.0030398671
0.002999202
0.0029587843
0.002918872
0.0028796749
0.00284132
0.0028037806
0.0027669123
0.0027305431
0.0026945516
0.0026588089
0.002623096
0.0025871566
0.0025508558
0.0025141856
0.0024771896
0.0024401656
0.0024037118
0.0023681064
0.0023328502
0.0022971102
0.0022603768
0.0022225437
0.0021838165
0.0021445545
0.0021049612
0.0020650368
0.0020246399
0.0019837338
0.0019423811
0.0019005316
0.0018581392
0.001815254
0.0017718597
0.0017278868
0.0016833437
0.0016381949
0.0015923822
0.0015459219
0.0014987526
0.0014508338
0.0014021763
0.0013526841
0.0013023502
0.0012510574
0.0011989969
0.0011458323
0.0010912243
0.0010354786
0.00097772619
0.00091686068
0.00085799553
0.00080532328
0.0007505014
0.0006911838
0.00063067176
0.00057107908
0.00051269765
0.00045506938
0.00040002881
0.00034481443
0.00030537974
0.0002441857
0.00038595369
-0.00022767135
0.0057731442
0.0057227644
0.0056526368
0.0055640612
0.0054578574
0.0053388521
0.0052122739
0.0050810344
0.0049466738
0.0048109158
0.0046757682
0.0045430913
0.0044146997
0.0042926316
0.0041790081
0.0040755727
0.0039832491
0.0039019047
0.003830396
0.0037668932
0.0037093803
0.0036561094
0.0036057677
0.003557408
0.003510371
0.0034642578
0.0034189089
0.0033743383
0.0033306368
0.0032878593
0.0032459462
0.0032047316
0.0031639684
0.0031233763
0.0030827539
0.0030420492
0.0030013718
0.0029609497
0.0029210223
0.002881785
0.0028433559
0.0028057158
0.0027687345
0.0027322504
0.0026961405
0.0026602765
0.0026244526
0.0025884283
0.0025520688
0.0025153623
0.0024783593
0.0024413357
0.0024048316
0.0023691068
0.002333711
0.0022978632
0.002261066
0.002223209
0.0021844793
0.0021452102
0.0021055989
0.0020656493
0.0020252326
0.0019843095
0.0019429356
0.001901068
0.0018586611
0.001815758
0.0017723451
0.0017283567
0.0016837963
0.0016386307
0.0015928035
0.0015463267
0.0014991434
0.001451211
0.0014025375
0.0013530348
0.0013026876
0.0012513872
0.0011993095
0.0011461198
0.0010914733
0.0010356834
0.0009779133
0.00091728053
0.00085863424
0.00080592206
0.0007511663
0.00069197855
0.00063153768
0.00057197957
0.00051361013
0.00045598134
0.00040090989
0.0003456747
0.00030604447
0.00024452831
0.0003826184
-0.00021949886
0.0056982451
0.0056511139
0.0055870086
0.0055061267
0.0054083182
0.0052974709
0.0051783807
0.0050540486
0.0049261505
0.0047963678
0.0046666522
0.0045388862
0.0044148688
0.0042965125
0.0041857666
0.0040842526
0.0039928806
0.0039116361
0.0038396054
0.0037752367
0.003716756
0.0036625643
0.0036114157
0.0035623901
0.0035148331
0.0034683317
0.0034226947
0.0033778963
0.0033339888
0.003291003
0.0032488755
0.0032074476
0.0031664895
0.0031257442
0.0030850217
0.0030442674
0.0030035741
0.0029631448
0.0029232005
0.0028839225
0.0028454203
0.0028076812
0.0027705879
0.0027339888
0.0026977607
0.0026617762
0.0026258416
0.0025897315
0.0025533121
0.0025165681
0.0024795546
0.0024425272
0.002405972
0.00237013
0.002334596
0.0022986398
0.0022617775
0.0022238946
0.0021851604
0.0021458834
0.0021062536
0.0020662788
0.0020258416
0.0019849011
0.0019435058
0.0019016195
0.0018591976
0.0018162763
0.0017728445
0.0017288401
0.0016842619
0.0016390791
0.0015932373
0.0015467438
0.0014995456
0.0014515995
0.0014029106
0.0013533954
0.0013030344
0.0012517275
0.0011996288
0.0011464244
0.0010917856
0.0010359847
0.00097822474
0.00091769918
0.00085913306
0.00080622268
0.00075151796
0.0006925483
0.00063223086
0.00057272298
0.0005143635
0.00045673494
0.00040163836
0.00034639301
0.00030656294
0.0002446962
0.000378618
-0.00021038682
0.0056261826
0.0055819882
0.0055231276
0.005449004
0.0053587959
0.0052556082
0.0051437481
0.0050261673
0.0049046181
0.0047807499
0.0046564472
0.0045335791
0.004413919
0.0042992729
0.004191442
0.0040919386
0.0040016589
0.0039206904
0.0038483214
0.0037832497
0.0037239268
0.0036689029
0.0036170071
0.0035673528
0.0035192961
0.0034724147
0.003426491
0.0033814641
0.0033373513
0.0032941606
0.0032518241
0.0032101895
0.0031690428
0.0031281476
0.0030873256
0.0030465196
0.0030058072
0.0029653683
0.0029254051
0.0028860859
0.0028475119
0.0028096755
0.0027724715
0.0027357577
0.0026994117
0.0026633076
0.0026272627
0.0025910657
0.0025545852
0.0025178024
0.0024807752
0.0024437398
0.0024071326
0.0023711756
0.0023355049
0.0022994398
0.0022625113
0.0022246006
0.0021858599
0.0021465742
0.0021069255
0.0020669253
0.0020264671
0.0019855085
0.0019440918
0.0019021863
0.0018597488
0.0018168092
0.0017733581
0.0017293372
0.001684741
0.0016395406
0.0015936836
0.0015471731
0.0014999596
0.0014519997
0.001403295
0.0013537667
0.0013033923
0.0012520778
0.0011999572
0.0011467401
0.0010921091
0.0010362912
0.00097860247
0.00091818021
0.00085965439
0.00080655278
0.00075176519
0.00069286872
0.00063264457
0.00057326055
0.00051496933
0.00045735874
0.00040223417
0.00034697575
0.00030693481
0.00024466144
0.00037394981
-0.00020031813
0.0055567356
0.0055152069
0.0054609382
0.0053927729
0.005309443
0.0052134104
0.0051084827
0.0049974657
0.0048821296
0.0047640902
0.0046451583
0.0045271626
0.0044118385
0.0043008993
0.0041960183
0.0040986102
0.0040095568
0.0039290329
0.0038565039
0.0037908908
0.0037308545
0.0036750923
0.0036225143
0.0035722736
0.0035237418
0.0034764924
0.0034302868
0.0033850329
0.0033407171
0.0032973262
0.0032547867
0.0032129527
0.003171624
0.003130583
0.0030896626
0.0030488033
0.003008069
0.002967618
0.0029276345
0.0028882738
0.0028496294
0.0028116976
0.0027743841
0.0027375561
0.0027010929
0.0026648701
0.0026287154