/*--------------------------------*- C++ -*----------------------------------*\
  =========                 |
  \\      /  F ield         | OpenFOAM: The Open Source CFD Toolbox
   \\    /   O peration     | Website:  https://openfoam.org
    \\  /    A nd           | Version:  12
     \\/     M anipulation  |
\*---------------------------------------------------------------------------*/
FoamFile
{
    format      ascii;
    class       volScalarField;
    location    "800";
    object      p;
}
// * * * * * * * * * * * * * * * * * * * * * * * * * * * * * * * * * * * * * //

dimensions      [0 2 -2 0 0 0 0];

internalField   nonuniform List<scalar> 
13056
(
0.0040824935
0.0041022518
0.0041454297
0.0042000306
0.0042643979
0.0043384605
0.0044215559
0.0045129653
0.0046123521
0.0047197639
0.0048355482
0.0049603549
0.0050952172
0.0052416972
0.0054020842
0.0055798152
0.00577989
0.006010689
0.0062838544
0.0066270638
0.0070654751
0.0077612552
0.0086436077
0.012596631
0.0091346589
0.0040355393
0.003933033
0.0044060597
0.004526205
0.004469539
0.0043935714
0.0043254073
0.0042572819
0.0041879773
0.0041199142
0.0040547368
0.0039930248
0.0039344355
0.0038786974
0.0038256116
0.0037750215
0.0037267723
0.0036805273
0.0036362982
0.0035936965
0.0035527414
0.0035133206
0.0034750198
0.0034380501
0.0034022686
0.003367314
0.003333327
0.0033002887
0.0032679597
0.0032362143
0.0032052481
0.0031749387
0.0031450117
0.0031155203
0.0030866088
0.003058146
0.0030299039
0.0030019176
0.0029743601
0.0029471319
0.0029199797
0.0028929671
0.0028661735
0.0028396206
0.0028131236
0.0027866249
0.0027601425
0.0027338214
0.0027075627
0.0026811569
0.0026546667
0.0026281315
0.0026016176
0.0025749775
0.0025481027
0.0025210101
0.0024938073
0.0024664814
0.0024388276
0.0024108386
0.0023824987
0.0023539468
0.0023250918
0.0022957084
0.0022658413
0.002235504
0.0022047649
0.0021734639
0.0021414521
0.002108709
0.0020753779
0.0020413661
0.0020063901
0.0019704467
0.001933567
0.0018957459
0.0018567426
0.00181638
0.0017746876
0.0017316557
0.0016870149
0.0016404926
0.001592145
0.0015418505
0.0014892061
0.0014339884
0.0013761906
0.00131563
0.0012528221
0.0011898723
0.0011279368
0.0010668236
0.0010064695
0.00094702525
0.00088838615
0.00083034826
0.00077295569
0.00071643067
0.00066076211
0.00060578341
0.00055164439
0.0004984764
0.00044659713
0.00039631104
0.00034761039
0.00030222502
0.000258546
0.00022877146
0.00019036009
0.00031232932
-0.00024362644
0.0040824935
0.0041022518
0.0041454297
0.0042000306
0.0042643979
0.0043384605
0.004421556
0.0045129653
0.0046123521
0.0047197639
0.0048355482
0.0049603549
0.0050952172
0.0052416972
0.0054020843
0.0055798152
0.0057798901
0.006010689
0.0062838545
0.0066270639
0.0070654751
0.0077612552
0.0086436085
0.012579362
0.0091354655
0.004036203
0.0039331313
0.0044060967
0.0045262312
0.0044695613
0.0043935909
0.0043254246
0.0042572974
0.0041879913
0.0041199269
0.0040547484
0.0039930355
0.0039344454
0.0038787066
0.0038256201
0.0037750294
0.0037267798
0.0036805342
0.0036363047
0.0035937027
0.0035527472
0.0035133261
0.003475025
0.003438055
0.0034022733
0.0033673184
0.0033333313
0.0033002928
0.0032679636
0.0032362179
0.0032052516
0.003174942
0.0031450149
0.0031155234
0.0030866118
0.0030581489
0.0030299066
0.0030019202
0.0029743626
0.0029471343
0.002919982
0.0028929693
0.0028661756
0.0028396226
0.0028131256
0.0027866268
0.0027601444
0.0027338231
0.0027075644
0.0026811586
0.0026546683
0.0026281331
0.0026016191
0.0025749789
0.0025481041
0.0025210114
0.0024938086
0.0024664827
0.0024388288
0.0024108397
0.0023824998
0.0023539479
0.0023250928
0.0022957094
0.0022658422
0.002235505
0.0022047658
0.0021734648
0.0021414529
0.0021087098
0.0020753786
0.0020413669
0.0020063908
0.0019704474
0.0019335676
0.0018957465
0.0018567432
0.0018163806
0.0017746882
0.0017316562
0.0016870154
0.0016404931
0.0015921455
0.001541851
0.0014892065
0.0014339888
0.001376191
0.0013156304
0.0012528225
0.0011898726
0.0011279371
0.0010668239
0.0010064698
0.00094702552
0.00088838641
0.00083034851
0.00077295593
0.00071643091
0.00066076234
0.00060578363
0.0005516446
0.0004984766
0.00044659733
0.00039631123
0.00034761058
0.0003022252
0.00025854618
0.00022877164
0.00019036027
0.00031232953
-0.0002436263
0.0040824935
0.0041022518
0.0041454297
0.0042000306
0.0042643979
0.0043384605
0.004421556
0.0045129653
0.0046123521
0.0047197639
0.0048355482
0.0049603549
0.0050952172
0.0052416972
0.0054020843
0.0055798153
0.0057798901
0.0060106891
0.0062838545
0.0066270639
0.0070654752
0.0077612551
0.008643609
0.012562951
0.0091363424
0.0040369697
0.003933248
0.0044061411
0.0045262626
0.0044695879
0.0043936142
0.0043254452
0.0042573158
0.004188008
0.0041199421
0.0040547623
0.0039930483
0.0039344572
0.0038787176
0.0038256303
0.003775039
0.0037267887
0.0036805426
0.0036363126
0.0035937101
0.0035527541
0.0035133327
0.0034750312
0.0034380609
0.0034022789
0.0033673237
0.0033333363
0.0033002976
0.0032679682
0.0032362223
0.0032052558
0.003174946
0.0031450187
0.003115527
0.0030866153
0.0030581522
0.0030299098
0.0030019233
0.0029743656
0.0029471372
0.0029199848
0.0028929719
0.0028661782
0.0028396251
0.002813128
0.0027866291
0.0027601466
0.0027338252
0.0027075664
0.0026811605
0.0026546702
0.0026281349
0.0026016209
0.0025749806
0.0025481057
0.002521013
0.0024938101
0.0024664841
0.0024388302
0.0024108411
0.0023825011
0.0023539492
0.0023250941
0.0022957105
0.0022658434
0.0022355061
0.0022047668
0.0021734658
0.0021414539
0.0021087108
0.0020753795
0.0020413677
0.0020063916
0.0019704482
0.0019335684
0.0018957473
0.0018567439
0.0018163813
0.0017746888
0.0017316569
0.001687016
0.0016404936
0.001592146
0.0015418515
0.001489207
0.0014339893
0.0013761914
0.0013156308
0.0012528229
0.001189873
0.0011279375
0.0010668243
0.0010064701
0.00094702585
0.00088838673
0.00083034882
0.00077295623
0.00071643119
0.00066076261
0.00060578389
0.00055164485
0.00049847685
0.00044659757
0.00039631146
0.00034761081
0.00030222542
0.00025854639
0.00022877186
0.00019036049
0.00031232979
-0.00024362613
0.0040824935
0.0041022518
0.0041454297
0.0042000306
0.0042643979
0.0043384605
0.004421556
0.0045129653
0.0046123521
0.0047197639
0.0048355482
0.0049603549
0.0050952173
0.0052416972
0.0054020843
0.0055798153
0.0057798902
0.0060106891
0.0062838546
0.0066270639
0.0070654751
0.0077612547
0.0086436096
0.01254832
0.0091373253
0.0040376764
0.003933358
0.0044061848
0.0045262935
0.004469614
0.0043936371
0.0043254655
0.0042573339
0.0041880243
0.004119957
0.004054776
0.0039930609
0.0039344688
0.0038787283
0.0038256403
0.0037750483
0.0037267974
0.0036805508
0.0036363203
0.0035937173
0.003552761
0.0035133391
0.0034750373
0.0034380667
0.0034022844
0.003367329
0.0033333413
0.0033003023
0.0032679727
0.0032362266
0.00320526
0.00317495
0.0031450225
0.0031155306
0.0030866188
0.0030581556
0.003029913
0.0030019264
0.0029743685
0.00294714
0.0029199875
0.0028929745
0.0028661807
0.0028396275
0.0028131303
0.0027866313
0.0027601487
0.0027338273
0.0027075684
0.0026811625
0.0026546721
0.0026281367
0.0026016226
0.0025749823
0.0025481073
0.0025210146
0.0024938116
0.0024664856
0.0024388316
0.0024108424
0.0023825024
0.0023539504
0.0023250953
0.0022957117
0.0022658445
0.0022355071
0.0022047679
0.0021734668
0.0021414549
0.0021087117
0.0020753804
0.0020413686
0.0020063924
0.001970449
0.0019335692
0.001895748
0.0018567447
0.001816382
0.0017746895
0.0017316575
0.0016870166
0.0016404942
0.0015921466
0.001541852
0.0014892075
0.0014339898
0.0013761919
0.0013156312
0.0012528233
0.0011898734
0.0011279378
0.0010668246
0.0010064704
0.00094702618
0.00088838704
0.00083034911
0.00077295651
0.00071643147
0.00066076288
0.00060578415
0.0005516451
0.00049847709
0.00044659781
0.00039631169
0.00034761103
0.00030222564
0.0002585466
0.00022877207
0.00019036069
0.00031233003
-0.00024362597
0.0040824935
0.0041022518
0.0041454297
0.0042000306
0.0042643979
0.0043384605
0.004421556
0.0045129653
0.0046123521
0.0047197639
0.0048355482
0.004960355
0.0050952173
0.0052416973
0.0054020844
0.0055798153
0.0057798902
0.0060106892
0.0062838546
0.0066270639
0.0070654751
0.007761254
0.0086436105
0.012533878
0.0091384678
0.0040383214
0.00393347
0.00440623
0.0045263253
0.0044696409
0.0043936606
0.0043254863
0.0042573526
0.0041880412
0.0041199723
0.00405479
0.0039930738
0.0039344807
0.0038787394
0.0038256506
0.0037750579
0.0037268064
0.0036805592
0.0036363282
0.0035937248
0.003552768
0.0035133458
0.0034750436
0.0034380727
0.00340229
0.0033673343
0.0033333464
0.0033003072
0.0032679773
0.0032362311
0.0032052642
0.003174954
0.0031450263
0.0031155343
0.0030866223
0.003058159
0.0030299163
0.0030019295
0.0029743715
0.0029471429
0.0029199903
0.0028929772
0.0028661832
0.00283963
0.0028131327
0.0027866336
0.0027601509
0.0027338295
0.0027075705
0.0026811644
0.002654674
0.0026281385
0.0026016244
0.002574984
0.002548109
0.0025210162
0.0024938132
0.0024664871
0.002438833
0.0024108438
0.0023825037
0.0023539517
0.0023250965
0.0022957129
0.0022658456
0.0022355082
0.0022047689
0.0021734678
0.0021414559
0.0021087127
0.0020753814
0.0020413695
0.0020063933
0.0019704498
0.0019335699
0.0018957488
0.0018567454
0.0018163826
0.0017746901
0.0017316581
0.0016870172
0.0016404948
0.0015921471
0.0015418526
0.001489208
0.0014339902
0.0013761923
0.0013156317
0.0012528237
0.0011898738
0.0011279382
0.001066825
0.0010064708
0.00094702651
0.00088838736
0.00083034942
0.00077295681
0.00071643175
0.00066076315
0.00060578442
0.00055164536
0.00049847734
0.00044659805
0.00039631192
0.00034761125
0.00030222586
0.00025854682
0.00022877228
0.00019036089
0.00031233029
-0.00024362581
0.0040824935
0.0041022518
0.0041454297
0.0042000306
0.0042643979
0.0043384605
0.004421556
0.0045129653
0.0046123521
0.004719764
0.0048355482
0.004960355
0.0050952173
0.0052416973
0.0054020844
0.0055798154
0.0057798902
0.0060106892
0.0062838546
0.0066270639
0.007065475
0.007761253
0.0086436115
0.012519043
0.009139605
0.0040388992
0.0039335907
0.0044062789
0.0045263595
0.0044696697
0.0043936858
0.0043255086
0.0042573725
0.0041880592
0.0041199887
0.004054805
0.0039930876
0.0039344935
0.0038787512
0.0038256616
0.0037750681
0.003726816
0.0036805682
0.0036363366
0.0035937327
0.0035527755
0.0035133529
0.0034750503
0.003438079
0.0034022961
0.0033673401
0.0033333519
0.0033003124
0.0032679823
0.0032362358
0.0032052687
0.0031749583
0.0031450305
0.0031155383
0.0030866261
0.0030581626
0.0030299197
0.0030019329
0.0029743748
0.002947146
0.0029199932
0.0028929801
0.002866186
0.0028396326
0.0028131352
0.0027866361
0.0027601533
0.0027338317
0.0027075727
0.0026811665
0.002654676
0.0026281405
0.0026016263
0.0025749858
0.0025481108
0.0025210179
0.0024938148
0.0024664886
0.0024388345
0.0024108453
0.0023825052
0.0023539531
0.0023250978
0.0022957142
0.0022658469
0.0022355094
0.0022047701
0.0021734689
0.0021414569
0.0021087137
0.0020753823
0.0020413704
0.0020063942
0.0019704507
0.0019335708
0.0018957496
0.0018567461
0.0018163834
0.0017746908
0.0017316588
0.0016870179
0.0016404954
0.0015921477
0.0015418531
0.0014892086
0.0014339908
0.0013761928
0.0013156321
0.0012528242
0.0011898742
0.0011279386
0.0010668254
0.0010064712
0.00094702686
0.0008883877
0.00083034975
0.00077295712
0.00071643205
0.00066076344
0.0006057847
0.00055164563
0.0004984776
0.0004465983
0.00039631217
0.00034761149
0.00030222609
0.00025854704
0.00022877251
0.00019036111
0.00031233056
-0.00024362564
0.0040824935
0.0041022518
0.0041454297
0.0042000306
0.004264398
0.0043384605
0.004421556
0.0045129653
0.0046123522
0.004719764
0.0048355483
0.004960355
0.0050952173
0.0052416973
0.0054020844
0.0055798154
0.0057798903
0.0060106892
0.0062838546
0.0066270638
0.0070654748
0.0077612517
0.008643613
0.012503787
0.0091407636
0.004039483
0.0039337244
0.0044063332
0.0045263971
0.0044697013
0.0043937135
0.0043255331
0.0042573944
0.0041880789
0.0041200067
0.0040548214
0.0039931027
0.0039345074
0.0038787641
0.0038256736
0.0037750793
0.0037268264
0.003680578
0.0036363458
0.0035937414
0.0035527837
0.0035133606
0.0034750576
0.0034380859
0.0034023026
0.0033673463
0.0033333578
0.003300318
0.0032679877
0.0032362409
0.0032052736
0.003174963
0.003145035
0.0031155426
0.0030866302
0.0030581665
0.0030299235
0.0030019365
0.0029743782
0.0029471494
0.0029199965
0.0028929832
0.002866189
0.0028396355
0.002813138
0.0027866387
0.0027601559
0.0027338342
0.0027075751
0.0026811688
0.0026546783
0.0026281426
0.0026016283
0.0025749878
0.0025481127
0.0025210197
0.0024938166
0.0024664904
0.0024388362
0.0024108469
0.0023825067
0.0023539546
0.0023250992
0.0022957155
0.0022658482
0.0022355107
0.0022047713
0.0021734701
0.0021414581
0.0021087148
0.0020753834
0.0020413714
0.0020063952
0.0019704516
0.0019335717
0.0018957504
0.001856747
0.0018163842
0.0017746916
0.0017316595
0.0016870186
0.0016404961
0.0015921484
0.0015418537
0.0014892091
0.0014339913
0.0013761934
0.0013156326
0.0012528247
0.0011898746
0.0011279391
0.0010668258
0.0010064716
0.00094702724
0.00088838806
0.0008303501
0.00077295746
0.00071643238
0.00066076376
0.000605785
0.00055164592
0.00049847789
0.00044659858
0.00039631244
0.00034761175
0.00030222635
0.00025854729
0.00022877276
0.00019036135
0.00031233085
-0.00024362546
0.0040824935
0.0041022518
0.0041454297
0.0042000306
0.004264398
0.0043384605
0.004421556
0.0045129653
0.0046123522
0.004719764
0.0048355483
0.004960355
0.0050952174
0.0052416974
0.0054020845
0.0055798154
0.0057798903
0.0060106892
0.0062838546
0.0066270636
0.0070654746
0.0077612498
0.0086436147
0.012488159
0.0091419543
0.0040402014
0.003933877
0.0044063953
0.0045264397
0.0044697369
0.0043937445
0.0043255605
0.0042574189
0.004188101
0.0041200267
0.0040548398
0.0039931195
0.003934523
0.0038787785
0.003825687
0.0037750918
0.0037268381
0.0036805889
0.0036363561
0.003593751
0.0035527928
0.0035133692
0.0034750657
0.0034380936
0.0034023099
0.0033673532
0.0033333644
0.0033003243
0.0032679937
0.0032362466
0.003205279
0.0031749682
0.0031450399
0.0031155474
0.0030866348
0.0030581709
0.0030299277
0.0030019405
0.0029743821
0.0029471531
0.00292
0.0028929866
0.0028661923
0.0028396387
0.0028131411
0.0027866417
0.0027601587
0.0027338369
0.0027075777
0.0026811714
0.0026546807
0.002628145
0.0026016306
0.00257499
0.0025481148
0.0025210217
0.0024938186
0.0024664923
0.002438838
0.0024108486
0.0023825084
0.0023539562
0.0023251008
0.0022957171
0.0022658497
0.0022355121
0.0022047727
0.0021734714
0.0021414594
0.002108716
0.0020753846
0.0020413726
0.0020063962
0.0019704527
0.0019335727
0.0018957514
0.0018567479
0.0018163851
0.0017746925
0.0017316603
0.0016870193
0.0016404968
0.0015921491
0.0015418544
0.0014892098
0.0014339919
0.001376194
0.0013156332
0.0012528252
0.0011898752
0.0011279395
0.0010668262
0.001006472
0.00094702766
0.00088838847
0.00083035049
0.00077295783
0.00071643274
0.0006607641
0.00060578534
0.00055164625
0.0004984782
0.00044659888
0.00039631273
0.00034761204
0.00030222663
0.00025854756
0.00022877303
0.00019036161
0.00031233117
-0.00024362526
0.0040824935
0.0041022518
0.0041454297
0.0042000306
0.004264398
0.0043384605
0.004421556
0.0045129653
0.0046123522
0.004719764
0.0048355483
0.0049603551
0.0050952174
0.0052416974
0.0054020845
0.0055798155
0.0057798903
0.0060106892
0.0062838545
0.0066270634
0.0070654743
0.0077612473
0.008643617
0.01247221
0.0091428566
0.0040411568
0.0039340595
0.0044064688
0.0045264895
0.0044697783
0.0043937805
0.0043255923
0.0042574471
0.0041881264
0.0041200498
0.0040548609
0.0039931389
0.0039345408
0.003878795
0.0038257023
0.0037751061
0.0037268514
0.0036806014
0.0036363678
0.003593762
0.0035528031
0.0035133789
0.003475075
0.0034381024
0.0034023182
0.0033673611
0.0033333719
0.0033003314
0.0032680004
0.0032362531
0.0032052852
0.0031749741
0.0031450456
0.0031155528
0.00308664
0.0030581759
0.0030299325
0.0030019451
0.0029743865
0.0029471573
0.0029200041
0.0028929905
0.002866196
0.0028396423
0.0028131445
0.002786645
0.0027601619
0.00273384
0.0027075806
0.0026811742
0.0026546835
0.0026281476
0.0026016332
0.0025749925
0.0025481172
0.002521024
0.0024938208
0.0024664944
0.0024388401
0.0024108506
0.0023825103
0.0023539581
0.0023251026
0.0022957188
0.0022658513
0.0022355137
0.0022047742
0.0021734729
0.0021414608
0.0021087174
0.0020753859
0.0020413738
0.0020063975
0.0019704538
0.0019335738
0.0018957525
0.0018567489
0.0018163861
0.0017746934
0.0017316612
0.0016870202
0.0016404977
0.0015921499
0.0015418552
0.0014892105
0.0014339926
0.0013761946
0.0013156338
0.0012528258
0.0011898757
0.0011279401
0.0010668267
0.0010064725
0.00094702813
0.00088838892
0.00083035092
0.00077295825
0.00071643314
0.00066076449
0.00060578571
0.00055164661
0.00049847855
0.00044659922
0.00039631306
0.00034761236
0.00030222694
0.00025854787
0.00022877333
0.00019036189
0.00031233153
-0.00024362504
0.0040824935
0.0041022518
0.0041454297
0.0042000306
0.004264398
0.0043384605
0.004421556
0.0045129654
0.0046123522
0.004719764
0.0048355483
0.0049603551
0.0050952174
0.0052416974
0.0054020845
0.0055798155
0.0057798903
0.0060106892
0.0062838544
0.0066270632
0.0070654739
0.0077612441
0.0086436197
0.012456023
0.0091431411
0.0040424388
0.0039342911
0.0044065602
0.0045265504
0.0044698286
0.0043938241
0.0043256305
0.0042574811
0.0041881569
0.0041200774
0.004054886
0.0039931619
0.0039345621
0.0038788146
0.0038257205
0.003775123
0.0037268672
0.0036806161
0.0036363816
0.003593775
0.0035528153
0.0035133905
0.0034750859
0.0034381127
0.003402328
0.0033673703
0.0033333806
0.0033003398
0.0032680084
0.0032362607
0.0032052924
0.003174981
0.0031450522
0.0031155591
0.003086646
0.0030581816
0.003029938
0.0030019504
0.0029743916
0.0029471622
0.0029200088
0.002892995
0.0028662003
0.0028396464
0.0028131485
0.0027866488
0.0027601656
0.0027338436
0.0027075841
0.0026811775
0.0026546866
0.0026281507
0.0026016361
0.0025749953
0.0025481199
0.0025210267
0.0024938233
0.0024664968
0.0024388425
0.0024108529
0.0023825125
0.0023539602
0.0023251046
0.0022957207
0.0022658532
0.0022355155
0.0022047759
0.0021734746
0.0021414624
0.0021087189
0.0020753874
0.0020413753
0.0020063988
0.0019704552
0.0019335751
0.0018957537
0.0018567501
0.0018163872
0.0017746945
0.0017316623
0.0016870212
0.0016404986
0.0015921508
0.001541856
0.0014892113
0.0014339934
0.0013761953
0.0013156345
0.0012528264
0.0011898764
0.0011279407
0.0010668273
0.001006473
0.00094702866
0.00088838943
0.00083035141
0.00077295872
0.00071643359
0.00066076493
0.00060578613
0.00055164702
0.00049847894
0.0004465996
0.00039631343
0.00034761272
0.00030222729
0.00025854821
0.00022877368
0.00019036222
0.00031233194
-0.00024362478
0.0040824935
0.0041022518
0.0041454297
0.0042000306
0.004264398
0.0043384606
0.0044215561
0.0045129654
0.0046123522
0.0047197641
0.0048355484
0.0049603551
0.0050952175
0.0052416975
0.0054020846
0.0055798155
0.0057798903
0.0060106891
0.0062838543
0.0066270628
0.0070654733
0.00776124
0.0086436232
0.012439703
0.0091431172
0.0040441556
0.0039346034
0.0044066808
0.0045266292
0.0044698929
0.0043938795
0.004325679
0.004257524
0.0041881953
0.0041201121
0.0040549175
0.0039931907
0.0039345885
0.003878839
0.003825743
0.0037751439
0.0037268866
0.0036806343
0.0036363986
0.003593791
0.0035528303
0.0035134046
0.0034750992
0.0034381252
0.0034023399
0.0033673816
0.0033333913
0.0033003499
0.0032680181
0.0032362699
0.0032053012
0.0031749894
0.0031450602
0.0031155667
0.0030866533
0.0030581886
0.0030299447
0.0030019568
0.0029743977
0.0029471681
0.0029200144
0.0028930004
0.0028662055
0.0028396514
0.0028131533
0.0027866535
0.0027601701
0.0027338479
0.0027075882
0.0026811815
0.0026546905
0.0026281544
0.0026016397
0.0025749987
0.0025481232
0.0025210299
0.0024938264
0.0024664998
0.0024388453
0.0024108556
0.0023825151
0.0023539627
0.0023251071
0.0022957231
0.0022658555
0.0022355177
0.002204778
0.0021734766
0.0021414643
0.0021087208
0.0020753892
0.002041377
0.0020064005
0.0019704568
0.0019335766
0.0018957551
0.0018567515
0.0018163885
0.0017746958
0.0017316635
0.0016870224
0.0016404997
0.0015921518
0.0015418571
0.0014892123
0.0014339943
0.0013761962
0.0013156353
0.0012528272
0.0011898771
0.0011279414
0.001066828
0.0010064737
0.00094702929
0.00088839003
0.00083035198
0.00077295927
0.00071643412
0.00066076544
0.00060578663
0.00055164749
0.0004984794
0.00044660005
0.00039631386
0.00034761314
0.0003022277
0.00025854861
0.00022877408
0.0001903626
0.00031233241
-0.00024362449
0.0040824935
0.0041022518
0.0041454297
0.0042000307
0.004264398
0.0043384606
0.0044215561
0.0045129654
0.0046123523
0.0047197641
0.0048355484
0.0049603552
0.0050952175
0.0052416975
0.0054020846
0.0055798155
0.0057798903
0.0060106891
0.0062838541
0.0066270622
0.0070654725
0.0077612345
0.0086436275
0.012423364
0.0091432298
0.0040464525
0.0039350492
0.0044068509
0.0045267374
0.00446998
0.0043939541
0.0043257438
0.0042575811
0.0041882461
0.0041201578
0.0040549589
0.0039932285
0.003934623
0.0038788708
0.0038257724
0.0037751711
0.0037269119
0.0036806578
0.0036364206
0.0035938115
0.0035528496
0.0035134227
0.0034751163
0.0034381414
0.0034023551
0.0033673961
0.003333405
0.0033003629
0.0032680304
0.0032362816
0.0032053124
0.003175
0.0031450703
0.0031155764
0.0030866625
0.0030581975
0.0030299532
0.0030019649
0.0029744055
0.0029471755
0.0029200215
0.0028930072
0.0028662121
0.0028396577
0.0028131594
0.0027866593
0.0027601756
0.0027338532
0.0027075934
0.0026811865
0.0026546952
0.002628159
0.0026016441
0.002575003
0.0025481273
0.0025210338
0.0024938302
0.0024665034
0.0024388488
0.002410859
0.0023825184
0.0023539658
0.0023251101
0.002295726
0.0022658582
0.0022355204
0.0022047806
0.0021734791
0.0021414667
0.0021087231
0.0020753913
0.0020413791
0.0020064025
0.0019704587
0.0019335784
0.0018957569
0.0018567532
0.0018163901
0.0017746973
0.001731665
0.0016870238
0.0016405011
0.0015921531
0.0015418583
0.0014892135
0.0014339954
0.0013761973
0.0013156364
0.0012528282
0.001189878
0.0011279423
0.0010668288
0.0010064745
0.00094703004
0.00088839075
0.00083035268
0.00077295994
0.00071643476
0.00066076606
0.00060578722
0.00055164807
0.00049847996
0.00044660059
0.00039631439
0.00034761365
0.00030222819
0.00025854909
0.00022877456
0.00019036306
0.00031233297
-0.00024362413
0.0040824935
0.0041022518
0.0041454297
0.0042000307
0.004264398
0.0043384606
0.0044215561
0.0045129654
0.0046123523
0.0047197641
0.0048355484
0.0049603552
0.0050952176
0.0052416975
0.0054020846
0.0055798155
0.0057798903
0.006010689
0.0062838538
0.0066270615
0.0070654715
0.0077612276
0.0086436329
0.01240709
0.0091435302
0.0040495864
0.0039357107
0.0044071046
0.0045268952
0.004470105
0.00439406
0.0043258352
0.004257661
0.004188317
0.0041202213
0.0040550162
0.0039932805
0.0039346705
0.0038789144
0.0038258125
0.0037752082
0.0037269463
0.0036806898
0.0036364504
0.0035938394
0.0035528757
0.0035134472
0.0034751393
0.0034381631
0.0034023756
0.0033674154
0.0033334233
0.0033003803
0.0032680469
0.0032362973
0.0032053273
0.0031750142
0.0031450838
0.0031155892
0.0030866748
0.0030582092
0.0030299644
0.0030019756
0.0029744157
0.0029471853
0.0029200309
0.0028930163
0.0028662207
0.002839666
0.0028131673
0.0027866669
0.002760183
0.0027338603
0.0027076001
0.002681193
0.0026547015
0.002628165
0.0026016498
0.0025750085
0.0025481326
0.0025210389
0.0024938351
0.0024665082
0.0024388534
0.0024108634
0.0023825226
0.0023539699
0.002325114
0.0022957297
0.0022658618
0.0022355238
0.0022047839
0.0021734823
0.0021414698
0.002108726
0.0020753942
0.0020413818
0.0020064051
0.0019704612
0.0019335808
0.0018957592
0.0018567554
0.0018163922
0.0017746993
0.0017316669
0.0016870256
0.0016405028
0.0015921548
0.0015418599
0.001489215
0.0014339969
0.0013761986
0.0013156376
0.0012528294
0.0011898792
0.0011279434
0.0010668299
0.0010064755
0.000947031
0.00088839166
0.00083035355
0.00077296078
0.00071643557
0.00066076683
0.00060578797
0.00055164879
0.00049848066
0.00044660126
0.00039631504
0.00034761428
0.00030222881
0.00025854969
0.00022877516
0.00019036363
0.00031233368
-0.00024362368
0.0040824935
0.0041022518
0.0041454297
0.0042000307
0.004264398
0.0043384606
0.0044215561
0.0045129655
0.0046123523
0.0047197642
0.0048355485
0.0049603553
0.0050952176
0.0052416976
0.0054020847
0.0055798155
0.0057798902
0.0060106888
0.0062838534
0.0066270605
0.0070654701
0.0077612185
0.0086436395
0.01239091
0.0091439256
0.0040539071
0.0039367
0.0044074956
0.0045271346
0.0044702917
0.0043942168
0.0043259694
0.0042577777
0.0041884199
0.0041203129
0.0040550986
0.0039933551
0.0039347384
0.0038789765
0.0038258696
0.0037752608
0.003726995
0.003680735
0.0036364925
0.0035938786
0.0035529125
0.0035134816
0.0034751716
0.0034381935
0.0034024043
0.0033674425
0.0033334489
0.0033004045
0.0032680698
0.003236319
0.0032053479
0.0031750338
0.0031451025
0.003115607
0.0030866918
0.0030582254
0.0030299798
0.0030019904
0.0029744298
0.0029471988
0.0029200439
0.0028930286
0.0028662326
0.0028396774
0.0028131782
0.0027866774
0.002760193
0.0027338699
0.0027076094
0.0026812019
0.00265471
0.0026281732
0.0026016577
0.0025750161
0.0025481399
0.0025210459
0.0024938418
0.0024665146
0.0024388595
0.0024108693
0.0023825283
0.0023539754
0.0023251193
0.0022957348
0.0022658667
0.0022355285
0.0022047884
0.0021734866
0.0021414739
0.00210873
0.002075398
0.0020413854
0.0020064086
0.0019704645
0.001933584
0.0018957623
0.0018567583
0.001816395
0.001774702
0.0017316695
0.001687028
0.0016405051
0.001592157
0.001541862
0.001489217
0.0014339988
0.0013762004
0.0013156393
0.001252831
0.0011898807
0.0011279448
0.0010668313
0.0010064768
0.00094703226
0.00088839287
0.0008303547
0.00077296189
0.00071643663
0.00066076785
0.00060578896
0.00055164974
0.00049848157
0.00044660215
0.0003963159
0.00034761511
0.00030222962
0.00025855048
0.00022877594
0.00019036438
0.0003123346
-0.0002436231
0.0040824935
0.0041022518
0.0041454298
0.0042000307
0.0042643981
0.0043384606
0.0044215562
0.0045129655
0.0046123524
0.0047197642
0.0048355485
0.0049603553
0.0050952176
0.0052416976
0.0054020847
0.0055798155
0.0057798901
0.0060106885
0.0062838528
0.0066270593
0.0070654683
0.0077612069
0.0086436476
0.012374775
0.0091443161
0.0040595723
0.0039381477
0.0044080996
0.0045275019
0.0044705746
0.0043944525
0.0043261702
0.0042579515
0.0041885724
0.0041204484
0.00405522
0.0039934646
0.0039348379
0.0038790672
0.0038259527
0.0037753374
0.0037270657
0.0036808005
0.0036365534
0.0035939354
0.0035529655
0.0035135313
0.0034752182
0.0034382372
0.0034024455
0.0033674813
0.0033334856
0.0033004392
0.0032681026
0.0032363502
0.0032053775
0.0031750619
0.0031451292
0.0031156325
0.003086716
0.0030582485
0.0030300019
0.0030020114
0.0029744499
0.002947218
0.0029200622
0.0028930462
0.0028662494
0.0028396935
0.0028131937
0.0027866922
0.0027602072
0.0027338835
0.0027076225
0.0026812144
0.0026547221
0.0026281847
0.0026016688
0.0025750267
0.0025481501
0.0025210557
0.0024938512
0.0024665237
0.0024388683
0.0024108777
0.0023825364
0.0023539831
0.0023251267
0.0022957419
0.0022658735
0.0022355351
0.0022047947
0.0021734926
0.0021414797
0.0021087355
0.0020754033
0.0020413905
0.0020064135
0.0019704692
0.0019335885
0.0018957665
0.0018567624
0.0018163989
0.0017747057
0.001731673
0.0016870314
0.0016405084
0.00159216
0.0015418649
0.0014892197
0.0014340014
0.0013762029
0.0013156417
0.0012528332
0.0011898828
0.0011279468
0.0010668332
0.0010064786
0.00094703398
0.00088839452
0.00083035628
0.0007729634
0.00071643809
0.00066076925
0.0006057903
0.00055165104
0.00049848283
0.00044660336
0.00039631707
0.00034761625
0.00030223073
0.00025855155
0.00022877701
0.00019036539
0.00031233586
-0.00024362231
0.0040824935
0.0041022518
0.0041454298
0.0042000307
0.0042643981
0.0043384607
0.0044215562
0.0045129655
0.0046123524
0.0047197643
0.0048355486
0.0049603553
0.0050952177
0.0052416976
0.0054020847
0.0055798155
0.00577989
0.0060106882
0.0062838521
0.0066270575
0.0070654659
0.0077611919
0.0086436577
0.012358562
0.009144601
0.0040664109
0.0039401832
0.0044090114
0.0045280565
0.0044709976
0.0043948036
0.0043264684
0.0042582089
0.0041887977
0.004120648
0.0040553986
0.0039936255
0.0039349837
0.0038792001
0.0038260744
0.0037754492
0.0037271689
0.0036808961
0.0036366421
0.003594018
0.0035530426
0.0035136034
0.0034752858
0.0034383007
0.0034025052
0.0033675376
0.0033335387
0.0033004894
0.0032681502
0.0032363952
0.0032054202
0.0031751025
0.0031451678
0.0031156692
0.003086751
0.0030582818
0.0030300336
0.0030020417
0.0029744789
0.0029472457
0.0029200887
0.0028930716
0.0028662737
0.0028397167
0.0028132159
0.0027867135
0.0027602276
0.0027339031
0.0027076412
0.0026812324
0.0026547393
0.0026282013
0.0026016848
0.002575042
0.0025481648
0.0025210698
0.0024938648
0.0024665367
0.0024388807
0.0024108897
0.0023825479
0.0023539941
0.0023251373
0.0022957521
0.0022658833
0.0022355444
0.0022048037
0.0021735012
0.0021414879
0.0021087434
0.0020754109
0.0020413978
0.0020064204
0.0019704758
0.0019335949
0.0018957726
0.0018567682
0.0018164045
0.001774711
0.001731678
0.0016870362
0.0016405129
0.0015921644
0.001541869
0.0014892236
0.0014340051
0.0013762064
0.001315645
0.0012528364
0.0011898858
0.0011279496
0.0010668359
0.0010064812
0.00094703642
0.00088839685
0.00083035852
0.00077296554
0.00071644014
0.00066077123
0.0006057922
0.00055165287
0.00049848459
0.00044660506
0.00039631872
0.00034761784
0.00030223228
0.00025855306
0.00022877852
0.00019036682
0.00031233763
-0.0002436212
0.0040824935
0.0041022518
0.0041454298
0.0042000307
0.0042643981
0.0043384607
0.0044215562
0.0045129656
0.0046123524
0.0047197643
0.0048355486
0.0049603554
0.0050952177
0.0052416977
0.0054020846
0.0055798153
0.0057798897
0.0060106877
0.0062838511
0.0066270553
0.0070654628
0.0077611726
0.00864367
0.012342115
0.0091446364
0.0040742531
0.0039429298
0.0044103332
0.0045288646
0.0044716101
0.0043953107
0.0043268988
0.0042585802
0.0041891227
0.0041209358
0.0040556557
0.003993857
0.0039351935
0.0038793912
0.0038262493
0.0037756099
0.0037273171
0.0036810332
0.0036367694
0.0035941365
0.0035531531
0.0035137068
0.0034753827
0.0034383917
0.0034025908
0.0033676183
0.0033336149
0.0033005613
0.0032682183
0.0032364597
0.0032054814
0.0031751606
0.003145223
0.0031157217
0.003086801
0.0030583295
0.0030300791
0.0030020852
0.0029745204
0.0029472854
0.0029201266
0.0028931078
0.0028663084
0.00283975
0.0028132478
0.002786744
0.0027602569
0.0027339312
0.0027076681
0.0026812582
0.0026547641
0.0026282251
0.0026017076
0.002575064