/*--------------------------------*- C++ -*----------------------------------*\
  =========                 |
  \\      /  F ield         | OpenFOAM: The Open Source CFD Toolbox
   \\    /   O peration     | Website:  https://openfoam.org
    \\  /    A nd           | Version:  12
     \\/     M anipulation  |
\*---------------------------------------------------------------------------*/
FoamFile
{
    format      ascii;
    class       surfaceScalarField;
    location    "800";
    object      phi;
}
// * * * * * * * * * * * * * * * * * * * * * * * * * * * * * * * * * * * * * //

dimensions      [0 3 -1 0 0 0 0];

internalField   nonuniform List<scalar> 
25880
(
2.0046377e-06
1.6424825e-11
2.0045916e-06
4.6167908e-11
2.0045265e-06
6.5092222e-11
2.0044523e-06
7.4124459e-11
2.0043698e-06
8.2582521e-11
2.004278e-06
9.1736429e-11
2.0041768e-06
1.0123723e-10
2.0040656e-06
1.1121829e-10
2.0039435e-06
1.2210045e-10
2.0038092e-06
1.3429001e-10
2.003661e-06
1.4818436e-10
2.0034967e-06
1.6430187e-10
2.0033133e-06
1.8336631e-10
2.0031068e-06
2.065451e-10
2.0028715e-06
2.3531822e-10
2.0025984e-06
2.7309627e-10
2.0022763e-06
3.2201309e-10
2.0018782e-06
3.9815959e-10
2.0013872e-06
4.9095684e-10
2.0006709e-06
7.1633356e-10
1.9997616e-06
9.0933291e-10
1.9971978e-06
2.5637635e-09
1.9953321e-06
1.8657517e-09
1.0266483e-06
9.686837e-07
4.3229179e-08
9.8341917e-07
2.7433439e-08
1.5795741e-08
2.5399801e-08
2.0336382e-09
2.4581629e-08
8.1817125e-10
2.3998005e-08
5.836248e-10
2.349818e-08
4.9982444e-10
2.3055929e-08
4.4225109e-10
2.2660481e-08
3.9544782e-10
2.2303253e-08
3.5722868e-10
2.1977226e-08
3.2602654e-10
2.1677263e-08
2.9996267e-10
2.1399593e-08
2.7767087e-10
2.1141276e-08
2.583162e-10
2.0899915e-08
2.4136147e-10
2.0673517e-08
2.2639789e-10
2.0460419e-08
2.1309809e-10
2.0259212e-08
2.0120658e-10
2.0068683e-08
1.90529e-10
1.9887774e-08
1.8090952e-10
1.9715569e-08
1.7220497e-10
1.9551262e-08
1.6430728e-10
1.9394152e-08
1.5710915e-10
1.924363e-08
1.5052263e-10
1.9099132e-08
1.4449761e-10
1.8960172e-08
1.3896006e-10
1.8826321e-08
1.3385059e-10
1.8697176e-08
1.291456e-10
1.8572375e-08
1.2480048e-10
1.8451609e-08
1.2076621e-10
1.8334585e-08
1.1702424e-10
1.8221025e-08
1.1355964e-10
1.8110693e-08
1.103326e-10
1.8003377e-08
1.0731565e-10
1.7898868e-08
1.0450861e-10
1.779697e-08
1.0189868e-10
1.7697515e-08
9.9454277e-11
1.7600357e-08
9.7158741e-11
1.750534e-08
9.5016623e-11
1.7412318e-08
9.3022366e-11
1.7321168e-08
9.1149966e-11
1.7231782e-08
8.9385595e-11
1.7144046e-08
8.7735834e-11
1.7057848e-08
8.6198833e-11
1.6973088e-08
8.4759391e-11
1.6889684e-08
8.340374e-11
1.6807553e-08
8.2130888e-11
1.6726608e-08
8.0945257e-11
1.6646764e-08
7.9843912e-11
1.6567953e-08
7.8810878e-11
1.6490115e-08
7.7838773e-11
1.641318e-08
7.6934952e-11
1.6337079e-08
7.6100878e-11
1.6261749e-08
7.5329428e-11
1.6187139e-08
7.4610144e-11
1.6113198e-08
7.3941277e-11
1.6039869e-08
7.3329371e-11
1.5967092e-08
7.2776538e-11
1.5894818e-08
7.2273642e-11
1.5823006e-08
7.1812943e-11
1.5751607e-08
7.1398188e-11
1.5680572e-08
7.1034833e-11
1.5609848e-08
7.0724053e-11
1.5539392e-08
7.0456126e-11
1.5469166e-08
7.0225833e-11
1.5399125e-08
7.0041087e-11
1.5329219e-08
6.990665e-11
1.5259398e-08
6.9820244e-11
1.5189624e-08
6.9774636e-11
1.5119855e-08
6.9768408e-11
1.5050045e-08
6.9810412e-11
1.4980138e-08
6.9906738e-11
1.4910089e-08
7.0049494e-11
1.4839856e-08
7.0233108e-11
1.4769389e-08
7.0466817e-11
1.469863e-08
7.0758824e-11
1.4627523e-08
7.1107398e-11
1.4556016e-08
7.1506657e-11
1.4484056e-08
7.1959939e-11
1.4411577e-08
7.2478564e-11
1.4338512e-08
7.306531e-11
1.4264798e-08
7.3714224e-11
1.4190368e-08
7.4429623e-11
1.4115142e-08
7.522617e-11
1.4039036e-08
7.6106476e-11
1.3961969e-08
7.7066652e-11
1.3883852e-08
7.8117177e-11
1.3804575e-08
7.9276431e-11
1.372404e-08
8.0534959e-11
1.3642109e-08
8.1931149e-11
1.3562141e-08
7.996831e-11
1.3485973e-08
7.6168482e-11
1.3413317e-08
7.2655305e-11
1.3343902e-08
6.9415383e-11
1.3277472e-08
6.6430143e-11
1.3213803e-08
6.3668787e-11
1.3152699e-08
6.11035e-11
1.3093977e-08
5.8722131e-11
1.3037463e-08
5.6513932e-11
1.2983007e-08
5.4456502e-11
1.2930476e-08
5.2530496e-11
1.2879747e-08
5.0729258e-11
1.2830699e-08
4.904843e-11
1.2783214e-08
4.7484794e-11
1.273719e-08
4.6023781e-11
1.2692513e-08
4.4677348e-11
1.2649104e-08
4.3408937e-11
1.2606707e-08
4.2397083e-11
1.2565424e-08
4.1282773e-11
1.2524041e-08
4.1382539e-11
1.2484575e-08
3.9466221e-11
1.2435924e-08
4.8650764e-11
3.0829269e-11
2.0345114e-06
3.3111287e-11
2.0344645e-06
9.3093385e-11
2.0343983e-06
1.3127915e-10
2.0343229e-06
1.4950972e-10
2.0342389e-06
1.6657252e-10
2.0341456e-06
1.8503459e-10
2.0340426e-06
2.0419456e-10
2.0339295e-06
2.2432134e-10
2.0338054e-06
2.4626327e-10
2.0336688e-06
2.7083958e-10
2.0335182e-06
2.9885141e-10
2.0333511e-06
3.3134369e-10
2.0331647e-06
3.6977522e-10
2.0329547e-06
4.1649908e-10
2.0327156e-06
4.7449794e-10
2.032438e-06
5.506461e-10
2.0321108e-06
6.4924273e-10
2.0317062e-06
8.0271941e-10
2.0312074e-06
9.8974721e-10
2.0304798e-06
1.4439688e-09
2.0295562e-06
1.8329002e-09
2.0269529e-06
5.1671134e-09
2.025056e-06
3.7625964e-09
1.0980905e-06
1.8956493e-06
1.2975146e-07
1.9517582e-06
8.3941941e-08
6.1605255e-08
7.7721476e-08
8.2541037e-09
7.5216315e-08
3.3233321e-09
7.3428916e-08
2.3710232e-09
7.1899289e-08
2.0294514e-09
7.0546137e-08
1.7954031e-09
6.9336173e-08
1.6054121e-09
6.8243134e-08
1.4502677e-09
6.7245583e-08
1.3235776e-09
6.6327796e-08
1.2177497e-09
6.5478222e-08
1.1272452e-09
6.4687866e-08
1.0486723e-09
6.3949384e-08
9.7984305e-10
6.3256685e-08
9.1909679e-10
6.2604679e-08
8.6510461e-10
6.1989055e-08
8.1682992e-10
6.14061e-08
7.7348413e-10
6.0852577e-08
7.3443241e-10
6.0325686e-08
6.9909666e-10
5.9822958e-08
6.6703462e-10
5.9342254e-08
6.3781329e-10
5.8881701e-08
6.1107609e-10
5.8439583e-08
5.8661553e-10
5.8014407e-08
5.6413557e-10
5.7604863e-08
5.4339452e-10
5.7209716e-08
5.2429314e-10
5.6827863e-08
5.066533e-10
5.6458353e-08
4.9027666e-10
5.6100291e-08
4.7508598e-10
5.5752831e-08
4.6101985e-10
5.5415244e-08
4.479196e-10
5.5086886e-08
4.3567303e-10
5.4767118e-08
4.2427705e-10
5.4455336e-08
4.1368077e-10
5.4151032e-08
4.0375784e-10
5.3853751e-08
3.944397e-10
5.3563025e-08
3.8574313e-10
5.3278401e-08
3.7764624e-10
5.2999505e-08
3.7004529e-10
5.2726008e-08
3.6288351e-10
5.2457558e-08
3.5618576e-10
5.2193811e-08
3.4994552e-10
5.1934469e-08
3.4410174e-10
5.1679273e-08
3.385989e-10
5.1427973e-08
3.3343177e-10
5.11803e-08
3.2861825e-10
5.0935997e-08
3.2414658e-10
5.0694855e-08
3.1995312e-10
5.0456686e-08
3.1600736e-10
5.0221283e-08
3.1233795e-10
4.9988432e-08
3.0895157e-10
4.9757942e-08
3.0581952e-10
4.9529653e-08
3.0289988e-10
4.9303409e-08
3.0018483e-10
4.9079038e-08
2.9770056e-10
4.8856358e-08
2.9545585e-10
4.8635218e-08
2.9341428e-10
4.8415486e-08
2.915445e-10
4.8197024e-08
2.8986079e-10
4.7979673e-08
2.8838559e-10
4.7763273e-08
2.8712356e-10
4.7547693e-08
2.8603607e-10
4.7332818e-08
2.8510164e-10
4.7118507e-08
2.8435155e-10
4.6904608e-08
2.8380564e-10
4.6690974e-08
2.8345472e-10
4.6477479e-08
2.8326987e-10
4.6264002e-08
2.8324488e-10
4.6050397e-08
2.8341537e-10
4.5836498e-08
2.8380614e-10
4.5622161e-08
2.8438583e-10
4.5407263e-08
2.851317e-10
4.5191649e-08
2.8608049e-10
4.4975142e-08
2.8726583e-10
4.4757569e-08
2.8868093e-10
4.4538773e-08
2.9030212e-10
4.4318591e-08
2.9214252e-10
4.4096821e-08
2.942479e-10
4.3873257e-08
2.966299e-10
4.3647706e-08
2.9926459e-10
4.3419967e-08
3.0216915e-10
4.318979e-08
3.0540281e-10
4.295692e-08
3.0897667e-10
4.2721111e-08
3.1287503e-10
4.2482089e-08
3.1714e-10
4.2239519e-08
3.2184618e-10
4.1993098e-08
3.269556e-10
4.1742405e-08
3.3262432e-10
4.1497718e-08
3.2465562e-10
4.1264657e-08
3.0922884e-10
4.1042347e-08
2.9496611e-10
4.0829949e-08
2.818127e-10
4.0626686e-08
2.6969312e-10
4.0431873e-08
2.5848262e-10
4.0244908e-08
2.480682e-10
4.006523e-08
2.3840026e-10
3.9892308e-08
2.2943524e-10
3.9725682e-08
2.2108247e-10
3.956495e-08
2.1326335e-10
3.9409728e-08
2.0595057e-10
3.925965e-08
1.9912657e-10
3.9114357e-08
1.9277823e-10
3.8973534e-08
1.8684654e-10
3.8836831e-08
1.8138002e-10
3.8704011e-08
1.7622953e-10
3.8574287e-08
1.7212082e-10
3.8447978e-08
1.6759184e-10
3.8321361e-08
1.6799932e-10
3.8200678e-08
1.6014893e-10
3.8051531e-08
1.9779766e-10
1.2472301e-10
2.0947039e-06
5.0310418e-11
2.0946555e-06
1.4148607e-10
2.0945872e-06
1.9956618e-10
2.0945094e-06
2.2730338e-10
2.0944227e-06
2.5324915e-10
2.0943265e-06
2.8131515e-10
2.0942202e-06
3.1043921e-10
2.0941035e-06
3.4103001e-10
2.0939754e-06
3.7437649e-10
2.0938345e-06
4.1172362e-10
2.0936791e-06
4.5428881e-10
2.0935068e-06
5.0365965e-10
2.0933145e-06
5.6205226e-10
2.0930979e-06
6.3304136e-10
2.0928513e-06
7.2115757e-10
2.0925651e-06
8.3684394e-10
2.0922277e-06
9.8662856e-10
2.0918106e-06
1.2197791e-09
2.0912965e-06
1.5038812e-09
2.0905466e-06
2.1938498e-09
2.089595e-06
2.7845504e-09
2.086913e-06
7.849091e-09
2.0849573e-06
5.7183096e-09
1.1871237e-06
2.7934828e-06
2.2141899e-07
2.9174629e-06
1.4547167e-07
1.3755258e-07
1.3469101e-07
1.9034761e-08
1.3034739e-07
7.6669562e-09
1.2724785e-07
5.4705632e-09
1.2459684e-07
4.6804619e-09
1.222521e-07
4.1401434e-09
1.2015547e-07
3.7020356e-09
1.1826143e-07
3.3443133e-09
1.1653286e-07
3.0521446e-09
1.1494253e-07
2.8080831e-09
1.134704e-07
2.5993736e-09
1.1210088e-07
2.4181908e-09
1.1082125e-07
2.2594782e-09
1.0962094e-07
2.1194033e-09
1.0849114e-07
1.9949021e-09
1.0742439e-07
1.8835854e-09
1.0641424e-07
1.7836353e-09
1.0545508e-07
1.6935853e-09
1.0454207e-07
1.6121058e-09
1.0367094e-07
1.5381728e-09
1.0283796e-07
1.4707913e-09
1.0203989e-07
1.4091396e-09
1.0127378e-07
1.3527336e-09
1.0053701e-07
1.3008969e-09
9.9827337e-08
1.2530717e-09
9.9142606e-08
1.2090239e-09
9.8480913e-08
1.1683471e-09
9.7840604e-08
1.1305852e-09
9.7220133e-08
1.0955568e-09
9.6618034e-08
1.0631194e-09
9.6033042e-08
1.0329116e-09
9.5464041e-08
1.0046734e-09
9.4909924e-08
9.7839425e-10
9.4369646e-08
9.5395833e-10
9.3842327e-08
9.3107729e-10
9.3327175e-08
9.0959162e-10
9.2823381e-08
8.8953721e-10
9.2330163e-08
8.7086467e-10
9.184687e-08
8.5333775e-10
9.1372929e-08
8.3682454e-10
9.0907735e-08
8.2137942e-10
9.0450692e-08
8.0698871e-10
9.0001281e-08
7.9351303e-10
8.9559055e-08
7.8082471e-10
8.9123577e-08
7.6890996e-10
8.8694385e-08
7.578097e-10
8.8271035e-08
7.474973e-10
8.785316e-08
7.3782785e-10
8.7440437e-08
7.2873018e-10
8.7032507e-08
7.2026841e-10
8.6628999e-08
7.1245899e-10
8.6229583e-08
7.0523629e-10
8.5833978e-08
6.9850442e-10
8.5441919e-08
6.9224423e-10
8.5053104e-08
6.8651541e-10
8.4667221e-08
6.8133858e-10
8.4284004e-08
6.7663093e-10
8.3903229e-08
6.7232016e-10
8.3524652e-08
6.6843782e-10
8.3148001e-08
6.650359e-10
8.2773e-08
6.6212525e-10
8.2399418e-08
6.5961797e-10
8.2027055e-08
6.574641e-10
8.1655672e-08
6.5573446e-10
8.1285003e-08
6.5447543e-10
8.0914791e-08
6.5366615e-10
8.0544821e-08
6.5324052e-10
8.0174882e-08
6.5318356e-10
7.980472e-08
6.5357681e-10
7.9434049e-08
6.5447763e-10
7.906262e-08
6.5581484e-10
7.8690216e-08
6.5753569e-10
7.8316573e-08
6.5972384e-10
7.7941381e-08
6.6245721e-10
7.7564341e-08
6.6572067e-10
7.7185184e-08
6.6945987e-10
7.6803622e-08
6.7370442e-10
7.641931e-08
6.7855955e-10
7.6031887e-08
6.8405268e-10
7.5641023e-08
6.9012902e-10
7.5246364e-08
6.9682763e-10
7.4847483e-08
7.0428465e-10
7.4443933e-08
7.1252645e-10
7.4035291e-08
7.2151695e-10
7.3621078e-08
7.313526e-10
7.3200719e-08
7.4220538e-10
7.2773686e-08
7.5398843e-10
7.2339249e-08
7.6706194e-10
7.1915219e-08
7.4868561e-10
7.1511338e-08
7.1310982e-10
7.1126085e-08
6.8021889e-10
7.0758012e-08
6.4988609e-10
7.0405767e-08
6.2193719e-10
7.0068165e-08
5.9608495e-10
6.9744165e-08
5.7206863e-10
6.9432791e-08
5.4977348e-10
6.9133128e-08
5.2909909e-10
6.8844373e-08
5.0983685e-10
6.8565831e-08
4.918054e-10
6.829684e-08
4.7494133e-10
6.8036763e-08
4.5920429e-10
6.7784977e-08
4.4456394e-10
6.7540939e-08
4.3088449e-10
6.7304042e-08
4.1827753e-10
6.7073872e-08
4.0639864e-10
6.6849072e-08
3.9692086e-10
6.6630193e-08
3.8647087e-10
6.6410789e-08
3.8740382e-10
6.6201714e-08
3.692234e-10
6.5943056e-08
4.5645641e-10
2.8714087e-10
2.1861123e-06
6.8281924e-11
2.1860617e-06
1.920817e-10
2.1859902e-06
2.7099767e-10
2.1859088e-06
3.0869862e-10
2.1858181e-06
3.4394264e-10
2.1857174e-06
3.8205543e-10
2.1856062e-06
4.2160063e-10
2.1854841e-06
4.631331e-10
2.1853501e-06
5.0840215e-10
2.1852027e-06
5.5909777e-10
2.1850401e-06
6.1687243e-10
2.1848599e-06
6.8388064e-10
2.1846588e-06
7.6312959e-10
2.1844324e-06
8.5946993e-10
2.1841745e-06
9.7904874e-10
2.1838753e-06
1.1360365e-09
2.1835227e-06
1.3392869e-09
2.1830868e-06
1.6556523e-09
2.1825496e-06
2.041129e-09
2.1817661e-06
2.9772824e-09
2.1807721e-06
3.7786038e-09
2.1779713e-06
1.0649889e-08
2.1759271e-06
7.7625049e-09
1.2973741e-06
3.6720358e-06
3.2334675e-07
3.8914903e-06
2.1567881e-07
2.4522052e-07
1.997008e-07
3.5012777e-08
1.9325641e-07
1.4111338e-08
1.8865861e-07
1.0068365e-08
1.8472843e-07
8.6106457e-09
1.8125293e-07
7.6156457e-09
1.781452e-07
6.8097648e-09
1.7533767e-07
6.15184e-09
1.7277543e-07
5.6143844e-09
1.704181e-07
5.1654101e-09
1.6823599e-07
4.7814902e-09
1.6620595e-07
4.4482243e-09
1.6430914e-07
4.1562934e-09
1.625299e-07
3.8986417e-09
1.6085517e-07
3.6696348e-09
1.5927387e-07
3.4648799e-09
1.5777648e-07
3.2810333e-09
1.5635467e-07
3.1153945e-09
1.5500125e-07
2.9655223e-09
1.5370989e-07
2.8295278e-09
1.524751e-07
2.7055855e-09
1.5129206e-07
2.5921845e-09
1.5015636e-07
2.4884268e-09
1.4906418e-07
2.3930771e-09
1.4801215e-07
2.3051085e-09
1.4699709e-07
2.2240831e-09
1.4601617e-07
2.1492591e-09
1.4506696e-07
2.0798003e-09
1.4414715e-07
2.0153676e-09
1.4325457e-07
1.9556976e-09
1.4238735e-07
1.900132e-09
1.4154383e-07
1.8481917e-09
1.4072237e-07
1.7998509e-09
1.3992143e-07
1.7548993e-09
1.391397e-07
1.7128114e-09
1.38376e-07
1.6732914e-09
1.3762914e-07
1.6364008e-09
1.3689795e-07
1.6020507e-09
1.3618148e-07
1.5698111e-09
1.3547886e-07
1.5394378e-09
1.3478922e-07
1.5110262e-09
1.3411165e-07
1.4845531e-09
1.334454e-07
1.4597645e-09
1.327898e-07
1.4364262e-09
1.321442e-07
1.41451e-09
1.3150792e-07
1.3940904e-09
1.308803e-07
1.3751195e-09
1.3026079e-07
1.3573336e-09
1.2964892e-07
1.3406004e-09
1.2904415e-07
1.3250349e-09
1.2844594e-07
1.3106687e-09
1.278538e-07
1.2973823e-09
1.272673e-07
1.2850004e-09
1.2668606e-07
1.2734861e-09
1.2610963e-07
1.2629479e-09
1.2553754e-07
1.2534244e-09
1.2496941e-07
1.2447652e-09
1.2440489e-07
1.2368373e-09
1.2384363e-07
1.2296966e-09
1.2328523e-07
1.2234388e-09
1.2272927e-07
1.2180843e-09
1.2217541e-07
1.2134734e-09
1.2162337e-07
1.2095132e-09
1.2107277e-07
1.2063322e-09
1.2052323e-07
1.2040163e-09
1.1997436e-07
1.2025281e-09
1.1942586e-07
1.2017468e-09
1.188774e-07
1.2016437e-09
1.1832861e-07
1.2023679e-09
1.1777906e-07
1.2040252e-09
1.1722839e-07
1.2064865e-09
1.1667627e-07
1.2096543e-09
1.1612231e-07
1.2136807e-09
1.1556606e-07
1.2187096e-09
1.1500707e-07
1.2247142e-09
1.1444493e-07
1.2315947e-09
1.1387923e-07
1.2394047e-09
1.1330945e-07
1.2483372e-09
1.1273506e-07
1.2584435e-09
1.1215557e-07
1.2696236e-09
1.1157045e-07
1.2819484e-09
1.1097906e-07
1.2956676e-09
1.1038076e-07
1.3108309e-09
1.097749e-07
1.3273722e-09
1.0916079e-07
1.345468e-09
1.0853756e-07
1.3654344e-09
1.0790444e-07
1.3871129e-09
1.0726033e-07
1.4111665e-09
1.0663166e-07
1.3773606e-09
1.0603285e-07
1.311912e-09
1.0546167e-07
1.2514033e-09
1.0491596e-07
1.1956007e-09
1.0439371e-07
1.1441832e-09
1.0389317e-07
1.0966234e-09
1.034128e-07
1.0524413e-09
1.0295115e-07
1.011425e-09
1.0250686e-07
9.7339011e-10
1.0207874e-07
9.379535e-10
1.0166576e-07
9.0478137e-10
1.0126695e-07
8.7375639e-10
1.0088135e-07
8.4480447e-10
1.0050804e-07
8.1786981e-10
1.0014622e-07
7.9270303e-10
9.9794992e-08
7.6950869e-10
9.9453737e-08
7.4765307e-10
9.9120448e-08
7.3021046e-10
9.8795939e-08
7.1097975e-10
9.8470671e-08
7.1267144e-10
9.8160745e-08
6.791494e-10
9.7777131e-08
8.4007115e-10
5.2777591e-10
2.3100987e-06
8.7298264e-11
2.3100451e-06
2.4565413e-10
2.3099694e-06
3.4667454e-10
2.3098832e-06
3.9495464e-10
2.309787e-06
4.4005714e-10
2.3096803e-06
4.8881463e-10
2.3095625e-06
5.3939831e-10
2.3094331e-06
5.9251784e-10
2.3092911e-06
6.5040963e-10
2.309135e-06
7.1523478e-10
2.3089627e-06
7.8910622e-10
2.3087718e-06
8.7477828e-10
2.3085589e-06
9.7609479e-10
2.3083191e-06
1.099256e-09
2.308046e-06
1.2521181e-09
2.3077293e-06
1.4527939e-09
2.3073559e-06
1.7125941e-09
2.3068946e-06
2.1169686e-09
2.3063261e-06
2.6096446e-09
2.3054973e-06
3.8061201e-09
2.3044458e-06
4.8300631e-09
2.3014841e-06
1.3611557e-08
2.2993204e-06
9.9262604e-09
1.4327198e-06
4.5386364e-06
4.4091979e-07
4.8832903e-06
2.987044e-07
3.874359e-07
2.7659351e-07
5.7123662e-08
2.6765948e-07
2.3045372e-08
2.6129012e-07
1.6437722e-08
2.5584904e-07
1.4051727e-08
2.5103831e-07
1.2426384e-08
2.4673658e-07
1.1111494e-08
2.4285022e-07
1.0038192e-08
2.3930336e-07
9.1612503e-09
2.3604012e-07
8.4286472e-09
2.3301939e-07
7.8022253e-09
2.3020913e-07
7.2584797e-09
2.2758324e-07
6.7821785e-09
2.2512009e-07
6.3617999e-09
2.2280157e-07
5.9881527e-09
2.2061237e-07
5.6540745e-09
2.185393e-07
5.3541096e-09
2.1657084e-07
5.0838488e-09
2.1469705e-07
4.8393141e-09
2.1290916e-07
4.6174175e-09
2.1119956e-07
4.415187e-09
2.0956159e-07
4.2301579e-09
2.0798916e-07
4.0608547e-09
2.0647696e-07
3.9052743e-09
2.0502033e-07
3.7617409e-09
2.0361488e-07
3.6295285e-09
2.0225671e-07
3.5074356e-09
2.0094241e-07
3.3941023e-09
1.9966881e-07
3.2889665e-09
1.9843291e-07
3.1915969e-09
1.9723211e-07
3.1009298e-09
1.9606412e-07
3.0161811e-09
1.9492667e-07
2.9372995e-09
1.9381763e-07
2.863946e-09
1.9273517e-07
2.7952707e-09
1.9167767e-07
2.7307876e-09
1.9064348e-07
2.6705897e-09
1.89631e-07
2.6145347e-09
1.8863888e-07
2.5619288e-09
1.8766595e-07
2.5123705e-09
1.8671096e-07
2.4660089e-09
1.8577271e-07
2.4228082e-09
1.8485011e-07
2.3823588e-09
1.8394226e-07
2.3442788e-09
1.8304825e-07
2.3085183e-09
1.8216715e-07
2.275197e-09
1.8129803e-07
2.244239e-09
1.8044014e-07
2.2152183e-09
1.7959283e-07
2.1879168e-09
1.7875534e-07
2.1625176e-09
1.7792694e-07
2.1390742e-09
1.7710693e-07
2.117394e-09
1.7629473e-07
2.0971922e-09
1.7548981e-07
2.0784062e-09
1.7469155e-07
2.0612107e-09
1.7389931e-07
2.0456702e-09
1.7311253e-07
2.031542e-09
1.7233076e-07
2.018609e-09
1.7155349e-07
2.0069593e-09
1.7078018e-07
1.9967491e-09
1.7001026e-07
1.9880125e-09
1.6924324e-07
1.9804914e-09
1.6847872e-07
1.9740337e-09
1.677162e-07
1.9688454e-09
1.6695515e-07
1.9650683e-09
1.6619504e-07
1.9626423e-09
1.6543541e-07
1.9613717e-09
1.6467585e-07
1.9612083e-09
1.6391582e-07
1.9623932e-09
1.6315475e-07
1.9651003e-09
1.6239211e-07
1.9691212e-09
1.6162747e-07
1.9742965e-09
1.6086028e-07
1.9808715e-09
1.6008991e-07
1.9890818e-09
1.5931574e-07
1.9988852e-09
1.5853721e-07
2.0101196e-09
1.5775375e-07
2.0228706e-09
1.5696463e-07
2.0374525e-09
1.5616912e-07
2.0539505e-09
1.5536655e-07
2.0722024e-09
1.5455617e-07
2.0923223e-09
1.5373712e-07
2.114717e-09
1.5290848e-07
2.1394694e-09
1.5206938e-07
2.1664719e-09
1.5121884e-07
2.1960109e-09
1.5035567e-07
2.2286023e-09
1.494788e-07
2.2639893e-09
1.4858671e-07
2.3032545e-09
1.4771599e-07
2.2480818e-09
1.4688664e-07
2.1412614e-09
1.4609554e-07
2.0425043e-09
1.4533971e-07
1.9514278e-09
1.4461639e-07
1.8675081e-09
1.4392312e-07
1.7898848e-09
1.4325779e-07
1.7177744e-09
1.4261839e-07
1.6508303e-09
1.4200302e-07
1.5887514e-09
1.4141006e-07
1.530914e-09
1.4083807e-07
1.4767727e-09
1.4028569e-07
1.4261352e-09
1.3975162e-07
1.3788805e-09
1.3923457e-07
1.3349178e-09
1.3873343e-07
1.2938407e-09
1.3824696e-07
1.2559817e-09
1.3777431e-07
1.2203071e-09
1.3731269e-07
1.1918262e-09
1.3686324e-07
1.1604328e-09
1.3641277e-07
1.1631423e-09
1.3598356e-07
1.1083556e-09
1.3545214e-07
1.3714862e-09
8.609584e-10
2.4685108e-06
1.0764901e-10
2.4684534e-06
3.0302828e-10
2.4683723e-06
4.2777328e-10
2.4682799e-06
4.8741873e-10
2.4681768e-06
5.430954e-10
2.4680624e-06
6.0326135e-10
2.4679361e-06
6.65672e-10
2.4677974e-06
7.3120289e-10
2.4676452e-06
8.0261169e-10
2.4674779e-06
8.8256391e-10
2.4672933e-06
9.7366543e-10
2.4670888e-06
1.0793123e-09
2.4668607e-06
1.2042434e-09
2.4666038e-06
1.3561024e-09
2.4663114e-06
1.5445733e-09
2.4659722e-06
1.7919856e-09
2.4655725e-06
2.1122745e-09
2.4650787e-06
2.6107821e-09
2.4644702e-06
3.2180976e-09
2.4635834e-06
4.692953e-09
2.4624586e-06
5.9548497e-09
2.4592915e-06
1.6778647e-08
2.4569752e-06
1.2242604e-08
1.5973981e-06
5.3982135e-06
5.7999136e-07
5.9006969e-06
3.9936712e-07
5.6806015e-07
3.6985038e-07
8.6640404e-08
3.5789044e-07
3.5005308e-08
3.4937685e-07
2.4951315e-08
3.4210916e-07
2.1319417e-08
3.3568452e-07
1.885102e-08
3.2993941e-07
1.6856601e-08
3.2474868e-07
1.5228928e-08
3.2001117e-07
1.3898761e-08
3.1565235e-07
1.2787462e-08
3.1161731e-07
1.1837267e-08
3.0786328e-07
1.1012514e-08
3.043554e-07
1.0290059e-08
3.0106478e-07
9.6524114e-09
2.979673e-07
9.0856361e-09
2.950425e-07
8.5788763e-09
2.9227275e-07
8.1238576e-09
2.8964271e-07
7.713889e-09
2.8713908e-07
7.3429445e-09
2.8475017e-07
7.0063288e-09
2.8246581e-07
6.6995471e-09
2.8027711e-07
6.4188605e-09
2.7817595e-07
6.1620162e-09
2.7615523e-07
5.9259938e-09
2.7420872e-07
5.7082513e-09
2.7233057e-07
5.5076707e-09
2.7051557e-07
5.322442e-09
2.6875916e-07
5.1505095e-09
2.6705712e-07
4.9910076e-09
2.6540544e-07
4.8432796e-09
2.6380064e-07
4.7057273e-09
2.6223966e-07
4.5771582e-09
2.6071948e-07
4.4574806e-09
2.5923724e-07
4.3461863e-09
2.5779051e-07
4.2419977e-09
2.5637713e-07
4.144172e-09
2.5499488e-07
4.0528395e-09
2.5364163e-07
3.9677887e-09
2.5231558e-07
3.8879785e-09
2.5101515e-07
3.8127959e-09
2.497387e-07
3.7424561e-09
2.484846e-07
3.6769089e-09
2.4725142e-07
3.6155398e-09
2.4603793e-07
3.5577701e-09
2.4484293e-07
3.5035177e-09
2.4366517e-07
3.4529619e-09
2.4250341e-07
3.4059907e-09
2.4135667e-07
3.3619644e-09
2.4022404e-07
3.3205489e-09
2.3910454e-07
3.2820152e-09
2.3799717e-07
3.2464466e-09
2.36901e-07
3.2135553e-09
2.3581529e-07
3.1829111e-09
2.3473928e-07
3.154415e-09
2.3367216e-07
3.1283289e-09
2.3261308e-07
3.1047525e-09
2.315613e-07
3.0833223e-09
2.305162e-07
3.0637086e-09
2.2947711e-07
3.0460402e-09
2.2844331e-07
3.0305538e-09
2.2741402e-07
3.017303e-09
2.2638861e-07
3.0059004e-09
2.2536653e-07
2.9961132e-09
2.2434713e-07
2.9882495e-09
2.2332967e-07
2.9825257e-09
2.2231346e-07
2.9788536e-09
2.2129789e-07
2.9769374e-09
2.202824e-07
2.9767019e-09
2.1926628e-07
2.9785104e-09
2.1824875e-07
2.9826276e-09
2.1722913e-07
2.9887418e-09
2.1620682e-07
2.9966097e-09
2.1518109e-07
3.0066e-09
2.141511e-07
3.0190708e-09
2.1311603e-07
3.0339609e-09
2.1207512e-07
3.051025e-09
2.110276e-07
3.0703906e-09
2.0997252e-07
3.0925332e-09
2.0890889e-07
3.117585e-09
2.0783579e-07
3.1453009e-09
2.0675226e-07
3.1758521e-09
2.0565712e-07
3.2098544e-09
2.0454915e-07
3.2474364e-09
2.0342719e-07
3.2884359e-09
2.0228992e-07
3.3332844e-09
2.0113575e-07
3.3827653e-09
1.9996325e-07
3.4364919e-09
1.987704e-07
3.4961076e-09
1.9760611e-07
3.4123737e-09
1.9649713e-07
3.2502403e-09
1.9543929e-07
3.100346e-09
1.944286e-07
2.9621091e-09
1.9346138e-07
2.8347335e-09
1.9253435e-07
2.7169153e-09
1.9164466e-07
2.6074648e-09
1.9078963e-07
2.5058542e-09
1.8996676e-07
2.4116274e-09
1.8917383e-07
2.3238389e-09
1.8840895e-07
2.2416609e-09
1.8767028e-07
2.1647998e-09
1.8695609e-07
2.0930724e-09
1.8626467e-07
2.0263409e-09
1.8559452e-07
1.9639894e-09
1.8494398e-07
1.9065205e-09
1.8431192e-07
1.8523666e-09
1.8369463e-07
1.8091165e-09
1.830936e-07
1.7614591e-09
1.8249126e-07
1.7654816e-09
1.8191737e-07
1.6822508e-09
1.8120665e-07
2.0822021e-09
1.3064471e-09
2.6637094e-06
1.2964558e-10
2.6636473e-06
3.6509415e-10
2.6635595e-06
5.1556682e-10
2.6634594e-06
5.8755062e-10
2.6633478e-06
6.5468606e-10
2.6632239e-06
7.2720379e-10
2.6630871e-06
8.0241495e-10
2.6629369e-06
8.8137474e-10
2.6627722e-06
9.6740416e-10
2.662591e-06
1.0637143e-09
2.6623912e-06
1.1734439e-09
2.6621699e-06
1.3006828e-09
2.661923e-06
1.4511365e-09
2.6616451e-06
1.6340082e-09
2.6613287e-06
1.8609554e-09
2.6609618e-06
2.1588631e-09
2.6605296e-06
2.5444976e-09
2.6599957e-06
3.1446884e-09
2.6593379e-06
3.8758158e-09
2.6583796e-06
5.651311e-09
2.6571644e-06
7.1700577e-09
2.6537441e-06
2.0198891e-08
2.6512397e-06
1.4747077e-08
1.7960639e-06
6.2533893e-06
7.4702399e-07
6.9497369e-06
5.2334834e-07
7.917358e-07
4.8476848e-07
1.2522027e-07
4.6907813e-07
5.0695658e-08
4.5793497e-07
3.6094471e-08
4.4843019e-07
3.08242e-08
4.4002923e-07
2.7251978e-08
4.3251616e-07
2.4369671e-08
4.2572722e-07
2.201787e-08
4.195305e-07
2.009548e-08
4.1382869e-07
1.8489267e-08
4.0855003e-07
1.7115933e-08
4.0363861e-07
1.5923931e-08
3.9904891e-07
1.4879761e-08
3.9474319e-07
1.3958126e-08
3.9068993e-07
1.3138897e-08
3.8686241e-07
1.2406396e-08
3.832376e-07
1.1748669e-08
3.7979545e-07
1.1156043e-08
3.7651857e-07
1.0619816e-08
3.7339171e-07
1.0133198e-08
3.7040155e-07
9.6897021e-09
3.6753648e-07
9.2839271e-09
3.647859e-07
8.9125967e-09
3.6214053e-07
8.5713718e-09
3.595922e-07
8.256578e-09
3.5713329e-07
7.9665754e-09
3.5475697e-07
7.6987665e-09
3.5245729e-07
7.4501905e-09
3.5022872e-07
7.2195767e-09
3.4806603e-07
7.0059733e-09
3.4596466e-07
6.8070921e-09
3.4392061e-07
6.6212051e-09
3.4192994e-07
6.4481592e-09
3.3998889e-07
6.2872287e-09
3.3809431e-07
6.1365841e-09
3.3624333e-07
5.9951438e-09
3.3443309e-07
5.8630795e-09
3.3266079e-07
5.7400925e-09
3.3092407e-07
5.6246949e-09
3.2922088e-07
5.5159937e-09
3.2754905e-07
5.414285e-09
3.2590646e-07
5.3195012e-09
3.2429123e-07
5.2307651e-09
3.2270176e-07
5.1472401e-09
3.2113648e-07
5.0687991e-09
3.1959374e-07
4.9956967e-09
3.1807196e-07
4.9277769e-09
3.165698e-07
4.864124e-09
3.150861e-07
4.8042499e-09
3.1361958e-07
4.7485366e-09
3.1216891e-07
4.6971081e-09
3.1073291e-07
4.6495546e-09
3.0931057e-07
4.6052565e-09
3.0790092e-07
4.5640653e-09
3.0650289e-07
4.5263545e-09
3.0511537e-07
4.4922713e-09
3.037374e-07
4.4612973e-09
3.0236815e-07
4.4329548e-09
3.0100677e-07
4.4074236e-09
2.9965228e-07
4.3850447e-09
2.9830368e-07
4.3658992e-09
2.9696015e-07
4.3494324e-09
2.9562096e-07
4.3353051e-09
2.9428525e-07
4.3239562e-09
2.9295208e-07
4.3157008e-09
2.9162052e-07
4.3104152e-09
2.9028978e-07
4.3076741e-09
2.8895912e-07
4.3073653e-09
2.8762762e-07
4.3100099e-09
2.8629425e-07
4.3159933e-09
2.8495812e-07
4.3248705e-09
2.8361844e-07
4.3362882e-09
2.8227427e-07
4.3507737e-09
2.8092449e-07
4.3688464e-09
2.7956803e-07
4.390422e-09
2.7820391e-07
4.4151469e-09
2.768311e-07
4.4432017e-09
2.7544836e-07
4.4752726e-09
2.7405439e-07
4.5115544e-09
2.72648e-07
4.5516951e-09
2.7122791e-07
4.595939e-09
2.6979259e-07
4.6451751e-09
2.6834043e-07
4.6995936e-09
2.6686991e-07
4.7589609e-09
2.6537929e-07
4.823898e-09
2.6386652e-07
4.895538e-09
2.6232969e-07
4.9733263e-09
2.6076615e-07
5.059642e-09
2.5924003e-07
4.9384947e-09
2.5778639e-07
4.703879e-09
2.5639976e-07
4.486974e-09
2.5507494e-07
4.2869364e-09
2.5380706e-07
4.1026134e-09
2.5259185e-07
3.9321208e-09
2.5142558e-07
3.7737367e-09
2.5030474e-07
3.6266947e-09
2.4922603e-07
3.4903358e-09
2.4818657e-07
3.3632948e-09
2.4718386e-07
3.244373e-09
2.4621552e-07
3.1331433e-09
2.4527925e-07
3.0293409e-09
2.4437283e-07
2.9327666e-09
2.4349428e-07
2.8425312e-09
2.4264145e-07
2.7593583e-09
2.4181283e-07
2.680982e-09
2.4100359e-07
2.6183609e-09
2.4021566e-07
2.5493858e-09
2.3942608e-07
2.5550634e-09
2.3867378e-07
2.4345436e-09
2.3774197e-07
3.0140174e-09
1.8904632e-09
2.8986033e-06
1.5362633e-10
2.8985356e-06
4.3282232e-10
2.8984397e-06
6.1144769e-10
2.8983303e-06
6.969497e-10
2.8982084e-06
7.7661425e-10
2.8980729e-06
8.6262363e-10
2.8979235e-06
9.5181119e-10
2.8977595e-06
1.0454283e-09
2.8975795e-06
1.1474102e-09
2.8973816e-06
1.261563e-09
2.8971635e-06
1.391607e-09
2.8969218e-06
1.5423877e-09
2.8966522e-06
1.7206642e-09
2.8963489e-06
1.9373386e-09
2.8960036e-06
2.2062183e-09
2.8956034e-06
2.5591509e-09
2.8951319e-06
3.0159827e-09
2.8945496e-06
3.7269527e-09
2.8938325e-06
4.5929404e-09
2.8927879e-06
6.6958848e-09
2.8914637e-06
8.4942295e-09
2.8877387e-06
2.3923936e-08
2.8850074e-06
1.7478329e-08
2.0337989e-06
7.1045978e-06
9.4915003e-07
8.0343858e-06
6.7732974e-07
1.0635561e-06
6.2759887e-07
1.7495114e-07
6.0728718e-07
7.1007347e-08
5.9290581e-07
5.0475845e-08
5.8065043e-07
4.3079576e-08
5.6981961e-07
3.8082799e-08
5.6013193e-07
3.4057352e-08
5.5137623e-07
3.0773566e-08
5.4338306e-07
2.8088652e-08
5.3602726e-07
2.5845067e-08
5.2921643e-07
2.3926765e-08
5.228786e-07
2.2261755e-08
5.1695519e-07
2.0803178e-08
5.1139763e-07
1.9515682e-08
5.0616536e-07
1.8371171e-08
5.0122397e-07
1.7347778e-08
4.9654383e-07
1.6428809e-08
4.9209912e-07
1.5600756e-08
4.8786746e-07
1.4851479e-08
4.8382917e-07
1.4171484e-08
4.7996714e-07
1.355173e-08
4.7626639e-07
1.2984675e-08
4.7271328e-07
1.2465715e-08
4.6929582e-07
1.1988827e-08
4.6600352e-07
1.1548878e-08
4.6282655e-07
1.1143543e-08
4.597561e-07
1.0769221e-08
4.567845e-07
1.0421791e-08
4.5390462e-07
1.009945e-08
4.5110973e-07
9.800864e-09
4.4839396e-07
9.5228689e-09
4.4575212e-07
9.2630435e-09
4.4317913e-07
9.0211449e-09
4.4067019e-07
8.7961721e-09
4.3822118e-07
8.5855942e-09
4.3582844e-07
8.3878875e-09
4.3348825e-07
8.2032691e-09
4.3119701e-07
8.0313317e-09
4.2895168e-07
7.8700203e-09
4.267496e-07
7.7180775e-09
4.2458799e-07
7.5758955e-09
4.224641e-07
7.4433871e-09
4.2037552e-07
7.3193425e-09
4.1832017e-07
7.2025932e-09
4.1629602e-07
7.092948e-09
4.1430096e-07
6.9907575e-09
4.1233293e-07
6.8958118e-09
4.1039021e-07
6.8068442e-09
4.0847129e-07
6.7231654e-09
4.0657453e-07
6.6452948e-09
4.0469823e-07
6.5734112e-09
4.0284083e-07
6.5069512e-09
4.0100104e-07
6.4450522e-09
3.991776e-07
6.3874984e-09
3.9736915e-07
6.3348047e-09
3.9557424e-07
6.2871816e-09
3.9379163e-07
6.2439147e-09
3.9202025e-07
6.2043349e-09
3.9025899e-07
6.1686835e-09
3.8850659e-07
6.1374366e-09
3.8676178e-07
6.1107125e-09
3.8502347e-07
6.0877438e-09
3.8329072e-07
6.0680522e-09
3.8156244e-07
6.052242e-09
3.7983738e-07
6.0407568e-09
3.7811437e-07
6.0334301e-09
3.7639237e-07
6.02967e-09
3.7467042e-07
6.0293149e-09
3.7294734e-07
6.0330875e-09
3.7122181e-07
6.0415306e-09
3.6949265e-07
6.0540306e-09
3.6775884e-07
6.0700909e-09
3.6601918e-07
6.0904406e-09
3.6427221e-07
6.1158088e-09
3.6251655e-07
6.146084e-09
3.6075093e-07
6.1807729e-09
3.58974e-07
6.2201227e-09
3.5718419e-07
6.2650916e-09
3.5537978e-07
6.3159576e-09
3.5355925e-07
6.3722317e-09
3.5172093e-07
6.4342509e-09