/*--------------------------------*- C++ -*----------------------------------*\
  =========                 |
  \\      /  F ield         | OpenFOAM: The Open Source CFD Toolbox
   \\    /   O peration     | Website:  https://openfoam.org
    \\  /    A nd           | Version:  12
     \\/     M anipulation  |
\*---------------------------------------------------------------------------*/
FoamFile
{
    format      ascii;
    class       surfaceScalarField;
    location    "800";
    object      phi;
}
// * * * * * * * * * * * * * * * * * * * * * * * * * * * * * * * * * * * * * //

dimensions      [0 3 -1 0 0 0 0];

internalField   nonuniform List<scalar> 
14782
(
0.00078635964
7.1539705e-06
-0.00079351361
0.00077670751
9.6521245e-06
0.0007658741
1.0833417e-05
0.0007545618
1.1312297e-05
0.00074277816
1.1783636e-05
0.00073057272
1.2205445e-05
0.00071798446
1.2588262e-05
0.00070506081
1.2923651e-05
0.00069187408
1.3186727e-05
0.00067854807
1.3326009e-05
0.00066527292
1.3275153e-05
0.00065231128
1.2961631e-05
0.00063999872
1.2312567e-05
0.0006286903
1.1308421e-05
0.00061865577
1.0034526e-05
0.0006100086
8.6471744e-06
0.00060270638
7.3022211e-06
0.00059650013
6.2062502e-06
0.0005912717
5.2284249e-06
0.00058676891
4.5027883e-06
0.00058278088
3.9880304e-06
0.000579213
3.5678847e-06
0.00057589703
3.3159646e-06
0.00057272677
3.1702586e-06
0.00056966469
3.0620802e-06
0.00056669015
2.9745467e-06
0.00056379408
2.8960643e-06
0.00056097999
2.8140924e-06
0.00055825095
2.729038e-06
0.00055561266
2.6382922e-06
0.00055306377
2.5488905e-06
0.00055059277
2.4709982e-06
0.00054816856
2.4242074e-06
0.00054574967
2.4188924e-06
0.00054331526
2.4344134e-06
0.00054087073
2.4445257e-06
0.00053843788
2.4328518e-06
0.00053604538
2.3925018e-06
0.00053371867
2.3267122e-06
0.00053147256
2.2461063e-06
0.00052931133
2.1612282e-06
0.00052723308
2.0782512e-06
0.0005252311
2.0019852e-06
0.00052329643
1.9346634e-06
0.00052140523
1.891201e-06
0.00051950659
1.8986456e-06
0.00051751558
1.9910039e-06
0.00051529358
2.2220032e-06
0.00051267801
2.6155712e-06
0.00050967269
3.00532e-06
0.00050654814
3.1245421e-06
0.00050360766
2.9404867e-06
0.00050098529
2.6223723e-06
0.00049866692
2.318363e-06
0.00049657047
2.0964542e-06
0.00049461754
1.9529291e-06
0.0004927452
1.872343e-06
0.00049092801
1.8171863e-06
0.00048916485
1.7631582e-06
0.00048744716
1.7176962e-06
0.00048576675
1.6804046e-06
0.00048411469
1.6520659e-06
0.00048248404
1.6306443e-06
0.00048086986
1.614178e-06
0.00047926797
1.6018901e-06
0.0004776758
1.5921786e-06
0.00047609229
1.583505e-06
0.00047451639
1.5759055e-06
0.00047294656
1.5698231e-06
0.00047138136
1.5652074e-06
0.00046981928
1.5620796e-06
0.00046825898
1.5602997e-06
0.0004666994
1.5595747e-06
0.00046513935
1.560049e-06
0.00046357771
1.561641e-06
0.00046201348
1.564232e-06
0.00046044546
1.5680177e-06
0.00045887265
1.5728079e-06
0.00045729418
1.5784739e-06
0.0004557089
1.5852802e-06
0.00045411655
1.5923464e-06
0.00045251747
1.5990843e-06
0.00045091613
1.601338e-06
0.0004493709
1.5452349e-06
0.00044844277
9.2812568e-07
0.00045247543
-4.0326599e-06
0.00045898105
-6.505625e-06
0.00046251371
-3.5326577e-06
0.00046434394
-1.8302365e-06
0.00046491797
-5.7402168e-07
0.00046482472
9.3240918e-08
0.00046435894
4.6577777e-07
0.00046367755
6.8139287e-07
0.0004628634
8.1415547e-07
0.00046196339
9.0000269e-07
0.00046100706
9.563351e-07
0.0004599991
1.0079584e-06
0.00045892879
1.0703116e-06
0.00045782693
1.1018578e-06
1.3410341e-06
0.00082497987
6.7727621e-06
-0.00082459866
0.00082537731
9.2546889e-06
0.0008255875
1.0623223e-05
0.00082568149
1.1218304e-05
0.00082565343
1.18117e-05
0.0008254996
1.2359275e-05
0.00082521357
1.287429e-05
0.00082477334
1.3363882e-05
0.00082412346
1.3836608e-05
0.00082316895
1.4280518e-05
0.00082178536
1.4658746e-05
0.00081980367
1.4943323e-05
0.00081702311
1.5093128e-05
0.00081324702
1.5084511e-05
0.00080835359
1.4927951e-05
0.00080234274
1.4658028e-05
0.00079532655
1.4318404e-05
0.00078749873
1.4034073e-05
0.00077904026
1.3686901e-05
0.0007701935
1.3349549e-05
0.00076120428
1.2977248e-05
0.00075230752
1.246464e-05
0.00074370074
1.1922749e-05
0.00073551302
1.135798e-05
0.00072781234
1.0762761e-05
0.00072062997
1.015691e-05
0.00071396828
9.557757e-06
0.00070779778
8.9845938e-06
0.00070206133
8.465491e-06
0.00069669087
8.0087521e-06
0.00069161998
7.6197715e-06
0.00068678666
7.3043235e-06
0.00068215272
7.0581418e-06
0.00067770691
6.8647069e-06
0.00067343985
6.7014739e-06
0.00066933922
6.5451552e-06
0.0006653883
6.3837767e-06
0.00066156757
6.2132313e-06
0.00065786081
6.0334708e-06
0.00065425793
5.848983e-06
0.00065075413
5.6650264e-06
0.00064734777
5.4846151e-06
0.00064403707
5.3126807e-06
0.00064082
5.1517343e-06
0.00063769915
5.0120559e-06
0.00063468678
4.9110134e-06
0.00063181047
4.8673146e-06
0.00062912579
4.9066791e-06
0.00062669982
5.0415498e-06
0.00062449515
5.209989e-06
0.00062233164
5.2880511e-06
0.00062005366
5.21847e-06
0.00061763077
5.0452602e-06
0.00061511326
4.8358743e-06
0.00061256888
4.64083e-06
0.00061004072
4.4810961e-06
0.00060754576
4.3673031e-06
0.00060508946
4.2734841e-06
0.00060267611
4.1765038e-06
0.0006003084
4.085409e-06
0.00059798605
4.0027531e-06
0.00059570697
3.9311448e-06
0.00059346898
3.8686362e-06
0.00059126988
3.8132827e-06
0.00058910709
3.7646728e-06
0.00058697888
3.7203923e-06
0.00058488435
3.678037e-06
0.00058282244
3.6378181e-06
0.00058079184
3.6004221e-06
0.00057879134
3.5656994e-06
0.00057681973
3.5336919e-06
0.00057487584
3.5041917e-06
0.00057295872
3.4766909e-06
0.00057106738
3.451389e-06
0.00056920091
3.428119e-06
0.00056735849
3.4066473e-06
0.00056553923
3.3872798e-06
0.00056374234
3.3696964e-06
0.00056196709
3.3537211e-06
0.00056021252
3.3398493e-06
0.00055847817
3.3266976e-06
0.00055676349
3.3137663e-06
0.00055506641
3.2984159e-06
0.00055337939
3.2322575e-06
0.00055163568
2.6718384e-06
0.00054885996
-1.2569466e-06
0.00054619981
-3.8454741e-06
0.00054485486
-2.1877088e-06
0.00054372894
-7.0431091e-07
0.00054259821
5.5670886e-07
0.00054136833
1.3231181e-06
0.00054005696
1.7771413e-06
0.00053869644
2.0419179e-06
0.00053731074
2.1998496e-06
0.00053591047
2.3002768e-06
0.0005345087
2.358105e-06
0.00053307878
2.4378763e-06
0.00053166184
2.4872502e-06
0.00053001266
2.7510453e-06
2.7422857e-06
0.00085269515
6.4991789e-06
-0.00085242156
0.00085309937
8.8504648e-06
0.00085347222
1.0250375e-05
0.00085376218
1.0928341e-05
0.00085402542
1.1548463e-05
0.00085425014
1.2134554e-05
0.00085444808
1.2676352e-05
0.00085463008
1.3181879e-05
0.00085480248
1.3664206e-05
0.00085496385
1.4119153e-05
0.00085511416
1.450843e-05
0.00085524165
1.4815835e-05
0.00085533038
1.5004402e-05
0.00085535458
1.5060308e-05
0.00085528156
1.500097e-05
0.00085507038
1.4869207e-05
0.000854665
1.472379e-05
0.00085402331
1.4675762e-05
0.00085305501
1.4655206e-05
0.0008516643
1.4740254e-05
0.00084972028
1.4921264e-05
0.00084709021
1.5094714e-05
0.0008437125
1.5300463e-05
0.00083956198
1.5508498e-05
0.00083465055
1.5674187e-05
0.00082902322
1.5784243e-05
0.00082279679
1.5784185e-05
0.00081614693
1.5634448e-05
0.00080924667
1.5365756e-05
0.000802263
1.4992418e-05
0.00079534458
1.4538188e-05
0.00078860854
1.4040371e-05
0.00078213525
1.353143e-05
0.00077596239
1.3037566e-05
0.00077008772
1.2576145e-05
0.00076448475
1.214812e-05
0.00075911562
1.1752908e-05
0.0007539424
1.1386455e-05
0.00074893683
1.1039045e-05
0.0007440809
1.0704912e-05
0.0007393641
1.0381823e-05
0.00073477897
1.0069749e-05
0.00073031772
9.7739277e-06
0.0007259752
9.4942557e-06
0.00072175491
9.2323474e-06
0.00071766849
8.9974305e-06
0.00071373218
8.8036183e-06
0.00070997057
8.6682901e-06
0.00070641015
8.6019758e-06
0.00070304314
8.5769929e-06
0.00069980907
8.5221188e-06
0.0006966348
8.39274e-06
0.00069347398
8.206079e-06
0.00069031271
7.9971513e-06
0.00068716094
7.7925952e-06
0.00068403534
7.6066963e-06
0.00068094997
7.4526708e-06
0.00067791382
7.3096341e-06
0.00067493174
7.1585911e-06
0.00067200554
7.0116017e-06
0.00066913512
6.8731787e-06
0.00066631994
6.7463179e-06
0.00066355947
6.6291107e-06
0.00066085243
6.5203246e-06
0.0006581968
6.4203047e-06
0.00065559126
6.3259295e-06
0.00065303478
6.234519e-06
0.00065052576
6.1468385e-06
0.00064806259
6.0635838e-06
0.00064564396
5.9843324e-06
0.00064326855
5.9091071e-06
0.00064093506
5.8376766e-06
0.00063864238
5.7693727e-06
0.00063638933
5.7044335e-06
0.00063417485
5.6426075e-06
0.00063199795
5.5835434e-06
0.0006298576
5.527627e-06
0.00062775287
5.474426e-06
0.00062568287
5.4237255e-06
0.0006236465
5.3762209e-06
0.00062164305
5.3301462e-06
0.00061967159
5.2852228e-06
0.00061772859
5.2414143e-06
0.00061579507
5.1657855e-06
0.00061372931
4.7375895e-06
0.00061061507
1.8572933e-06
0.0006072324
-4.6279628e-07
0.00060479488
2.4980799e-07
0.00060277783
1.3127376e-06
0.00060097268
2.3618652e-06
0.00059922355
3.0722474e-06
0.00059748529
3.5153996e-06
0.00059575075
3.776457e-06
0.00059402452
3.9260741e-06
0.0005923064
4.0184054e-06
0.000590605
4.059497e-06
0.00058888402
4.1588607e-06
0.00058720601
4.1652589e-06
0.00058520901
4.7480505e-06
4.2975417e-06
0.00088128052
6.2962595e-06
-0.0008810776
0.00088165815
8.4728326e-06
0.00088203219
9.8763343e-06
0.00088232615
1.0634387e-05
0.00088259679
1.1277824e-05
0.00088283552
1.1895824e-05
0.00088304952
1.2462352e-05
0.00088324941
1.298199e-05
0.00088344321
1.3470405e-05
0.00088363187
1.3930491e-05
0.00088381826
1.4322037e-05
0.00088399703
1.4637071e-05
0.00088416238
1.4839046e-05
0.00088430461
1.4918075e-05
0.00088441699
1.4888596e-05
0.00088449689
1.4789302e-05
0.00088454255
1.4678135e-05
0.00088457222
1.4646094e-05
0.00088457744
1.4649982e-05
0.00088456217
1.4755528e-05
0.00088452672
1.4956709e-05
0.00088444575
1.5175685e-05
0.00088429629
1.5449928e-05
0.00088404191
1.5762874e-05
0.00088362586
1.6090236e-05
0.00088298056
1.6429546e-05
0.00088199393
1.6770816e-05
0.00088052623
1.7102152e-05
0.00087846798
1.7424006e-05
0.00087573535
1.7725041e-05
0.00087228214
1.7991403e-05
0.00086810682
1.8215692e-05
0.00086328454
1.8353707e-05
0.00085795435
1.8367756e-05
0.00085226775
1.8262748e-05
0.0008463771
1.8038769e-05
0.00084041843
1.7711569e-05
0.00083449857
1.7306316e-05
0.00082868743
1.6850194e-05
0.00082301619
1.6376145e-05
0.00081748737
1.5910644e-05
0.00081209004
1.5467083e-05
0.00080681255
1.5051414e-05
0.00080164895
1.4657853e-05
0.00079659995
1.4281351e-05
0.00079167282
1.3924564e-05
0.00078687872
1.3597716e-05
0.00078223008
1.3316931e-05
0.00077773677
1.3095279e-05
0.00077339836
1.2915411e-05
0.00076919786
1.2722617e-05
0.00076510988
1.2480716e-05
0.00076111169
1.220427e-05
0.00075718599
1.1922854e-05
0.00075332406
1.1654524e-05
0.00074952514
1.1405619e-05
0.00074579282
1.1184987e-05
0.00074212927
1.0973188e-05
0.00073853452
1.0753338e-05
0.00073500882
1.0537304e-05
0.00073155222
1.0329773e-05
0.00072816424
1.0134296e-05
0.00072484413
9.9492282e-06
0.00072159046
9.7739929e-06
0.00071840129
9.6094681e-06
0.00071527534
9.4518832e-06
0.00071221105
9.2988098e-06
0.00070920625
9.1516347e-06
0.0007062591
9.010737e-06
0.00070336806
8.875368e-06
0.00070053161
8.7455577e-06
0.00069774821
8.6210794e-06
0.00069501645
8.5011292e-06
0.0006923349
8.3859835e-06
0.00068970221
8.2753065e-06
0.00068711712
8.1686258e-06
0.00068457836
8.0663903e-06
0.00068208473
7.9680527e-06
0.00067963511
7.8733468e-06
0.0006772282
7.7831361e-06
0.00067486306
7.6952828e-06
0.0006725386
7.6096824e-06
0.00067025156
7.5284594e-06
0.00066798731
7.4300321e-06
0.00066565897
7.0659311e-06
0.00066279337
4.7228887e-06
0.00065971128
2.6192973e-06
0.00065705763
2.9034547e-06
0.00065469901
3.6713563e-06
0.00065253672
4.5241627e-06
0.00065046106
5.1479042e-06
0.00064842304
5.5534222e-06
0.00064640571
5.7937855e-06
0.00064440754
5.9242454e-06
0.00064242516
6.0007832e-06
0.0006404668
6.0178539e-06
0.00063849177
6.1338965e-06
0.00063657932
6.0777126e-06
0.00063427682
7.0505434e-06
6.019387e-06
0.00091084151
6.1334601e-06
-0.00091067871
0.00091118261
8.1317357e-06
0.00091153229
9.5266569e-06
0.00091181584
1.0350831e-05
0.00091207471
1.1018953e-05
0.00091231053
1.1660003e-05
0.00091252575
1.2247138e-05
0.00091272852
1.2779221e-05
0.00091292631
1.3272609e-05
0.00091312
1.3736802e-05
0.00091331171
1.4130324e-05
0.00091349652
1.445226e-05
0.00091366904
1.4666527e-05
0.00091382117
1.4765951e-05
0.00091394614
1.4763626e-05
0.00091404092
1.4694517e-05
0.00091410591
1.4613149e-05
0.00091415769
1.4594308e-05
0.00091419356
1.4614113e-05
0.00091422265
1.4726443e-05
0.00091425453
1.4924828e-05
0.00091428272
1.5147494e-05
0.00091431035
1.5422295e-05
0.00091433845
1.5734778e-05
0.00091436329
1.6065393e-05
0.0009143813
1.6411535e-05
0.00091438559
1.6766533e-05
0.00091436337
1.7124368e-05
0.00091429627
1.7491105e-05
0.00091415355
1.7867764e-05
0.00091388821
1.8256743e-05
0.00091343891
1.866499e-05
0.00091270294
1.9089679e-05
0.0009115487
1.9521995e-05
0.000909861
1.9950451e-05
0.00090754888
2.0350882e-05
0.00090455926
2.0701198e-05
0.00090089505
2.0970518e-05
0.00089663226
2.1112984e-05
0.00089189585
2.1112558e-05
0.00088682385
2.0982647e-05
0.00088154964
2.0741291e-05
0.00087618571
2.0415342e-05
0.00087081031
2.0033251e-05
0.00086546481
1.9626855e-05
0.00086016762
1.9221754e-05
0.00085493011
1.8835226e-05
0.00084976607
1.8480975e-05
0.0008446919
1.8169443e-05
0.00083972018
1.7887134e-05
0.00083485422
1.7588576e-05
0.00083008981
1.7245122e-05
0.00082542064
1.6873438e-05
0.0008208403
1.65032e-05
0.00081634386
1.6150966e-05
0.00081192932
1.5820152e-05
0.000807597
1.5517308e-05
0.00080334495
1.5225241e-05
0.00079917026
1.492803e-05
0.00079507263
1.4634932e-05
0.00079105271
1.4349694e-05
0.00078711032
1.4076679e-05
0.00078324475
1.3814806e-05
0.000779455
1.3563742e-05
0.00077573969
1.3324776e-05
0.00077209709
1.3094478e-05
0.00076852541
1.287049e-05
0.00076502286
1.2654192e-05
0.00076158768
1.2445913e-05
0.00075821831
1.2244735e-05
0.00075491314
1.205073e-05
0.00075167054
1.1863684e-05
0.00074848899
1.1682676e-05
0.00074536694
1.1508038e-05
0.00074230287
1.1339368e-05
0.00073929542
1.1176083e-05
0.00073634311
1.1018701e-05
0.0007334446
1.0866563e-05
0.00073059859
1.0719352e-05
0.00072780364
1.0578088e-05
0.00072505867
1.0440256e-05
0.00072236247
1.0305879e-05
0.00071971225
1.0178678e-05
0.00071709817
1.0044114e-05
0.00071447647
9.6876285e-06
0.00071161675
7.5826119e-06
0.00070863683
5.5992152e-06
0.0007058537
5.6865842e-06
0.00070325908
6.2659833e-06
0.00070081608
6.9671563e-06
0.00069845887
7.5051148e-06
0.00069614767
7.8646272e-06
0.00069386443
8.0770191e-06
0.00069160534
8.1833356e-06
0.0006893658
8.2403265e-06
0.00068715457
8.2290875e-06
0.00068492797
8.3604902e-06
0.00068278079
8.2248964e-06
0.00068017559
9.6557394e-06
7.9194358e-06
0.00094139063
6.0020783e-06
-0.00094125924
0.00094169105
7.8313075e-06
0.00094201733
9.2003827e-06
0.00094229576
1.0072402e-05
0.00094254999
1.0764719e-05
0.00094278752
1.1422478e-05
0.00094300725
1.2027408e-05
0.00094321423
1.2572232e-05
0.00094341465
1.3072189e-05
0.00094361155
1.3539909e-05
0.00094380372
1.3938153e-05
0.00094398917
1.4266804e-05
0.00094416182
1.449388e-05
0.00094431432
1.4613456e-05
0.00094444059
1.4637354e-05
0.00094453799
1.4597119e-05
0.00094460747
1.4543661e-05
0.00094466236
1.4539427e-05
0.00094470209
1.4574374e-05
0.00094473552
1.4693021e-05
0.00094477131
1.4889035e-05
0.00094480506
1.5113743e-05
0.00094483985
1.5387504e-05
0.00094487719
1.5697443e-05
0.00094491558
1.6027004e-05
0.00094495475
1.6372358e-05
0.00094499392
1.672736e-05
0.00094503144
1.7086857e-05
0.00094506713
1.7455409e-05
0.0009450999
1.7834993e-05
0.00094512816
1.8228482e-05
0.00094514997
1.8643182e-05
0.00094515988
1.9079765e-05
0.00094514703
1.953485e-05
0.00094509191
2.0005568e-05
0.00094496001
2.0482785e-05
0.00094469975
2.0961458e-05
0.00094423096
2.1439306e-05
0.00094343432
2.1909627e-05
0.00094217911
2.2367768e-05
0.00094035617
2.2805584e-05
0.00093789019
2.3207265e-05
0.00093476355
2.3541986e-05
0.00093103401
2.3762793e-05
0.0009268109
2.3849962e-05
0.00092222136
2.3811294e-05
0.00091738976
2.3666822e-05
0.00091242087
2.3449865e-05
0.00090738939
2.3200928e-05
0.00090233894
2.2937584e-05
0.00089729157
2.2635947e-05
0.00089226077
2.2275919e-05
0.00088725987
2.1874342e-05
0.00088230184
2.1461233e-05
0.00087739655
2.105625e-05
0.00087255072
2.0665984e-05
0.00086776983
2.0298199e-05
0.00086305665
1.9938418e-05
0.00085841215
1.9572529e-05
0.00085383798
1.9209105e-05
0.00084933609
1.8851583e-05
0.00084490813
1.8504637e-05
0.00084055528
1.8167655e-05
0.00083627851
1.7840519e-05
0.00083207812
1.7525164e-05
0.0008279531
1.7219497e-05
0.00082390237
1.6921221e-05
0.00081992524
1.6631325e-05
0.00081602073
1.6350416e-05
0.00081218783
1.6077636e-05
0.00080842534
1.5813222e-05
0.00080473197
1.5557049e-05
0.00080110651
1.5308145e-05
0.00079754758
1.5066966e-05
0.00079405385
1.4833095e-05
0.00079062404
1.4605891e-05
0.00078725677
1.4385977e-05
0.00078395071
1.4172615e-05
0.0007807046
1.3965461e-05
0.00077751698
1.3765711e-05
0.00077438675
1.3570483e-05
0.00077131273
1.3379903e-05
0.00076829254
1.3198872e-05
0.00076531962
1.3017035e-05
0.00076237459
1.2632656e-05
0.00075934108
1.0616117e-05
0.00075625783
8.6824712e-06
0.00075328197
8.6624417e-06
0.00075043293
9.1150254e-06
0.00074770256
9.6975283e-06
0.00074505407
1.0153601e-05
0.00074245782
1.0460876e-05
0.0007398968
1.0638046e-05
0.0007373656
1.0714532e-05
0.00073485832
1.0747605e-05
0.00073238391
1.0703498e-05
0.00072989573
1.0848671e-05
0.00072750339
1.0617235e-05
0.00072458646
1.2572672e-05
1.0011289e-05
0.00097295811
5.8947539e-06
-0.00097285078
0.00097322215
7.5672698e-06
0.00097352716
8.8953654e-06
0.00097379984
9.7997296e-06
0.00097404924
1.0515318e-05
0.00097428558
1.1186137e-05
0.00097450708
1.1805906e-05
0.0009747164
1.2362909e-05
0.00097491814
1.287045e-05
0.00097511805
1.3340004e-05
0.00097531102
1.3745184e-05
0.00097549799
1.4079829e-05
0.00097567198
1.4319896e-05
0.00097582635
1.4459087e-05
0.00097595541
1.4508292e-05
0.00097605646
1.4496062e-05
0.00097613089
1.4469238e-05
0.00097618962
1.4480698e-05
0.00097623364
1.4530354e-05
0.00097627113
1.4655526e-05
0.0009763096
1.4850571e-05
0.00097634598
1.5077358e-05
0.00097638308
1.5350404e-05
0.00097642231
1.5658212e-05
0.00097646273
1.5986588e-05
0.0009765041
1.6330982e-05
0.00097654588
1.6685582e-05
0.00097658694
1.70458e-05
0.0009766272
1.7415144e-05
0.0009766662
1.7796e-05
0.00097670372
1.8190962e-05
0.00097674064
1.8606262e-05
0.00097677745
1.9042956e-05
0.00097681407
1.9498223e-05
0.00097685049
1.9969149e-05
0.00097688533
2.0447949e-05
0.00097691627
2.0930513e-05
0.00097693889
2.1416689e-05
0.00097694371
2.1904806e-05
0.00097691359
2.2397894e-05
0.00097681776
2.2901411e-05
0.00097660691
2.3418113e-05
0.0009761999
2.3948999e-05
0.00097547474
2.4487947e-05
0.00097429695
2.5027751e-05
0.00097255352
2.5554724e-05
0.00097016856
2.605179e-05
0.0009671425
2.6475923e-05
0.0009635539
2.678953e-05
0.00095951538
2.6976104e-05
0.00095514878
2.7002539e-05
0.000950562
2.68627e-05
0.00094583525
2.6601096e-05
0.00094101902
2.6277459e-05
0.00093614407
2.5931205e-05
0.00093123401
2.5576038e-05
0.00092631185
2.5220363e-05
0.00092139705
2.485322e-05
0.00091650363
2.446595e-05
0.00091164193
2.4070798e-05
0.00090682024
2.3673282e-05
0.00090204585
2.3279024e-05
0.00089732515
2.2888356e-05
0.00089266338
2.2502286e-05
0.00088806459
2.2123959e-05
0.00088353125
2.175283e-05
0.00087906502
2.1387454e-05
0.00087466726
2.1029089e-05
0.00087033892
2.0678748e-05
0.00086608069
2.0335865e-05
0.00086189278
2.0001133e-05
0.00085777508
1.9674757e-05
0.00085372733
1.9355888e-05
0.00084974903
1.9045271e-05
0.00084583951
1.8742609e-05
0.00084199809
1.8447312e-05
0.00083822385
1.8160216e-05
0.00083451589
1.7880581e-05
0.00083087324
1.7608105e-05
0.00082729473
1.7344227e-05
0.00082377948
1.7085729e-05
0.00082032651
1.6832874e-05
0.0008169339
1.6591487e-05
0.00081359721
1.6353724e-05
0.0008103094
1.5920462e-05
0.00080700611
1.3919404e-05
0.0008036979
1.1990688e-05
0.00080046724
1.1893099e-05
0.00079733182
1.2250444e-05
0.00079429486
1.2734497e-05
0.00079133731
1.3111146e-05
0.00078843836
1.3359831e-05
0.00078558287
1.3493528e-05
0.00078276437
1.3533034e-05
0.00077997544
1.3536534e-05
0.00077722478
1.3454165e-05
0.00077446249
1.3610961e-05
0.00077181259
1.3267133e-05
0.00076857194
1.5813318e-05
1.2308087e-05
0.001005578
5.8048547e-06
-0.0010054881
0.0010058105
7.3347618e-06
0.0010060941
8.6117355e-06
0.0010063588
9.53509e-06
0.0010066029
1.027118e-05
0.001006837
1.0952046e-05
0.0010070597
1.1583167e-05
0.0010072715
1.2151117e-05
0.0010074761
1.2665847e-05
0.001007678
1.3138127e-05
0.0010078732
1.3549972e-05
0.0010080618
1.3891275e-05
0.0010082374
1.4144242e-05
0.0010083939
1.4302586e-05
0.001008526
1.4376249e-05
0.0010086309
1.4391148e-05
0.0010087102
1.4389914e-05
0.0010087729
1.4417958e-05
0.0010088211
1.4482185e-05
0.0010088623
1.4614325e-05
0.0010089031
1.4809758e-05
0.0010089417
1.5038781e-05
0.0010089807
1.5311443e-05
0.0010090213
1.5617529e-05
0.0010090631
1.5944805e-05
0.0010091058
1.6288347e-05
0.0010091487
1.6642647e-05
0.0010091909
1.7003608e-05
0.0010092323
1.7373775e-05
0.0010092726
1.7755656e-05
0.0010093119
1.8151678e-05
0.0010093509
1.8567221e-05
0.0010093903
1.9003582e-05
0.0010094304
1.9458112e-05
0.0010094716
1.9928002e-05
0.001009513
2.0406526e-05
0.001009554
2.0889517e-05
0.0010095942
2.1376494e-05
0.0010096328
2.1866185e-05
0.0010096692
2.2361521e-05
0.0010097027
2.2867916e-05
0.0010097318
2.3388993e-05
0.0010097526
2.3928181e-05
0.0010097554
2.4485177e-05
0.0010097208
2.5062352e-05
0.001009612
2.5663521e-05
0.0010093706
2.6293135e-05
0.0010088925
2.6954016e-05
0.0010080375
2.7644523e-05
0.0010066754
2.8338228e-05
0.0010047037
2.8974237e-05
0.0010020889
2.9477479e-05
0.00099888267
2.9807361e-05
0.00099518672
2.9973411e-05
0.00099111971
2.9998212e-05
0.00098678971
2.990604e-05
0.00098227739
2.9732679e-05
0.00097763392
2.9496693e-05
0.00097289299
2.9206877e-05
0.00096808322
2.888057e-05
0.00096323093
2.8525574e-05
0.00095835843
2.8151525e-05
0.00095348333
2.7763458e-05
0.00094861969
2.7365926e-05
0.00094377938
2.6964265e-05
0.00093897224
2.6559967e-05
0.00093420598
2.6153722e-05
0.00092948666
2.5748402e-05
0.00092481935
2.5346065e-05
0.00092020826
2.4946953e-05
0.00091565664
2.4552751e-05
0.00091116696
2.4164436e-05
0.00090674119
2.3781657e-05
0.00090238068
2.340578e-05
0.00089808639
2.3036905e-05
0.00089385898
2.2674723e-05
0.0008896987
2.2320488e-05
0.00088560566
2.1973626e-05
0.00088157974
2.1634026e-05
0.00087762047
2.1303499e-05
0.00087372761
2.0978585e-05
0.00086990071
2.0659774e-05
0.00086613849
2.0353713e-05
0.00086243807
2.0054144e-05
0.0008587984
1.9560127e-05
0.000855179
1.7538803e-05
0.00085158206
1.5587628e-05
0.00084805605
1.5419113e-05
0.00084461062
1.5695869e-05
0.00084125186
1.6093257e-05
0.00083797105
1.6391959e-05
0.00083475456
1.657632e-05
0.00083158981
1.6658278e-05
0.00082846989
1.6652956e-05
0.00082538605
1.6620374e-05
0.00082234651
1.6493705e-05
0.00081929791
1.6659567e-05
0.00081637839
1.6186647e-05
0.00081280163
1.9390075e-05
1.4821897e-05
0.0010392849
5.7274383e-06
-0.0010392075
0.0010394902
7.1294584e-06
0.0010397526
8.3493357e-06
0.001040008
9.2797312e-06
0.0010402471
1.0032054e-05
0.0010404786
1.0720502e-05
0.0010407019
1.1359874e-05
0.0010409157
1.1937297e-05
0.0010411226
1.2459016e-05
0.0010413258
1.2934891e-05
0.0010415229
1.33529e-05
0.0010417126
1.3701592e-05
0.0010418896
1.3967231e-05
0.001042048
1.4144176e-05
0.0010421828
1.4241411e-05
0.0010422915
1.4282475e-05
0.0010423756
1.4305857e-05
0.0010424425
1.4351061e-05
0.0010424949
1.4429724e-05
0.0010425401
1.4569188e-05
0.0010425837
1.4766073e-05
0.0010426251
1.4997434e-05
0.0010426665
1.5269993e-05
0.0010427093
1.5574744e-05
0.001042753
1.5901087e-05
0.0010427974
1.6243941e-05
0.001042842
1.6598075e-05
0.0010428858
1.6959798e-05
0.0010429287
1.733089e-05
0.0010429705
1.7713832e-05
0.0010430113
1.8110932e-05
0.0010430517
1.8526827e-05
0.0010430923
1.8962959e-05
0.0010431335
1.9416959e-05
0.0010431755
1.9885993e-05
0.0010432179
2.0364067e-05
0.0010432604
2.084707e-05
0.0010433025
2.1334346e-05
0.0010433438
2.1824883e-05
0.0010433841
2.2321262e-05
0.0010434232
2.2828746e-05
0.0010434611
2.3351131e-05
0.0010434978
2.3891458e-05
0.0010435332
2.4449781e-05
0.0010435669
2.502872e-05
0.0010435979
2.5632457e-05
0.0010436245
2.6266601e-05
0.0010436407
2.6937808e-05
0.0010436332
2.7652029e-05
0.0010435724
2.8399012e-05
0.0010434033
2.9143345e-05
0.0010430247
2.985608e-05
0.0010422935
3.053848e-05
0.0010410679
3.1199059e-05
0.0010392369
3.1829196e-05
0.0010367667
3.2376301e-05
0.0010337107
3.2788661e-05
0.0010301683
3.303904e-05
0.0010262533
3.3121907e-05
0.001022065
3.3068862e-05
0.0010176738
3.2916766e-05
0.0010131259
3.2699478e-05
0.0010084567
3.2432607e-05
0.0010036988
3.2123798e-05
0.00099888114
3.1781958e-05
0.00099402723
3.1413883e-05
0.00098915582
3.1025124e-05
0.00098428242
3.0621803e-05
0.00097942016
3.0208323e-05
0.00097458005
2.9787067e-05
0.00096977102
2.9361783e-05
0.00096500047
2.8934985e-05
0.00096027462
2.8507512e-05
0.0009555984
2.8081999e-05
0.00095097586
2.7659443e-05
0.00094641033
2.7240253e-05
0.00094190433
2.6826487e-05
0.00093745991
2.6418047e-05
0.00093307865
2.6015285e-05
0.00092876151
2.5620633e-05
0.00092450953
2.523057e-05
0.00092032331
2.484599e-05
0.00091620262
2.447441e-05
0.00091214609
2.4110673e-05
0.00090815575
2.3550462e-05
0.00090420246
2.1492097e-05
0.0009002874
1.9502684e-05
0.00089644435
1.9262166e-05
0.00089267579
1.946443e-05
0.00088898691
1.9782139e-05
0.00088537451
2.000435e-05
0.00088183062
2.0120218e-05
0.00087834556
2.0143331e-05
0.00087491285
2.0085674e-05
0.00087152284
2.001038e-05
0.00086818336
1.9833189e-05
0.00086483746
2.0005465e-05
0.00086163736
1.9386747e-05
0.00085771266
2.3314771e-05
1.7563713e-05
0.0010741149
5.6590682e-06
-0.0010740465
0.001074297
6.9473451e-06
0.0010745391
8.1072984e-06
0.0010747843
9.0344643e-06
0.0010750183
9.7980782e-06
0.0010752468
1.0492013e-05
0.0010754697
1.1136981e-05
0.0010756848
1.172219e-05
0.0010758933
1.22505e-05
0.0010760978
1.2730411e-05
0.0010762965
1.3154208e-05
0.0010764874
1.3510718e-05
0.0010766658
1.3788787e-05
0.0010768262
1.3983747e-05
0.001076964
1.410369e-05
0.0010770765
1.4169956e-05
0.0010771652
1.4217084e-05
0.0010772365
1.4279827e-05
0.0010772934
1.4372846e-05
0.0010773425
1.4520028e-05
0.0010773893
1.4719334e-05
0.0010774334
1.4953249e-05
0.0010774774
1.5226066e-05
0.0010775222
1.5529899e-05
0.0010775678
1.5855516e-05
0.0010776139
1.6197841e-05
0.00107766
1.655191e-05
0.0010777055
1.6914377e-05
0.0010777499
1.7286424e-05
0.0010777933
1.7670416e-05
0.0010778357
1.8068561e-05
0.0010778777
1.8484856e-05
0.0010779198
1.8920808e-05
0.0010779625
1.9374333e-05
0.0010780058
1.9842616e-05
0.0010780496
2.0320287e-05
0.0010780933
2.0803348e-05
0.0010781367
2.1290988e-05
0.0010781791
2.1782448e-05
0.0010782204
2.2280007e-05
0.0010782606
2.2788558e-05
0.0010782999
2.3311854e-05
0.0010783385
2.3852807e-05
0.0010783766
2.4411741e-05
0.0010784142
2.4991107e-05
0.0010784514
2.5595258e-05
0.0010784881
2.6229898e-05
0.0010785247
2.6901154e-05
0.0010785626
2.7614199e-05
0.001078602
2.8359523e-05
0.0010786401
2.9105243e-05
0.0010786686
2.9827594e-05
0.001078672
3.0535061e-05
0.0010786193
3.1251826e-05
0.0010784546
3.1993874e-05
0.0010780707
3.2760242e-05
0.0010773164
3.354296e-05
0.0010760453
3.4310105e-05
0.0010741549
3.5012318e-05
0.0010716325
3.5591273e-05
0.0010685477
3.6001566e-05
0.0010650058
3.6241389e-05
0.001061114
3.6324401e-05
0.0010569562
3.6281543e-05
0.0010525896
3.6148592e-05
0.0010480565
3.5947017e-05
0.0010433944
3.5687157e-05
0.0010386372
3.5379009e-05
0.0010338128
3.5032717e-05
0.001028944
3.4655858e-05
0.00102405
3.4255858e-05
0.0010191469
3.3838048e-05
0.0010142486
3.3405841e-05
0.0010093663
3.2964295e-05
0.0010045095
3.251617e-05
0.00099968643
3.2063368e-05
0.00099490347
3.1609445e-05
0.0009901662
3.1155319e-05
0.00098547919
3.0702287e-05
0.00098084599
3.0253838e-05
0.00097626984
2.9806715e-05
0.0009717533
2.9362531e-05
0.00096729784
2.8929869e-05
0.00096290403
2.8504487e-05
0.00095857598
2.7878511e-05
0.00095429044
2.5777636e-05
0.00095005023
2.3742892e-05
0.0009458838
2.3428603e-05
0.00094178904
2.3559181e-05
0.00093776909
2.3802091e-05
0.00093382336
2.3950087e-05
0.000929948
2.3995572e-05
0.00092613646
2.3954874e-05
0.00092238339
2.3838747e-05
0.00091867893
2.3714835e-05
0.00091503081
2.3481309e-05
0.0009113786
2.3657673e-05
0.00090788861
2.2876739e-05
0.00090360554
2.7597837e-05
2.054335e-05
0.0011101054
5.59735e-06
-0.0011100437
0.001110268
6.7847957e-06
0.0011104909
7.8843565e-06
0.0011107255
8.7999132e-06
0.0011109539
9.5696396e-06
0.0011111789
1.0266996e-05
0.0011114007
1.0915238e-05
0.0011116165
1.1506402e-05
0.0011118263
1.2040661e-05
0.0011120319
1.2524813e-05
0.0011122319
1.2954183e-05
0.0011124239
1.3318705e-05
0.0011126037
1.3608996e-05
0.0011127661
1.3821385e-05
0.0011129066
1.3963184e-05
0.0011130229
1.4053685e-05
0.0011131162
1.4123748e-05
0.0011131918
1.4204225e-05
0.0011132531
1.431154e-05
0.0011133063
1.4466834e-05
0.0011133562
1.4669418e-05
0.0011134033
1.4906141e-05
0.0011134498
1.5179573e-05
0.0011134969
1.5482864e-05
0.0011135444
1.5807957e-05
0.0011135924
1.6149897e-05
0.0011136403
1.6503999e-05
0.0011136874
1.6867205e-05
0.0011137336
1.7240237e-05
0.0011137788
1.7625283e-05
0.0011138229
1.8024455e-05
0.0011138665
1.8441203e-05
0.0011139103
1.8877029e-05
0.0011139545
1.9330128e-05
0.0011139994
1.9797738e-05
0.0011140446
2.0275033e-05
0.0011140898
2.0758173e-05
0.0011141346
2.1246214e-05
0.0011141784
2.1738597e-05
0.0011142211
2.2237359e-05
0.0011142626
2.2747027e-05
0.0011143032
2.3271282e-05
0.0011143431
2.3812933e-05
0.0011143822
2.437258e-05
0.0011144208
2.4952549e-05
0.001114459
2.5557072e-05
0.0011144971
2.6191711e-05
0.001114536
2.6862325e-05
0.001114577
2.7573152e-05
0.0011146215
2.8315022e-05
0.0011146679
2.9058915e-05
0.0011147131
2.9782334e-05
0.0011147557
3.0492443e-05
0.0011147951
3.1212464e-05
0.0011148301
3.1958882e-05
0.0011148549
3.273543e-05
0.001114853
3.3544822e-05
0.0011147865
3.4376597e-05
0.0011145804
3.5218481e-05
0.0011141032
3.6068493e-05
0.001113192
3.6912718e-05
0.0011117058
3.7727574e-05
0.0011095809
3.8449355e-05
0.0011068508