/*--------------------------------*- C++ -*----------------------------------*\
  =========                 |
  \\      /  F ield         | OpenFOAM: The Open Source CFD Toolbox
   \\    /   O peration     | Website:  https://openfoam.org
    \\  /    A nd           | Version:  12
     \\/     M anipulation  |
\*---------------------------------------------------------------------------*/
FoamFile
{
    format      ascii;
    class       volVectorField;
    location    "800";
    object      wallShearStress;
}
// * * * * * * * * * * * * * * * * * * * * * * * * * * * * * * * * * * * * * //

dimensions      [0 2 -2 0 0 0 0];

internalField   uniform (0 0 0);

boundaryField
{
    bottom
    {
        type            calculated;
        value           nonuniform List<vector> 
112
(
(-0.0057106379 -3.5177024e-05 0)
(-0.0028820521 -3.8448543e-07 -1.8590794e-17)
(-0.0025779392 -8.3835863e-08 -5.1683651e-19)
(-0.0024782525 -1.8575827e-08 -9.9226765e-19)
(-0.0024150019 -1.3135815e-08 0)
(-0.0023620938 -1.1151983e-08 0)
(-0.0023155328 -9.7783567e-09 0)
(-0.0022740771 -8.6603014e-09 0)
(-0.002236824 -7.746726e-09 0)
(-0.002202974 -6.9992308e-09 -7.4612054e-19)
(-0.002171931 -6.373421e-09 0)
(-0.0021432681 -5.8374104e-09 -6.2223416e-19)
(-0.0021166618 -5.3716265e-09 5.7258153e-19)
(-0.0020918506 -4.9632374e-09 -5.2904871e-19)
(-0.0020686186 -4.602452e-09 0)
(-0.0020467859 -4.2815e-09 4.5637846e-19)
(-0.0020262009 -3.9942431e-09 0)
(-0.002006735 -3.7359547e-09 -1.991128e-19)
(-0.0019882752 -3.5028701e-09 0)
(-0.001970724 -3.2915548e-09 -3.5085507e-19)
(-0.0019539966 -3.0993826e-09 3.3036962e-19)
(-0.0019380173 -2.9238169e-09 0)
(-0.0019227227 -2.7627778e-09 0)
(-0.0019080543 -2.6149687e-09 0)
(-0.001893959 -2.4786688e-09 -2.6420592e-19)
(-0.0018803928 -2.3525047e-09 0)
(-0.0018673143 -2.2357937e-09 0)
(-0.0018546847 -2.1274831e-09 0)
(-0.0018424711 -2.0264941e-09 0)
(-0.0018306444 -1.9323147e-09 -2.0597027e-19)
(-0.0018191756 -1.8445006e-09 1.9660854e-19)
(-0.0018080385 -1.7622038e-09 0)
(-0.001797212 -1.6848286e-09 0)
(-0.0017866754 -1.6122364e-09 0)
(-0.0017764076 -1.5440736e-09 1.6458554e-19)
(-0.0017663905 -1.4797198e-09 0)
(-0.0017566092 -1.4188162e-09 0)
(-0.001747049 -1.3613296e-09 -1.451075e-19)
(-0.0017376941 -1.3070656e-09 0)
(-0.0017285308 -1.2555482e-09 0)
(-0.0017195485 -1.2065067e-09 0)
(-0.0017107363 -1.1599553e-09 1.236426e-19)
(-0.0017020825 -1.1157841e-09 -5.9466858e-20)
(-0.0016935762 -1.0737117e-09 1.1444897e-19)
(-0.0016852088 -1.033495e-09 0)
(-0.0016769723 -9.9506613e-10 0)
(-0.0016688582 -9.5841632e-10 -1.5323988e-19)
(-0.0016608576 -9.2344858e-10 0)
(-0.0016529627 -8.8991283e-10 9.4857644e-20)
(-0.0016451677 -8.5768161e-10 0)
(-0.0016374662 -8.2679638e-10 0)
(-0.0016298511 -7.9721904e-10 -4.2488621e-20)
(-0.0016223156 -7.6882478e-10 -4.0975213e-20)
(-0.0016148539 -7.4146304e-10 0)
(-0.0016074615 -7.1508419e-10 -7.6222638e-20)
(-0.0016001329 -6.8971515e-10 0)
(-0.0015928622 -6.6533481e-10 0)
(-0.0015856436 -6.4181991e-10 0)
(-0.0015784728 -6.1906751e-10 0)
(-0.0015713458 -5.9708414e-10 0)
(-0.0015642576 -5.7588501e-10 0)
(-0.0015572027 -5.5544475e-10 0)
(-0.0015501762 -5.3565261e-10 0)
(-0.0015431746 -5.1644394e-10 0)
(-0.0015361938 -4.9785528e-10 -5.3067498e-20)
(-0.0015292288 -4.7989088e-10 0)
(-0.0015222745 -4.6250413e-10 -2.4649567e-20)
(-0.0015153266 -4.4562016e-10 0)
(-0.0015083812 -4.2920897e-10 -2.2875175e-20)
(-0.0015014343 -4.1330334e-10 4.4054828e-20)
(-0.0014944803 -3.9791014e-10 4.2413903e-20)
(-0.001487514 -3.8295654e-10 -2.0410003e-20)
(-0.0014805314 -3.6839086e-10 0)
(-0.0014735282 -3.5424092e-10 0)
(-0.0014664988 -3.4052292e-10 3.6296936e-20)
(-0.0014594372 -3.2720077e-10 -3.4876831e-20)
(-0.001452338 -3.1422239e-10 0)
(-0.0014451965 -3.0158147e-10 0)
(-0.0014380067 -2.8930265e-10 -3.0837253e-20)
(-0.0014307614 -2.7736939e-10 0)
(-0.0014234543 -2.6573293e-10 0)
(-0.0014160793 -2.5438708e-10 0)
(-0.0014086291 -2.4335709e-10 0)
(-0.0014010948 -2.3262213e-10 0)
(-0.0013934686 -2.221437e-10 0)
(-0.0013857423 -2.1192735e-10 0)
(-0.001377906 -2.019939e-10 0)
(-0.0013699478 -1.9228837e-10 2.0496236e-20)
(-0.0013618597 -1.8287143e-10 -1.9492557e-20)
(-0.0013538067 -1.7397273e-10 0)
(-0.0013460434 -1.6570638e-10 0)
(-0.0013386437 -1.5806343e-10 0)
(-0.0013315797 -1.5101499e-10 0)
(-0.001324825 -1.4452078e-10 0)
(-0.0013183553 -1.385135e-10 0)
(-0.0013121502 -1.3293251e-10 0)
(-0.0013061912 -1.2775199e-10 0)
(-0.0013004603 -1.2294838e-10 -1.310509e-20)
(-0.0012949408 -1.1847241e-10 0)
(-0.0012896194 -1.1428221e-10 0)
(-0.0012844835 -1.1036372e-10 0)
(-0.0012795206 -1.0670743e-10 0)
(-0.0012747192 -1.0330605e-10 0)
(-0.0012700677 -1.0012778e-10 0)
(-0.0012655572 -9.7198887e-11 0)
(-0.0012611736 -9.4440242e-11 0)
(-0.0012569157 -9.2240526e-11 0)
(-0.0012527333 -8.9818747e-11 0)
(-0.0012486979 -9.0032252e-11 0)
(-0.0012444937 -1.5447945e-10 0)
(-0.0012408493 -1.0569041e-10 -1.1350507e-20)
(-0.0012347706 -1.2060142e-10 0)
)
;
    }
    back
    {
        type            empty;
    }
    front
    {
        type            empty;
    }
    inlet
    {
        type            calculated;
        value           uniform (0 0 0);
    }
    outlet
    {
        type            calculated;
        value           uniform (0 0 0);
    }
    top
    {
        type            calculated;
        value           uniform (0 0 0);
    }
    slipsurface
    {
        type            calculated;
        value           uniform (0 0 0);
    }
}


// ************************************************************************* //
