# Selection     : all 
# Volume        : 5.16250000e-02
# Time          	max(p)	location	cell	processor	max(kl)	location	cell	processor	max(kt)	location	cell	processor	max(omega)	location	cell	processor	max(nut)	location	cell	processor
0               	0.00000000e+00	(5.55420652e-01 1.01701236e-05 5.00000000e-02)	0	3	1.00000000e-01	(5.55420652e-01 1.01701236e-05 5.00000000e-02)	0	3	1.00000000e-01	(5.55420652e-01 1.01701236e-05 5.00000000e-02)	0	3	2.40000000e+01	(5.55420652e-01 1.01701236e-05 5.00000000e-02)	0	3	0.00000000e+00	(5.55420652e-01 1.01701236e-05 5.00000000e-02)	0	3
1               	2.88814440e+00	(2.99912419e-05 1.01701236e-05 5.00000000e-02)	3675	1	1.00410932e-01	(2.88500438e+00 5.33941767e-05 5.00000000e-02)	476	3	9.99857414e-02	(-5.75404224e-03 3.11366197e-05 5.00000000e-02)	50	1	1.16018912e+07	(1.16356603e-01 1.01701236e-05 5.00000000e-02)	12	2	6.29360533e-04	(3.57203511e-01 3.78891055e-02 5.00000000e-02)	12678	2
2               	4.39767503e+00	(2.99912419e-05 1.01701236e-05 5.00000000e-02)	3675	1	1.00063243e-01	(2.66080727e-02 3.11366197e-05 5.00000000e-02)	200	0	1.06181909e-01	(-3.19474650e-05 1.02105369e-04 5.00000000e-02)	174	1	1.16018912e+07	(1.16356603e-01 1.01701236e-05 5.00000000e-02)	12	2	7.29116194e-04	(2.88500438e+00 1.69914938e-01 5.00000000e-02)	16694	3
3               	4.83933466e+00	(2.99912419e-05 1.01701236e-05 5.00000000e-02)	3675	1	9.99970428e-02	(-3.19474650e-05 1.02105369e-04 5.00000000e-02)	174	1	1.00203753e-01	(2.12770039e-04 2.18863888e-04 5.00000000e-02)	4670	1	1.16018912e+07	(1.16356603e-01 1.01701236e-05 5.00000000e-02)	12	2	7.33594668e-04	(2.88500438e+00 1.69914938e-01 5.00000000e-02)	16694	3
4               	5.02756255e+00	(2.99912419e-05 1.01701236e-05 5.00000000e-02)	3675	1	9.99034517e-02	(6.32530294e-03 1.01701236e-05 5.00000000e-02)	3746	1	1.01314926e-01	(2.99912419e-05 1.28732992e-04 5.00000000e-02)	4295	1	1.16018912e+07	(1.16356603e-01 1.01701236e-05 5.00000000e-02)	12	2	7.04568454e-04	(2.88500438e+00 1.41974667e-01 5.00000000e-02)	16217	3
5               	5.08457034e+00	(-3.19474650e-05 1.01701236e-05 5.00000000e-02)	34	1	9.98448970e-02	(6.45125187e-03 1.01701236e-05 5.00000000e-02)	3747	1	9.99118125e-02	(-5.75404224e-03 3.11366197e-05 5.00000000e-02)	50	1	1.16018912e+07	(1.16356603e-01 1.01701236e-05 5.00000000e-02)	12	2	6.71614523e-04	(2.88500438e+00 6.51105205e-02 5.00000000e-02)	14150	3
6               	5.20881501e+00	(-3.19474650e-05 1.01701236e-05 5.00000000e-02)	34	1	9.98334633e-02	(-4.68052535e-02 1.69914938e-01 5.00000000e-02)	3640	1	1.01429018e-01	(-3.19474650e-05 1.02105369e-04 5.00000000e-02)	174	1	1.16018912e+07	(1.16356603e-01 1.01701236e-05 5.00000000e-02)	12	2	6.72502402e-04	(2.88500438e+00 9.93442535e-03 5.00000000e-02)	9221	3
7               	5.27893854e+00	(-3.19474650e-05 1.01701236e-05 5.00000000e-02)	34	1	9.98316136e-02	(-4.68052535e-02 2.11597538e-03 5.00000000e-02)	1155	1	9.98670365e-02	(-5.75404224e-03 1.01701236e-05 5.00000000e-02)	15	1	1.16018912e+07	(1.16356603e-01 1.01701236e-05 5.00000000e-02)	12	2	6.73914151e-04	(2.88500438e+00 9.93442535e-03 5.00000000e-02)	9221	3
8               	5.31743226e+00	(-3.19474650e-05 1.01701236e-05 5.00000000e-02)	34	1	9.98316663e-02	(-4.68052535e-02 1.84040904e-03 5.00000000e-02)	1085	1	1.00094508e-01	(-3.19474650e-05 1.02105369e-04 5.00000000e-02)	174	1	1.16018912e+07	(1.16356603e-01 1.01701236e-05 5.00000000e-02)	12	2	6.73293254e-04	(2.88500438e+00 9.33901361e-03 5.00000000e-02)	9062	3
9               	5.33605227e+00	(-3.19474650e-05 1.01701236e-05 5.00000000e-02)	34	1	9.98316446e-02	(-4.68052535e-02 1.48415378e-03 5.00000000e-02)	980	1	9.98178703e-02	(-4.96935452e-03 1.01701236e-05 5.00000000e-02)	16	1	1.16018912e+07	(1.16356603e-01 1.01701236e-05 5.00000000e-02)	12	2	6.70446065e-04	(2.88500438e+00 9.33901361e-03 5.00000000e-02)	9062	3
10              	5.34381598e+00	(-3.19474650e-05 1.01701236e-05 5.00000000e-02)	34	1	9.98316073e-02	(-4.68052535e-02 1.37890429e-03 5.00000000e-02)	945	1	9.97917837e-02	(-4.96935452e-03 1.01701236e-05 5.00000000e-02)	16	1	1.16018912e+07	(1.16356603e-01 1.01701236e-05 5.00000000e-02)	12	2	6.65410068e-04	(2.88500438e+00 9.33901361e-03 5.00000000e-02)	9062	3
11              	5.34431808e+00	(-3.19474650e-05 1.01701236e-05 5.00000000e-02)	34	1	9.98315666e-02	(-4.68052535e-02 1.27975985e-03 5.00000000e-02)	910	1	9.97644811e-02	(-4.96935452e-03 1.01701236e-05 5.00000000e-02)	16	1	1.16018912e+07	(1.16356603e-01 1.01701236e-05 5.00000000e-02)	12	2	6.58288950e-04	(2.88500438e+00 9.93442535e-03 5.00000000e-02)	9221	3
12              	5.34091064e+00	(-3.19474650e-05 1.01701236e-05 5.00000000e-02)	34	1	9.98315337e-02	(-4.68052535e-02 1.18636634e-03 5.00000000e-02)	875	1	9.97359059e-02	(-4.96935452e-03 1.01701236e-05 5.00000000e-02)	16	1	1.16018912e+07	(1.16356603e-01 1.01701236e-05 5.00000000e-02)	12	2	6.49410641e-04	(2.88500438e+00 9.93442535e-03 5.00000000e-02)	9221	3
13              	5.33508903e+00	(-3.19474650e-05 1.01701236e-05 5.00000000e-02)	34	1	9.98343144e-02	(2.30647071e-03 1.01701236e-05 5.00000000e-02)	3707	1	9.97059889e-02	(-4.96935452e-03 1.01701236e-05 5.00000000e-02)	16	1	1.16018912e+07	(1.16356603e-01 1.01701236e-05 5.00000000e-02)	12	2	6.38775329e-04	(2.88500438e+00 9.93442535e-03 5.00000000e-02)	9221	3
14              	5.32849539e+00	(-3.19474650e-05 1.01701236e-05 5.00000000e-02)	34	1	9.98423679e-02	(2.56121894e-03 1.01701236e-05 5.00000000e-02)	3710	1	9.96746436e-02	(-4.96935452e-03 1.01701236e-05 5.00000000e-02)	16	1	1.16018912e+07	(1.16356603e-01 1.01701236e-05 5.00000000e-02)	12	2	6.27484807e-04	(6.96832048e-03 1.69914938e-01 5.00000000e-02)	16647	1
15              	5.32161173e+00	(-3.19474650e-05 1.01701236e-05 5.00000000e-02)	34	1	9.98495669e-02	(2.82402089e-03 1.01701236e-05 5.00000000e-02)	3713	1	9.96417887e-02	(-4.96935452e-03 1.01701236e-05 5.00000000e-02)	16	1	1.16018912e+07	(1.16356603e-01 1.01701236e-05 5.00000000e-02)	12	2	6.26945200e-04	(7.64557481e-03 1.69914938e-01 5.00000000e-02)	16652	1
16              	5.31491193e+00	(-3.19474650e-05 1.01701236e-05 5.00000000e-02)	34	1	9.98560042e-02	(3.18739268e-03 1.01701236e-05 5.00000000e-02)	3717	1	9.96073287e-02	(-4.96935452e-03 1.01701236e-05 5.00000000e-02)	16	1	1.16018912e+07	(1.16356603e-01 1.01701236e-05 5.00000000e-02)	12	2	6.26557409e-04	(-3.55937670e-02 1.01701236e-05 5.00000000e-02)	2	1
17              	5.30850905e+00	(-3.19474650e-05 1.01701236e-05 5.00000000e-02)	34	1	9.98617570e-02	(3.46999071e-03 1.01701236e-05 5.00000000e-02)	3720	1	9.95711505e-02	(-4.96935452e-03 1.01701236e-05 5.00000000e-02)	16	1	1.16018912e+07	(1.16356603e-01 1.01701236e-05 5.00000000e-02)	12	2	6.26138797e-04	(-3.55937670e-02 1.01701236e-05 5.00000000e-02)	2	1
18              	5.30250028e+00	(-3.19474650e-05 1.01701236e-05 5.00000000e-02)	34	1	9.98668409e-02	(3.76152289e-03 1.01701236e-05 5.00000000e-02)	3723	1	9.95331337e-02	(-4.96935452e-03 1.01701236e-05 5.00000000e-02)	16	1	1.16018912e+07	(1.16356603e-01 1.01701236e-05 5.00000000e-02)	12	2	6.25649303e-04	(-3.55937670e-02 1.01701236e-05 5.00000000e-02)	2	1
19              	5.29687353e+00	(-3.19474650e-05 1.01701236e-05 5.00000000e-02)	34	1	9.98714001e-02	(4.16461950e-03 1.01701236e-05 5.00000000e-02)	3727	1	9.94931475e-02	(-4.96935452e-03 1.01701236e-05 5.00000000e-02)	16	1	1.16018912e+07	(1.16356603e-01 1.01701236e-05 5.00000000e-02)	12	2	6.25083760e-04	(-3.55937670e-02 1.01701236e-05 5.00000000e-02)	2	1
20              	5.29160926e+00	(-3.19474650e-05 1.01701236e-05 5.00000000e-02)	34	1	9.98754399e-02	(4.47811192e-03 1.01701236e-05 5.00000000e-02)	3730	1	9.94510523e-02	(-4.96935452e-03 1.01701236e-05 5.00000000e-02)	16	1	1.16018912e+07	(1.16356603e-01 1.01701236e-05 5.00000000e-02)	12	2	6.24437494e-04	(-3.55937670e-02 1.01701236e-05 5.00000000e-02)	2	1
21              	5.28666653e+00	(-3.19474650e-05 1.01701236e-05 5.00000000e-02)	34	1	9.98790494e-02	(4.91157259e-03 1.01701236e-05 5.00000000e-02)	3734	1	9.94067011e-02	(-4.96935452e-03 1.01701236e-05 5.00000000e-02)	16	1	1.16018912e+07	(1.16356603e-01 1.01701236e-05 5.00000000e-02)	12	2	6.23706271e-04	(-3.55937670e-02 1.01701236e-05 5.00000000e-02)	2	1
22              	5.28200786e+00	(-3.19474650e-05 1.01701236e-05 5.00000000e-02)	34	1	9.98822792e-02	(5.24867946e-03 1.01701236e-05 5.00000000e-02)	3737	1	9.93599433e-02	(-4.96935452e-03 1.01701236e-05 5.00000000e-02)	16	1	1.16018912e+07	(1.16356603e-01 1.01701236e-05 5.00000000e-02)	12	2	6.22886595e-04	(-3.55937670e-02 1.01701236e-05 5.00000000e-02)	2	1
23              	5.27759368e+00	(-3.19474650e-05 1.01701236e-05 5.00000000e-02)	34	1	9.98851606e-02	(5.71479142e-03 1.01701236e-05 5.00000000e-02)	3741	1	9.93106270e-02	(-4.96935452e-03 1.01701236e-05 5.00000000e-02)	16	1	1.16018912e+07	(1.16356603e-01 1.01701236e-05 5.00000000e-02)	12	2	6.22143214e-04	(-3.10291668e-02 1.01701236e-05 5.00000000e-02)	3	1
24              	5.27339852e+00	(-3.19474650e-05 1.01701236e-05 5.00000000e-02)	34	1	9.98877682e-02	(6.07729154e-03 1.01701236e-05 5.00000000e-02)	3744	1	9.92586025e-02	(-4.96935452e-03 1.01701236e-05 5.00000000e-02)	16	1	1.16018912e+07	(1.16356603e-01 1.01701236e-05 5.00000000e-02)	12	2	6.21436260e-04	(-3.10291668e-02 1.01701236e-05 5.00000000e-02)	3	1
25              	5.26939723e+00	(-3.19474650e-05 1.01701236e-05 5.00000000e-02)	34	1	9.98901023e-02	(6.45125187e-03 1.01701236e-05 5.00000000e-02)	3747	1	9.92037255e-02	(-4.96935452e-03 1.01701236e-05 5.00000000e-02)	16	1	1.16018912e+07	(1.16356603e-01 1.01701236e-05 5.00000000e-02)	12	2	6.20664436e-04	(-3.10291668e-02 1.01701236e-05 5.00000000e-02)	3	1
26              	5.26556697e+00	(-3.19474650e-05 1.01701236e-05 5.00000000e-02)	34	1	9.98922256e-02	(6.96832048e-03 1.01701236e-05 5.00000000e-02)	3751	1	9.91458598e-02	(-4.96935452e-03 1.01701236e-05 5.00000000e-02)	16	1	1.16018912e+07	(1.16356603e-01 1.01701236e-05 5.00000000e-02)	12	2	6.19826901e-04	(-3.10291668e-02 1.01701236e-05 5.00000000e-02)	3	1
27              	5.26189118e+00	(-3.19474650e-05 1.01701236e-05 5.00000000e-02)	34	1	9.98941464e-02	(7.37045012e-03 1.01701236e-05 5.00000000e-02)	3754	1	9.90848825e-02	(-4.96935452e-03 1.01701236e-05 5.00000000e-02)	16	1	1.16018912e+07	(1.16356603e-01 1.01701236e-05 5.00000000e-02)	12	2	6.18923322e-04	(-3.10291668e-02 1.01701236e-05 5.00000000e-02)	3	1
28              	5.25838457e+00	(-3.19474650e-05 1.01701236e-05 5.00000000e-02)	34	1	9.98958977e-02	(7.92646796e-03 1.01701236e-05 5.00000000e-02)	3758	1	9.90206830e-02	(-4.96935452e-03 1.01701236e-05 5.00000000e-02)	16	1	1.16018912e+07	(1.16356603e-01 1.01701236e-05 5.00000000e-02)	12	2	6.17953622e-04	(-3.10291668e-02 1.01701236e-05 5.00000000e-02)	3	1
29              	5.25498276e+00	(-3.19474650e-05 1.01701236e-05 5.00000000e-02)	34	1	9.98975052e-02	(8.35888882e-03 1.01701236e-05 5.00000000e-02)	3761	1	9.89541842e-02	(-4.28406620e-03 1.01701236e-05 5.00000000e-02)	17	1	1.16018912e+07	(1.16356603e-01 1.01701236e-05 5.00000000e-02)	12	2	6.16918352e-04	(-3.10291668e-02 1.01701236e-05 5.00000000e-02)	3	1
30              	5.25170925e+00	(-3.19474650e-05 1.01701236e-05 5.00000000e-02)	34	1	9.98989740e-02	(8.80498039e-03 1.01701236e-05 5.00000000e-02)	3764	1	9.88844985e-02	(-4.28406620e-03 1.01701236e-05 5.00000000e-02)	17	1	1.16018912e+07	(1.16356603e-01 1.01701236e-05 5.00000000e-02)	12	2	6.15818364e-04	(-3.10291668e-02 1.01701236e-05 5.00000000e-02)	3	1
31              	5.24856539e+00	(-3.19474650e-05 1.01701236e-05 5.00000000e-02)	34	1	9.99003426e-02	(9.42178365e-03 1.01701236e-05 5.00000000e-02)	3768	1	9.88113916e-02	(-4.28406620e-03 1.01701236e-05 5.00000000e-02)	17	1	1.16018912e+07	(1.16356603e-01 1.01701236e-05 5.00000000e-02)	12	2	6.14654858e-04	(-3.10291668e-02 1.01701236e-05 5.00000000e-02)	3	1
32              	5.24555061e+00	(-3.19474650e-05 1.01701236e-05 5.00000000e-02)	34	1	9.99016087e-02	(9.90147795e-03 1.01701236e-05 5.00000000e-02)	3771	1	9.87348009e-02	(-4.28406620e-03 1.01701236e-05 5.00000000e-02)	17	1	1.16018912e+07	(1.16356603e-01 1.01701236e-05 5.00000000e-02)	12	2	6.13429309e-04	(-3.10291668e-02 1.01701236e-05 5.00000000e-02)	3	1
33              	5.24266774e+00	(-3.19474650e-05 1.01701236e-05 5.00000000e-02)	34	1	9.99027918e-02	(1.05647431e-02 1.01701236e-05 5.00000000e-02)	3775	1	9.86546873e-02	(-4.28406620e-03 1.01701236e-05 5.00000000e-02)	17	1	1.16018912e+07	(1.16356603e-01 1.01701236e-05 5.00000000e-02)	12	2	6.12143423e-04	(-3.10291668e-02 1.01701236e-05 5.00000000e-02)	3	1
34              	5.23992100e+00	(-3.19474650e-05 1.01701236e-05 5.00000000e-02)	34	1	9.99039056e-02	(1.10805714e-02 1.01701236e-05 5.00000000e-02)	3778	1	9.85710367e-02	(-4.28406620e-03 1.01701236e-05 5.00000000e-02)	17	1	1.16018912e+07	(1.16356603e-01 1.01701236e-05 5.00000000e-02)	12	2	6.10931472e-04	(-2.70427821e-02 1.01701236e-05 5.00000000e-02)	4	1
35              	5.23731961e+00	(-3.19474650e-05 1.01701236e-05 5.00000000e-02)	34	1	9.99049534e-02	(1.16127072e-02 1.01701236e-05 5.00000000e-02)	3781	1	9.84838546e-02	(-4.28406620e-03 1.01701236e-05 5.00000000e-02)	17	1	1.16018912e+07	(1.16356603e-01 1.01701236e-05 5.00000000e-02)	12	2	6.09770218e-04	(-2.70427821e-02 1.01701236e-05 5.00000000e-02)	4	1
36              	5.23486988e+00	(-3.19474650e-05 1.01701236e-05 5.00000000e-02)	34	1	9.99059581e-02	(1.23484824e-02 1.01701236e-05 5.00000000e-02)	3785	1	9.83931494e-02	(-4.28406620e-03 1.01701236e-05 5.00000000e-02)	17	1	1.16018912e+07	(1.16356603e-01 1.01701236e-05 5.00000000e-02)	12	2	6.08565017e-04	(-2.70427821e-02 1.01701236e-05 5.00000000e-02)	4	1
37              	5.23257814e+00	(-3.19474650e-05 1.01701236e-05 5.00000000e-02)	34	1	9.99069159e-02	(1.29207024e-02 1.01701236e-05 5.00000000e-02)	3788	1	9.82989444e-02	(-4.28406620e-03 1.01701236e-05 5.00000000e-02)	17	1	1.16018912e+07	(1.16356603e-01 1.01701236e-05 5.00000000e-02)	12	2	6.07317475e-04	(-2.70427821e-02 1.01701236e-05 5.00000000e-02)	4	1
38              	5.23045179e+00	(-3.19474650e-05 1.01701236e-05 5.00000000e-02)	34	1	9.99078398e-02	(1.37119013e-02 1.01701236e-05 5.00000000e-02)	3792	1	9.82012767e-02	(-4.28406620e-03 1.01701236e-05 5.00000000e-02)	17	1	1.16018912e+07	(1.16356603e-01 1.01701236e-05 5.00000000e-02)	12	2	6.06029232e-04	(-2.70427821e-02 1.01701236e-05 5.00000000e-02)	4	1
39              	5.22849942e+00	(-3.19474650e-05 1.01701236e-05 5.00000000e-02)	34	1	9.99087373e-02	(1.43272250e-02 1.01701236e-05 5.00000000e-02)	3795	1	9.81001956e-02	(-4.28406620e-03 1.01701236e-05 5.00000000e-02)	17	1	1.16018912e+07	(1.16356603e-01 1.01701236e-05 5.00000000e-02)	12	2	6.04701931e-04	(-2.70427821e-02 1.01701236e-05 5.00000000e-02)	4	1
40              	5.22672940e+00	(-3.19474650e-05 1.01701236e-05 5.00000000e-02)	34	1	9.99096138e-02	(1.51780225e-02 1.01701236e-05 5.00000000e-02)	0	0	9.79957466e-02	(-4.28406620e-03 1.01701236e-05 5.00000000e-02)	17	1	1.16018912e+07	(1.16356603e-01 1.01701236e-05 5.00000000e-02)	12	2	6.03337198e-04	(-2.70427821e-02 1.01701236e-05 5.00000000e-02)	4	1
41              	5.22514843e+00	(-3.19474650e-05 1.01701236e-05 5.00000000e-02)	34	1	9.99104791e-02	(1.58396967e-02 1.01701236e-05 5.00000000e-02)	3	0	9.78879887e-02	(-4.28406620e-03 1.01701236e-05 5.00000000e-02)	17	1	1.16018912e+07	(1.16356603e-01 1.01701236e-05 5.00000000e-02)	12	2	6.01936618e-04	(-2.70427821e-02 1.01701236e-05 5.00000000e-02)	4	1
42              	5.22376470e+00	(-3.19474650e-05 1.01701236e-05 5.00000000e-02)	34	1	9.99113350e-02	(1.67545823e-02 1.01701236e-05 5.00000000e-02)	7	0	9.77770094e-02	(-4.28406620e-03 1.01701236e-05 5.00000000e-02)	17	1	1.16018912e+07	(1.16356603e-01 1.01701236e-05 5.00000000e-02)	12	2	6.00501873e-04	(-2.70427821e-02 1.01701236e-05 5.00000000e-02)	4	1
43              	5.22258910e+00	(-3.19474650e-05 1.01701236e-05 5.00000000e-02)	34	1	9.99121893e-02	(1.74660983e-02 1.01701236e-05 5.00000000e-02)	10	0	9.76628972e-02	(-4.28406620e-03 1.01701236e-05 5.00000000e-02)	17	1	1.16018912e+07	(1.16356603e-01 1.01701236e-05 5.00000000e-02)	12	2	5.99034304e-04	(-2.70427821e-02 1.01701236e-05 5.00000000e-02)	4	1
44              	5.22162509e+00	(-3.19474650e-05 1.01701236e-05 5.00000000e-02)	34	1	9.99130502e-02	(1.84498995e-02 1.01701236e-05 5.00000000e-02)	14	0	9.75457448e-02	(-4.28406620e-03 1.01701236e-05 5.00000000e-02)	17	1	1.16018912e+07	(1.16356603e-01 1.01701236e-05 5.00000000e-02)	12	2	5.97535395e-04	(-2.70427821e-02 1.01701236e-05 5.00000000e-02)	4	1
45              	5.22088135e+00	(-3.19474650e-05 1.01701236e-05 5.00000000e-02)	34	1	1.00488026e-01	(2.03681807e-01 1.18636634e-03 5.00000000e-02)	4039	2	9.74256483e-02	(-4.28406620e-03 1.01701236e-05 5.00000000e-02)	17	1	1.16018912e+07	(1.16356603e-01 1.01701236e-05 5.00000000e-02)	12	2	5.96006510e-04	(-2.70427821e-02 1.01701236e-05 5.00000000e-02)	4	1
46              	5.22036398e+00	(-3.19474650e-05 1.01701236e-05 5.00000000e-02)	34	1	1.01918181e-01	(2.10302908e-01 1.18636634e-03 5.00000000e-02)	4042	2	9.73027071e-02	(-4.28406620e-03 1.01701236e-05 5.00000000e-02)	17	1	1.16018912e+07	(1.16356603e-01 1.01701236e-05 5.00000000e-02)	12	2	5.94565353e-04	(-2.35613680e-02 1.01701236e-05 5.00000000e-02)	5	1
47              	5.22007916e+00	(-3.19474650e-05 1.01701236e-05 5.00000000e-02)	34	1	1.03380293e-01	(2.14832860e-01 1.18636634e-03 5.00000000e-02)	4044	2	9.71770225e-02	(-4.28406620e-03 1.01701236e-05 5.00000000e-02)	17	1	1.16018912e+07	(1.16356603e-01 1.01701236e-05 5.00000000e-02)	12	2	5.93181356e-04	(-2.35613680e-02 1.01701236e-05 5.00000000e-02)	5	1
48              	5.22003358e+00	(-3.19474650e-05 1.01701236e-05 5.00000000e-02)	34	1	1.04885330e-01	(2.19457791e-01 1.18636634e-03 5.00000000e-02)	4046	2	9.70486968e-02	(-4.28406620e-03 1.01701236e-05 5.00000000e-02)	17	1	1.16018912e+07	(1.16356603e-01 1.01701236e-05 5.00000000e-02)	12	2	5.91774190e-04	(-2.35613680e-02 1.01701236e-05 5.00000000e-02)	5	1
49              	5.22022121e+00	(-3.19474650e-05 1.01701236e-05 5.00000000e-02)	34	1	1.06474364e-01	(2.60124415e-01 1.27975985e-03 5.00000000e-02)	4221	2	9.69178339e-02	(-4.28406620e-03 1.01701236e-05 5.00000000e-02)	17	1	1.16018912e+07	(1.16356603e-01 1.01701236e-05 5.00000000e-02)	12	2	5.90344860e-04	(-2.35613680e-02 1.01701236e-05 5.00000000e-02)	5	1
50              	5.22065887e+00	(-3.19474650e-05 1.01701236e-05 5.00000000e-02)	34	1	1.08199715e-01	(2.65698962e-01 1.27975985e-03 5.00000000e-02)	4223	2	9.67847568e-02	(-3.68558598e-03 1.01701236e-05 5.00000000e-02)	18	1	1.16018912e+07	(1.16356603e-01 1.01701236e-05 5.00000000e-02)	12	2	5.88894018e-04	(-2.35613680e-02 1.01701236e-05 5.00000000e-02)	5	1
51              	5.22134852e+00	(-3.19474650e-05 1.01701236e-05 5.00000000e-02)	34	1	1.09952636e-01	(2.71390388e-01 1.27975985e-03 5.00000000e-02)	4225	2	9.66497186e-02	(-3.68558598e-03 1.01701236e-05 5.00000000e-02)	18	1	1.16018912e+07	(1.16356603e-01 1.01701236e-05 5.00000000e-02)	12	2	5.87422299e-04	(-2.35613680e-02 1.01701236e-05 5.00000000e-02)	5	1
52              	5.22229109e+00	(-3.19474650e-05 1.01701236e-05 5.00000000e-02)	34	1	1.11730310e-01	(2.74280695e-01 1.27975985e-03 5.00000000e-02)	4226	2	9.65124705e-02	(-3.68558598e-03 1.01701236e-05 5.00000000e-02)	18	1	1.16018912e+07	(1.16356603e-01 1.01701236e-05 5.00000000e-02)	12	2	5.85930298e-04	(-2.35613680e-02 1.01701236e-05 5.00000000e-02)	5	1
53              	5.22348617e+00	(-3.19474650e-05 1.01701236e-05 5.00000000e-02)	34	1	1.13530986e-01	(2.80152052e-01 1.27975985e-03 5.00000000e-02)	4228	2	9.63730968e-02	(-3.68558598e-03 1.01701236e-05 5.00000000e-02)	18	1	1.16018912e+07	(1.16356603e-01 1.01701236e-05 5.00000000e-02)	12	2	5.84418567e-04	(-2.35613680e-02 1.01701236e-05 5.00000000e-02)	5	1
54              	5.22493329e+00	(-3.19474650e-05 1.01701236e-05 5.00000000e-02)	34	1	1.15351369e-01	(2.83133734e-01 1.27975985e-03 5.00000000e-02)	4229	2	9.62316902e-02	(-3.68558598e-03 1.01701236e-05 5.00000000e-02)	18	1	1.16018912e+07	(1.16356603e-01 1.01701236e-05 5.00000000e-02)	12	2	5.82887616e-04	(-2.35613680e-02 1.01701236e-05 5.00000000e-02)	5	1
55              	5.22662976e+00	(-3.19474650e-05 1.01701236e-05 5.00000000e-02)	34	1	1.17194232e-01	(2.89190711e-01 1.27975985e-03 5.00000000e-02)	4231	2	9.60883440e-02	(-3.68558598e-03 1.01701236e-05 5.00000000e-02)	18	1	1.16018912e+07	(1.16356603e-01 1.01701236e-05 5.00000000e-02)	12	2	5.81337908e-04	(-2.35613680e-02 1.01701236e-05 5.00000000e-02)	5	1
56              	5.22857087e+00	(-3.19474650e-05 1.01701236e-05 5.00000000e-02)	34	1	1.19044416e-01	(2.92266657e-01 1.27975985e-03 5.00000000e-02)	4232	2	9.59431498e-02	(-3.68558598e-03 1.01701236e-05 5.00000000e-02)	18	1	1.16018912e+07	(1.16356603e-01 1.01701236e-05 5.00000000e-02)	12	2	5.79769899e-04	(-2.35613680e-02 1.01701236e-05 5.00000000e-02)	5	1
57              	5.23075784e+00	(-3.19474650e-05 1.01701236e-05 5.00000000e-02)	34	1	1.20901263e-01	(2.95374682e-01 1.27975985e-03 5.00000000e-02)	4233	2	9.57961975e-02	(-3.68558598e-03 1.01701236e-05 5.00000000e-02)	18	1	1.16018912e+07	(1.16356603e-01 1.01701236e-05 5.00000000e-02)	12	2	5.78183976e-04	(-2.35613680e-02 1.01701236e-05 5.00000000e-02)	5	1
58              	5.23317928e+00	(-3.19474650e-05 1.01701236e-05 5.00000000e-02)	34	1	1.22762070e-01	(2.98515121e-01 1.27975985e-03 5.00000000e-02)	4234	2	9.56475746e-02	(-3.68558598e-03 1.01701236e-05 5.00000000e-02)	18	1	1.16018912e+07	(1.16356603e-01 1.01701236e-05 5.00000000e-02)	12	2	5.76580498e-04	(-2.35613680e-02 1.01701236e-05 5.00000000e-02)	5	1
59              	5.23582806e+00	(-3.19474650e-05 1.01701236e-05 5.00000000e-02)	34	1	1.24621996e-01	(3.01688311e-01 1.27975985e-03 5.00000000e-02)	4235	2	9.54973660e-02	(-3.68558598e-03 1.01701236e-05 5.00000000e-02)	18	1	1.16018912e+07	(1.16356603e-01 1.01701236e-05 5.00000000e-02)	12	2	5.74959807e-04	(-2.35613680e-02 1.01701236e-05 5.00000000e-02)	5	1
60              	5.23869611e+00	(-3.19474650e-05 1.01701236e-05 5.00000000e-02)	34	1	1.26465645e-01	(3.08134316e-01 1.27975985e-03 5.00000000e-02)	4237	2	9.53456536e-02	(-3.68558598e-03 1.01701236e-05 5.00000000e-02)	18	1	1.16018912e+07	(1.16356603e-01 1.01701236e-05 5.00000000e-02)	12	2	5.73484493e-04	(-2.05209579e-02 1.01701236e-05 5.00000000e-02)	6	1
61              	5.24177297e+00	(-3.19474650e-05 1.01701236e-05 5.00000000e-02)	34	1	1.28283269e-01	(3.11407825e-01 1.27975985e-03 5.00000000e-02)	4238	2	9.51925164e-02	(-3.68558598e-03 1.01701236e-05 5.00000000e-02)	18	1	1.16018912e+07	(1.16356603e-01 1.01701236e-05 5.00000000e-02)	12	2	5.71995676e-04	(-2.05209579e-02 1.01701236e-05 5.00000000e-02)	6	1
62              	5.24504897e+00	(-3.19474650e-05 1.01701236e-05 5.00000000e-02)	34	1	1.30070453e-01	(3.14715473e-01 1.27975985e-03 5.00000000e-02)	4239	2	9.50380307e-02	(-3.68558598e-03 1.01701236e-05 5.00000000e-02)	18	1	1.16018912e+07	(1.16356603e-01 1.01701236e-05 5.00000000e-02)	12	2	5.70491367e-04	(-2.05209579e-02 1.01701236e-05 5.00000000e-02)	6	1
63              	5.24851386e+00	(-3.19474650e-05 1.01701236e-05 5.00000000e-02)	34	1	1.31822217e-01	(3.18057616e-01 1.27975985e-03 5.00000000e-02)	4240	2	9.48822698e-02	(-3.68558598e-03 1.01701236e-05 5.00000000e-02)	18	1	1.16018912e+07	(1.16356603e-01 1.01701236e-05 5.00000000e-02)	12	2	5.68971766e-04	(-2.05209579e-02 1.01701236e-05 5.00000000e-02)	6	1
64              	5.25215552e+00	(-3.19474650e-05 1.01701236e-05 5.00000000e-02)	34	1	1.33532859e-01	(3.21434614e-01 1.27975985e-03 5.00000000e-02)	4241	2	9.47253039e-02	(-3.68558598e-03 1.01701236e-05 5.00000000e-02)	18	1	1.16018912e+07	(1.16356603e-01 1.01701236e-05 5.00000000e-02)	12	2	5.67437091e-04	(-2.05209579e-02 1.01701236e-05 5.00000000e-02)	6	1
65              	5.25596317e+00	(-3.19474650e-05 1.01701236e-05 5.00000000e-02)	34	1	1.35196135e-01	(3.24846832e-01 1.27975985e-03 5.00000000e-02)	4242	2	9.45672000e-02	(-3.68558598e-03 1.01701236e-05 5.00000000e-02)	18	1	1.16018912e+07	(1.16356603e-01 1.01701236e-05 5.00000000e-02)	12	2	5.65887542e-04	(-2.05209579e-02 1.01701236e-05 5.00000000e-02)	6	1
66              	5.25992161e+00	(-3.19474650e-05 1.01701236e-05 5.00000000e-02)	34	1	1.36805379e-01	(3.28294635e-01 1.27975985e-03 5.00000000e-02)	4243	2	9.44080224e-02	(-3.68558598e-03 1.01701236e-05 5.00000000e-02)	18	1	1.16018912e+07	(1.16356603e-01 1.01701236e-05 5.00000000e-02)	12	2	5.64323335e-04	(-2.05209579e-02 1.01701236e-05 5.00000000e-02)	6	1
67              	5.26402275e+00	(-3.19474650e-05 1.01701236e-05 5.00000000e-02)	34	1	1.38354432e-01	(3.28294635e-01 1.27975985e-03 5.00000000e-02)	4243	2	9.42478318e-02	(-3.68558598e-03 1.01701236e-05 5.00000000e-02)	18	1	1.16018912e+07	(1.16356603e-01 1.01701236e-05 5.00000000e-02)	12	2	5.62744654e-04	(-2.05209579e-02 1.01701236e-05 5.00000000e-02)	6	1
68              	5.26825878e+00	(-3.19474650e-05 1.01701236e-05 5.00000000e-02)	34	1	1.39833435e-01	(3.31778395e-01 1.27975985e-03 5.00000000e-02)	4244	2	9.40866866e-02	(-3.68558598e-03 1.01701236e-05 5.00000000e-02)	18	1	1.16018912e+07	(1.16356603e-01 1.01701236e-05 5.00000000e-02)	12	2	5.61151736e-04	(-2.05209579e-02 1.01701236e-05 5.00000000e-02)	6	1
69              	5.27262079e+00	(-3.19474650e-05 1.01701236e-05 5.00000000e-02)	34	1	1.41213803e-01	(3.35298487e-01 1.27975985e-03 5.00000000e-02)	4245	2	9.39246419e-02	(-3.68558598e-03 1.01701236e-05 5.00000000e-02)	18	1	1.16018912e+07	(1.16356603e-01 1.01701236e-05 5.00000000e-02)	12	2	5.59544780e-04	(-2.05209579e-02 1.01701236e-05 5.00000000e-02)	6	1
70              	5.27710260e+00	(-3.19474650e-05 1.01701236e-05 5.00000000e-02)	34	1	1.42486114e-01	(3.35298487e-01 1.27975985e-03 5.00000000e-02)	4245	2	9.37617500e-02	(-3.68558598e-03 1.01701236e-05 5.00000000e-02)	18	1	1.16018912e+07	(1.16356603e-01 1.01701236e-05 5.00000000e-02)	12	2	5.57924025e-04	(-2.05209579e-02 1.01701236e-05 5.00000000e-02)	6	1
71              	5.28169685e+00	(-3.19474650e-05 1.01701236e-05 5.00000000e-02)	34	1	1.43644076e-01	(3.38855290e-01 1.27975985e-03 5.00000000e-02)	4246	2	9.35980605e-02	(-3.68558598e-03 1.01701236e-05 5.00000000e-02)	18	1	1.16018912e+07	(1.16356603e-01 1.01701236e-05 5.00000000e-02)	12	2	5.56289688e-04	(-2.05209579e-02 1.01701236e-05 5.00000000e-02)	6	1
72              	5.28640017e+00	(-3.19474650e-05 1.01701236e-05 5.00000000e-02)	34	1	1.44682222e-01	(3.38855290e-01 1.27975985e-03 5.00000000e-02)	4246	2	9.38422475e-02	(2.88500438e+00 1.97407676e-03 5.00000000e-02)	5246	3	1.16018912e+07	(1.16356603e-01 1.01701236e-05 5.00000000e-02)	12	2	5.54642004e-04	(-2.05209579e-02 1.01701236e-05 5.00000000e-02)	6	1
73              	5.29120777e+00	(-3.19474650e-05 1.01701236e-05 5.00000000e-02)	34	1	1.45595384e-01	(3.42449187e-01 1.27975985e-03 5.00000000e-02)	4247	2	9.74492788e-02	(2.88500438e+00 1.97407676e-03 5.00000000e-02)	5246	3	1.16018912e+07	(1.16356603e-01 1.01701236e-05 5.00000000e-02)	12	2	5.52981217e-04	(-2.05209579e-02 1.01701236e-05 5.00000000e-02)	6	1
74              	5.29611915e+00	(-3.19474650e-05 1.01701236e-05 5.00000000e-02)	34	1	1.46369658e-01	(3.42449187e-01 1.27975985e-03 5.00000000e-02)	4247	2	1.01205599e-01	(2.88500438e+00 1.97407676e-03 5.00000000e-02)	5246	3	1.16018912e+07	(1.16356603e-01 1.01701236e-05 5.00000000e-02)	12	2	5.51307556e-04	(-2.05209579e-02 1.01701236e-05 5.00000000e-02)	6	1
75              	5.30113203e+00	(-3.19474650e-05 1.01701236e-05 5.00000000e-02)	34	1	1.46984230e-01	(3.42449187e-01 1.27975985e-03 5.00000000e-02)	4247	2	1.05109680e-01	(2.88500438e+00 1.97407676e-03 5.00000000e-02)	5246	3	1.16018912e+07	(1.16356603e-01 1.01701236e-05 5.00000000e-02)	12	2	5.49621271e-04	(-2.05209579e-02 1.01701236e-05 5.00000000e-02)	6	1
76              	5.30624938e+00	(-3.19474650e-05 1.01701236e-05 5.00000000e-02)	34	1	1.47606833e-01	(3.24846832e-01 1.18636634e-03 5.00000000e-02)	4083	2	1.09254710e-01	(2.88500438e+00 1.84040904e-03 5.00000000e-02)	5087	3	1.16018912e+07	(1.16356603e-01 1.01701236e-05 5.00000000e-02)	12	2	5.47924017e-04	(-1.78656883e-02 1.01701236e-05 5.00000000e-02)	7	1
77              	5.31147214e+00	(-3.19474650e-05 1.01701236e-05 5.00000000e-02)	34	1	1.48082105e-01	(3.24846832e-01 1.18636634e-03 5.00000000e-02)	4083	2	1.13601878e-01	(2.88500438e+00 1.84040904e-03 5.00000000e-02)	5087	3	1.16018912e+07	(1.16356603e-01 1.01701236e-05 5.00000000e-02)	12	2	5.46346311e-04	(-1.78656883e-02 1.01701236e-05 5.00000000e-02)	7	1
78              	5.31680254e+00	(-3.19474650e-05 1.01701236e-05 5.00000000e-02)	34	1	1.48396214e-01	(3.24846832e-01 1.18636634e-03 5.00000000e-02)	4083	2	1.18093468e-01	(2.88500438e+00 1.84040904e-03 5.00000000e-02)	5087	3	1.16018912e+07	(1.16356603e-01 1.01701236e-05 5.00000000e-02)	12	2	5.44757076e-04	(-1.78656883e-02 1.01701236e-05 5.00000000e-02)	7	1
79              	5.32224426e+00	(-3.19474650e-05 1.01701236e-05 5.00000000e-02)	34	1	1.48525017e-01	(3.24846832e-01 1.18636634e-03 5.00000000e-02)	4083	2	1.22721432e-01	(2.88500438e+00 1.84040904e-03 5.00000000e-02)	5087	3	1.16018912e+07	(1.16356603e-01 1.01701236e-05 5.00000000e-02)	12	2	5.43156576e-04	(-1.78656883e-02 1.01701236e-05 5.00000000e-02)	7	1
80              	5.32780093e+00	(-3.19474650e-05 1.01701236e-05 5.00000000e-02)	34	1	1.48458760e-01	(3.24846832e-01 1.18636634e-03 5.00000000e-02)	4083	2	1.27475975e-01	(2.88500438e+00 1.84040904e-03 5.00000000e-02)	5087	3	1.16018912e+07	(1.16356603e-01 1.01701236e-05 5.00000000e-02)	12	2	5.41545077e-04	(-1.78656883e-02 1.01701236e-05 5.00000000e-02)	7	1
81              	5.33347682e+00	(-3.19474650e-05 1.01701236e-05 5.00000000e-02)	34	1	1.48196438e-01	(3.24846832e-01 1.18636634e-03 5.00000000e-02)	4083	2	1.32369894e-01	(2.88500438e+00 1.71449479e-03 5.00000000e-02)	4928	3	1.16018912e+07	(1.16356603e-01 1.01701236e-05 5.00000000e-02)	12	2	5.39922849e-04	(-1.78656883e-02 1.01701236e-05 5.00000000e-02)	7	1
82              	5.33927664e+00	(-3.19474650e-05 1.01701236e-05 5.00000000e-02)	34	1	1.47744640e-01	(3.21434614e-01 1.18636634e-03 5.00000000e-02)	4082	2	1.37547057e-01	(2.88500438e+00 1.71449479e-03 5.00000000e-02)	4928	3	1.16018912e+07	(1.16356603e-01 1.01701236e-05 5.00000000e-02)	12	2	5.38290162e-04	(-1.78656883e-02 1.01701236e-05 5.00000000e-02)	7	1