# Selection     : all 
# Volume        : 5.16250000e-02
# Time          	max(p)	location	cell	processor	max(U)	max(k)	location	cell	processor	max(omega)	location	cell	processor	max(nut)	location	cell	processor	max(ReThetat)	location	cell	processor	max(gammaInt)	location	cell	processor
0               	0.00000000e+00	(5.55420652e-01 1.01701236e-05 5.00000000e-02)	0	3	(5.40000000e+00 0.00000000e+00 0.00000000e+00)	5.00000000e-02	(5.55420652e-01 1.01701236e-05 5.00000000e-02)	0	3	2.65000000e+02	(5.55420652e-01 1.01701236e-05 5.00000000e-02)	0	3	1.88679245e-04	(5.55420652e-01 1.01701236e-05 5.00000000e-02)	0	3	1.60990000e+02	(5.55420652e-01 1.01701236e-05 5.00000000e-02)	0	3	1.00000000e+00	(5.55420652e-01 1.01701236e-05 5.00000000e-02)	0	3
1               	5.27828660e+00	(2.99912419e-05 1.01701236e-05 5.00000000e-02)	3675	1	(5.42535968e+00 1.91418214e-01 3.76605016e-19)	3.20803055e-01	(2.99912419e-05 1.01701236e-05 5.00000000e-02)	3675	1	1.16018912e+07	(1.16356603e-01 1.01701236e-05 5.00000000e-02)	12	2	2.34469917e-04	(2.88500438e+00 1.69914938e-01 5.00000000e-02)	16694	3	1.64515649e+02	(2.88500438e+00 1.69914938e-01 5.00000000e-02)	16694	3	1.00000000e+00	(2.88500438e+00 4.68072781e-03 5.00000000e-02)	7313	3
2               	6.59271103e+00	(2.99912419e-05 1.01701236e-05 5.00000000e-02)	3675	1	(5.47937655e+00 5.25130370e-01 5.07702131e-19)	5.65991453e-02	(9.02865036e-05 3.11366197e-05 5.00000000e-02)	3800	1	1.16018912e+07	(1.16356603e-01 1.01701236e-05 5.00000000e-02)	12	2	2.52962709e-04	(2.88500438e+00 1.69914938e-01 5.00000000e-02)	16694	3	1.90776457e+02	(2.88500438e+00 1.69914938e-01 5.00000000e-02)	16694	3	1.00000000e+00	(1.14334852e-02 4.53931371e-02 5.00000000e-02)	13948	1
3               	6.01799904e+00	(-3.19474650e-05 1.01701236e-05 5.00000000e-02)	34	1	(5.50484636e+00 5.74970951e-01 4.18238877e-19)	5.19592731e-02	(9.02865036e-05 1.57000272e-04 5.00000000e-02)	4420	1	1.16018912e+07	(1.16356603e-01 1.01701236e-05 5.00000000e-02)	12	2	2.58729573e-04	(2.88500438e+00 1.69914938e-01 5.00000000e-02)	16694	3	2.18982347e+02	(2.88500438e+00 1.69914938e-01 5.00000000e-02)	16694	3	1.00280536e+00	(-2.68795547e-04 1.01701236e-05 5.00000000e-02)	31	1
4               	5.72237121e+00	(-3.19474650e-05 1.01701236e-05 5.00000000e-02)	34	1	(5.51800559e+00 6.12447898e-01 2.68811279e-19)	5.19131974e-02	(1.51210583e-04 1.57000272e-04 5.00000000e-02)	4421	1	1.16018912e+07	(1.16356603e-01 1.01701236e-05 5.00000000e-02)	12	2	2.58420033e-04	(2.88500438e+00 1.69914938e-01 5.00000000e-02)	16694	3	2.45614022e+02	(2.88500438e+00 1.69914938e-01 5.00000000e-02)	16694	3	1.00092246e+00	(-1.78945070e-04 1.01701236e-05 5.00000000e-02)	32	1
5               	5.59057638e+00	(-3.19474650e-05 1.01701236e-05 5.00000000e-02)	34	1	(5.52392571e+00 6.27732925e-01 1.97292881e-19)	5.21318581e-02	(2.74971497e-04 2.18863888e-04 5.00000000e-02)	4671	1	1.16018912e+07	(1.16356603e-01 1.01701236e-05 5.00000000e-02)	12	2	2.55073003e-04	(2.88500438e+00 1.69914938e-01 5.00000000e-02)	16694	3	2.70517844e+02	(2.88500438e+00 1.69914938e-01 5.00000000e-02)	16694	3	1.00677847e+00	(-1.00476297e-04 1.01701236e-05 5.00000000e-02)	33	1
6               	5.52684492e+00	(-3.19474650e-05 1.01701236e-05 5.00000000e-02)	34	1	(5.52497139e+00 6.36837357e-01 1.68342045e-19)	5.22086068e-02	(4.65495188e-04 2.88580868e-04 5.00000000e-02)	4922	1	1.16018912e+07	(1.16356603e-01 1.01701236e-05 5.00000000e-02)	12	2	2.50692492e-04	(2.88500438e+00 7.34180011e-02 5.00000000e-02)	14468	3	2.94036901e+02	(2.88500438e+00 1.69914938e-01 5.00000000e-02)	16694	3	1.00012698e+00	(3.37821652e-04 4.10096419e-04 5.00000000e-02)	5292	1
7               	5.49256922e+00	(-3.19474650e-05 1.01701236e-05 5.00000000e-02)	34	1	(5.52367694e+00 6.43026235e-01 1.49649942e-19)	5.22912177e-02	(5.95845619e-04 3.26691153e-04 5.00000000e-02)	5048	1	1.16018912e+07	(1.16356603e-01 1.01701236e-05 5.00000000e-02)	12	2	2.46582977e-04	(2.88500438e+00 5.43705160e-02 5.00000000e-02)	13673	3	3.16478681e+02	(2.88500438e+00 1.69914938e-01 5.00000000e-02)	16694	3	1.00107109e+00	(-1.00476297e-04 7.70222945e-05 5.00000000e-02)	138	1
8               	5.46865881e+00	(-3.19474650e-05 1.01701236e-05 5.00000000e-02)	34	1	(5.52077581e+00 6.47335514e-01 1.44541858e-19)	5.23598128e-02	(5.30332311e-04 3.26691153e-04 5.00000000e-02)	5047	1	1.16018912e+07	(1.16356603e-01 1.01701236e-05 5.00000000e-02)	12	2	2.42554684e-04	(2.88500438e+00 4.53931371e-02 5.00000000e-02)	13196	3	3.38057832e+02	(2.88500438e+00 1.69914938e-01 5.00000000e-02)	16694	3	1.00005568e+00	(1.51210583e-04 2.88580868e-04 5.00000000e-02)	4917	1
9               	5.44910858e+00	(-3.19474650e-05 1.01701236e-05 5.00000000e-02)	34	1	(5.51627296e+00 6.50094281e-01 1.40648072e-19)	5.24171055e-02	(4.65495188e-04 2.88580868e-04 5.00000000e-02)	4922	1	1.16018912e+07	(1.16356603e-01 1.01701236e-05 5.00000000e-02)	12	2	2.44566898e-04	(2.88500438e+00 1.62259029e-02 5.00000000e-02)	10493	3	3.58916633e+02	(2.88500438e+00 1.69914938e-01 5.00000000e-02)	16694	3	1.00018013e+00	(-1.00476297e-04 1.02105369e-04 5.00000000e-02)	173	1
10              	5.43141871e+00	(-3.19474650e-05 1.01701236e-05 5.00000000e-02)	34	1	(5.51279720e+00 6.51787759e-01 1.38699361e-19)	5.24558644e-02	(4.65495188e-04 2.88580868e-04 5.00000000e-02)	4922	1	1.16018912e+07	(1.16356603e-01 1.01701236e-05 5.00000000e-02)	12	2	2.46722798e-04	(2.88500438e+00 1.52655508e-02 5.00000000e-02)	10334	3	3.79146884e+02	(2.88500438e+00 1.69914938e-01 5.00000000e-02)	16694	3	1.00000612e+00	(2.99912419e-05 2.52681188e-04 5.00000000e-02)	4791	1
11              	5.41524558e+00	(-3.19474650e-05 1.01701236e-05 5.00000000e-02)	34	1	(5.50961721e+00 6.52651803e-01 1.37122461e-19)	5.24559825e-02	(4.65495188e-04 2.88580868e-04 5.00000000e-02)	4922	1	1.16018912e+07	(1.16356603e-01 1.01701236e-05 5.00000000e-02)	12	2	2.48420863e-04	(2.88500438e+00 1.52655508e-02 5.00000000e-02)	10334	3	3.98804998e+02	(2.88500438e+00 1.69914938e-01 5.00000000e-02)	16694	3	1.00000934e+00	(-1.78945070e-04 1.02105369e-04 5.00000000e-02)	172	1
12              	5.40076828e+00	(-3.19474650e-05 1.01701236e-05 5.00000000e-02)	34	1	(5.50716767e+00 6.53088998e-01 1.36220194e-19)	5.24669339e-02	(9.02865036e-05 1.57000272e-04 5.00000000e-02)	4420	1	1.16018912e+07	(1.16356603e-01 1.01701236e-05 5.00000000e-02)	12	2	2.49719195e-04	(2.88500438e+00 1.52655508e-02 5.00000000e-02)	10334	3	4.23709319e+02	(2.88500438e+00 1.69914938e-01 5.00000000e-02)	16694	3	1.00000063e+00	(1.51210583e-04 3.67148169e-04 5.00000000e-02)	5165	1
13              	5.38800100e+00	(-3.19474650e-05 1.01701236e-05 5.00000000e-02)	34	1	(5.50449856e+00 6.53308833e-01 1.35643146e-19)	5.24765933e-02	(2.99912419e-05 1.28732992e-04 5.00000000e-02)	4295	1	1.16018912e+07	(1.16356603e-01 1.01701236e-05 5.00000000e-02)	12	2	2.50655314e-04	(2.88500438e+00 1.52655508e-02 5.00000000e-02)	10334	3	4.48813295e+02	(2.88500438e+00 1.69914938e-01 5.00000000e-02)	16694	3	1.00000006e+00	(-2.68795547e-04 1.28732992e-04 5.00000000e-02)	206	1
14              	5.37683047e+00	(-3.19474650e-05 1.01701236e-05 5.00000000e-02)	34	1	(5.50227865e+00 6.53387583e-01 1.35231433e-19)	5.24865121e-02	(2.99912419e-05 1.28732992e-04 5.00000000e-02)	4295	1	1.16018912e+07	(1.16356603e-01 1.01701236e-05 5.00000000e-02)	12	2	2.51255309e-04	(2.88500438e+00 1.52655508e-02 5.00000000e-02)	10334	3	4.71565117e+02	(2.88500438e+00 1.69914938e-01 5.00000000e-02)	16694	3	1.00000050e+00	(-3.19474650e-05 2.52681188e-04 5.00000000e-02)	349	1
15              	5.36711810e+00	(-3.19474650e-05 1.01701236e-05 5.00000000e-02)	34	1	(5.49992939e+00 6.53364693e-01 1.35322767e-19)	5.24852379e-02	(2.99912419e-05 1.28732992e-04 5.00000000e-02)	4295	1	1.16018912e+07	(1.16356603e-01 1.01701236e-05 5.00000000e-02)	12	2	2.51537647e-04	(2.88500438e+00 1.52655508e-02 5.00000000e-02)	10334	3	4.91772720e+02	(2.88500438e+00 1.69914938e-01 5.00000000e-02)	16694	3	1.00000002e+00	(9.02865036e-05 4.10096419e-04 5.00000000e-02)	5288	1
16              	5.35868003e+00	(-3.19474650e-05 1.01701236e-05 5.00000000e-02)	34	1	(5.49769936e+00 6.53267348e-01 1.35519925e-19)	5.24804641e-02	(2.99912419e-05 1.28732992e-04 5.00000000e-02)	4295	1	1.16018912e+07	(1.16356603e-01 1.01701236e-05 5.00000000e-02)	12	2	2.51513176e-04	(2.88500438e+00 1.52655508e-02 5.00000000e-02)	10334	3	5.09689444e+02	(2.88500438e+00 1.69914938e-01 5.00000000e-02)	16694	3	1.00000001e+00	(-1.00476297e-04 2.88580868e-04 5.00000000e-02)	383	1
17              	5.35131592e+00	(-3.19474650e-05 1.01701236e-05 5.00000000e-02)	34	1	(5.49580085e+00 6.53118903e-01 1.35710842e-19)	5.24682639e-02	(2.99912419e-05 1.28732992e-04 5.00000000e-02)	4295	1	1.16018912e+07	(1.16356603e-01 1.01701236e-05 5.00000000e-02)	12	2	2.51191673e-04	(2.88500438e+00 1.52655508e-02 5.00000000e-02)	10334	3	5.25611625e+02	(2.88500438e+00 1.69914938e-01 5.00000000e-02)	16694	3	1.00000000e+00	(-1.00476297e-04 4.10096419e-04 5.00000000e-02)	488	1
18              	5.34484612e+00	(-3.19474650e-05 1.01701236e-05 5.00000000e-02)	34	1	(5.49388473e+00 6.52936901e-01 1.35875145e-19)	5.24508736e-02	(2.99912419e-05 1.28732992e-04 5.00000000e-02)	4295	1	1.16018912e+07	(1.16356603e-01 1.01701236e-05 5.00000000e-02)	12	2	2.50580299e-04	(2.88500438e+00 1.52655508e-02 5.00000000e-02)	10334	3	5.39802390e+02	(2.88500438e+00 1.69914938e-01 5.00000000e-02)	16694	3	1.00000000e+00	(-1.78945070e-04 3.26691153e-04 5.00000000e-02)	417	1
19              	5.33910229e+00	(-3.19474650e-05 1.01701236e-05 5.00000000e-02)	34	1	(5.49213374e+00 6.52733166e-01 1.36011156e-19)	5.24274957e-02	(2.99912419e-05 1.28732992e-04 5.00000000e-02)	4295	1	1.16018912e+07	(1.16356603e-01 1.01701236e-05 5.00000000e-02)	12	2	2.49687197e-04	(2.88500438e+00 1.52655508e-02 5.00000000e-02)	10334	3	5.52485075e+02	(2.88500438e+00 1.69914938e-01 5.00000000e-02)	16694	3	1.00000000e+00	(-3.19474650e-05 3.67148169e-04 5.00000000e-02)	454	1
20              	5.33395250e+00	(-3.19474650e-05 1.01701236e-05 5.00000000e-02)	34	1	(5.49056752e+00 6.52503795e-01 1.36120159e-19)	5.23985506e-02	(2.99912419e-05 1.28732992e-04 5.00000000e-02)	4295	1	1.16018912e+07	(1.16356603e-01 1.01701236e-05 5.00000000e-02)	12	2	2.48520290e-04	(2.88500438e+00 1.52655508e-02 5.00000000e-02)	10334	3	5.63847573e+02	(2.88500438e+00 1.69914938e-01 5.00000000e-02)	16694	3	1.00000000e+00	(1.51210583e-04 6.10015059e-04 5.00000000e-02)	5785	1
21              	5.32929051e+00	(-3.19474650e-05 1.01701236e-05 5.00000000e-02)	34	1	(5.48900829e+00 6.52267808e-01 1.36204025e-19)	5.23644867e-02	(2.99912419e-05 1.28732992e-04 5.00000000e-02)	4295	1	1.16018912e+07	(1.16356603e-01 1.01701236e-05 5.00000000e-02)	12	2	2.47088039e-04	(2.88500438e+00 1.52655508e-02 5.00000000e-02)	10334	3	5.74048868e+02	(2.88500438e+00 1.69914938e-01 5.00000000e-02)	16694	3	1.00000000e+00	(-1.00476297e-04 3.67148169e-04 5.00000000e-02)	453	1
22              	5.32505260e+00	(-3.19474650e-05 1.01701236e-05 5.00000000e-02)	34	1	(5.48748932e+00 6.52030316e-01 1.36268230e-19)	5.23257681e-02	(2.99912419e-05 1.28732992e-04 5.00000000e-02)	4295	1	1.16018912e+07	(1.16356603e-01 1.01701236e-05 5.00000000e-02)	12	2	2.45398095e-04	(2.88500438e+00 1.52655508e-02 5.00000000e-02)	10334	3	5.83224295e+02	(2.88500438e+00 1.69914938e-01 5.00000000e-02)	16694	3	1.00000000e+00	(-3.19474650e-05 6.10015059e-04 5.00000000e-02)	629	1
23              	5.32119261e+00	(-3.19474650e-05 1.01701236e-05 5.00000000e-02)	34	1	(5.48619237e+00 6.51794035e-01 1.36316572e-19)	5.22831849e-02	(2.99912419e-05 1.28732992e-04 5.00000000e-02)	4295	1	1.16018912e+07	(1.16356603e-01 1.01701236e-05 5.00000000e-02)	12	2	2.43460537e-04	(2.88500438e+00 1.52655508e-02 5.00000000e-02)	10334	3	5.91490067e+02	(2.88500438e+00 1.69914938e-01 5.00000000e-02)	16694	3	1.00000000e+00	(-1.78945070e-04 3.67148169e-04 5.00000000e-02)	452	1
24              	5.31766893e+00	(-3.19474650e-05 1.01701236e-05 5.00000000e-02)	34	1	(5.48489202e+00 6.51560735e-01 1.36352529e-19)	5.22372860e-02	(2.99912419e-05 1.28732992e-04 5.00000000e-02)	4295	1	1.16018912e+07	(1.16356603e-01 1.01701236e-05 5.00000000e-02)	12	2	2.41282648e-04	(2.88500438e+00 1.52655508e-02 5.00000000e-02)	10334	3	5.98946637e+02	(2.88500438e+00 1.69914938e-01 5.00000000e-02)	16694	3	1.00000000e+00	(2.31448820e-01 1.05220581e-01 5.00000000e-02)	15340	2
25              	5.31445347e+00	(-3.19474650e-05 1.01701236e-05 5.00000000e-02)	34	1	(5.48360845e+00 6.51331523e-01 1.36378501e-19)	5.21886317e-02	(2.99912419e-05 1.28732992e-04 5.00000000e-02)	4295	1	1.16018912e+07	(1.16356603e-01 1.01701236e-05 5.00000000e-02)	12	2	2.38876168e-04	(2.88500438e+00 1.52655508e-02 5.00000000e-02)	10334	3	6.05681343e+02	(2.88500438e+00 1.69914938e-01 5.00000000e-02)	16694	3	1.00000000e+00	(-2.68795547e-04 4.55689308e-04 5.00000000e-02)	521	1
26              	5.31152360e+00	(-3.19474650e-05 1.01701236e-05 5.00000000e-02)	34	1	(5.48234371e+00 6.51107032e-01 1.36396464e-19)	5.21376485e-02	(2.99912419e-05 1.28732992e-04 5.00000000e-02)	4295	1	1.16018912e+07	(1.16356603e-01 1.01701236e-05 5.00000000e-02)	12	2	2.36250163e-04	(2.88500438e+00 1.52655508e-02 5.00000000e-02)	10334	3	6.11770685e+02	(2.88500438e+00 1.69914938e-01 5.00000000e-02)	16694	3	1.00000000e+00	(-1.00476297e-04 5.55470428e-04 5.00000000e-02)	593	1
27              	5.30886410e+00	(-3.19474650e-05 1.01701236e-05 5.00000000e-02)	34	1	(5.48123420e+00 6.50887554e-01 1.36407705e-19)	5.20846308e-02	(2.99912419e-05 1.28732992e-04 5.00000000e-02)	4295	1	1.16018912e+07	(1.16356603e-01 1.01701236e-05 5.00000000e-02)	12	2	2.33417004e-04	(2.88500438e+00 1.52655508e-02 5.00000000e-02)	10334	3	6.17281725e+02	(2.88500438e+00 1.69914938e-01 5.00000000e-02)	16694	3	1.00000000e+00	(2.26577640e-01 1.05220581e-01 5.00000000e-02)	15338	2
28              	5.30646023e+00	(-3.19474650e-05 1.01701236e-05 5.00000000e-02)	34	1	(5.48013396e+00 6.50673242e-01 1.36413057e-19)	5.20298034e-02	(2.99912419e-05 1.28732992e-04 5.00000000e-02)	4295	1	1.16018912e+07	(1.16356603e-01 1.01701236e-05 5.00000000e-02)	12	2	2.30387770e-04	(2.88500438e+00 1.52655508e-02 5.00000000e-02)	10334	3	6.22273700e+02	(2.88500438e+00 1.69914938e-01 5.00000000e-02)	16694	3	1.00000000e+00	(2.44078299e-01 1.05220581e-01 5.00000000e-02)	15345	2
29              	5.30430430e+00	(-3.19474650e-05 1.01701236e-05 5.00000000e-02)	34	1	(5.47905234e+00 6.50464120e-01 1.36413052e-19)	5.19733744e-02	(2.99912419e-05 1.28732992e-04 5.00000000e-02)	4295	1	1.16018912e+07	(1.16356603e-01 1.01701236e-05 5.00000000e-02)	12	2	2.27287552e-04	(2.88500438e+00 1.62259029e-02 5.00000000e-02)	10493	3	6.26799058e+02	(2.88500438e+00 1.69914938e-01 5.00000000e-02)	16694	3	1.00000000e+00	(2.46683768e-01 1.05220581e-01 5.00000000e-02)	15346	2
30              	5.30238133e+00	(-3.19474650e-05 1.01701236e-05 5.00000000e-02)	34	1	(5.47799705e+00 6.50260135e-01 1.36408110e-19)	5.19155335e-02	(2.99912419e-05 1.28732992e-04 5.00000000e-02)	4295	1	1.16018912e+07	(1.16356603e-01 1.01701236e-05 5.00000000e-02)	12	2	2.24023457e-04	(2.88500438e+00 1.62259029e-02 5.00000000e-02)	10493	3	6.30904332e+02	(2.88500438e+00 1.69914938e-01 5.00000000e-02)	16694	3	1.00000000e+00	(2.49316411e-01 1.05220581e-01 5.00000000e-02)	15347	2
31              	5.30068504e+00	(-3.19474650e-05 1.01701236e-05 5.00000000e-02)	34	1	(5.47696892e+00 6.50061176e-01 1.36398601e-19)	5.18564567e-02	(2.99912419e-05 1.28732992e-04 5.00000000e-02)	4295	1	1.16018912e+07	(1.16356603e-01 1.01701236e-05 5.00000000e-02)	12	2	2.20608917e-04	(2.88500438e+00 1.62259029e-02 5.00000000e-02)	10493	3	6.34631155e+02	(2.88500438e+00 1.69914938e-01 5.00000000e-02)	16694	3	1.00000000e+00	(2.51976509e-01 1.05220581e-01 5.00000000e-02)	15348	2
32              	5.29920069e+00	(-3.19474650e-05 1.01701236e-05 5.00000000e-02)	34	1	(5.47601126e+00 6.49867177e-01 1.36384927e-19)	5.17962873e-02	(2.99912419e-05 1.28732992e-04 5.00000000e-02)	4295	1	1.16018912e+07	(1.16356603e-01 1.01701236e-05 5.00000000e-02)	12	2	2.17058226e-04	(2.88500438e+00 1.62259029e-02 5.00000000e-02)	10493	3	6.38016624e+02	(2.88500438e+00 1.69914938e-01 5.00000000e-02)	16694	3	1.00000000e+00	(-1.00476297e-04 6.10015059e-04 5.00000000e-02)	628	1
33              	5.29792555e+00	(-3.19474650e-05 1.01701236e-05 5.00000000e-02)	34	1	(5.47509219e+00 6.49678102e-01 1.36367496e-19)	5.17351100e-02	(2.99912419e-05 1.28732992e-04 5.00000000e-02)	4295	1	1.16018912e+07	(1.16356603e-01 1.01701236e-05 5.00000000e-02)	12	2	2.13386577e-04	(2.88500438e+00 1.62259029e-02 5.00000000e-02)	10493	3	6.41094099e+02	(2.88500438e+00 1.69914938e-01 5.00000000e-02)	16694	3	1.00000000e+00	(3.11407825e-01 1.05220581e-01 5.00000000e-02)	15368	2
34              	5.29685089e+00	(-3.19474650e-05 1.01701236e-05 5.00000000e-02)	34	1	(5.47419627e+00 6.49493919e-01 1.36346585e-19)	5.16730377e-02	(2.99912419e-05 1.28732992e-04 5.00000000e-02)	4295	1	1.16018912e+07	(1.16356603e-01 1.01701236e-05 5.00000000e-02)	12	2	2.09609676e-04	(2.88500438e+00 1.62259029e-02 5.00000000e-02)	10493	3	6.43894861e+02	(2.88500438e+00 1.60039776e-01 5.00000000e-02)	16535	3	1.00000000e+00	(3.46080565e-01 1.05220581e-01 5.00000000e-02)	15378	2
35              	5.29597035e+00	(-3.19474650e-05 1.01701236e-05 5.00000000e-02)	34	1	(5.47332401e+00 6.49314588e-01 1.36322636e-19)	5.16101907e-02	(2.99912419e-05 1.28732992e-04 5.00000000e-02)	4295	1	1.16018912e+07	(1.16356603e-01 1.01701236e-05 5.00000000e-02)	12	2	2.05743722e-04	(2.88500438e+00 1.62259029e-02 5.00000000e-02)	10493	3	6.46472055e+02	(2.88500438e+00 1.60039776e-01 5.00000000e-02)	16535	3	1.00000000e+00	(3.49749814e-01 1.05220581e-01 5.00000000e-02)	15379	2
36              	5.29527462e+00	(-3.19474650e-05 1.01701236e-05 5.00000000e-02)	34	1	(5.47247648e+00 6.49140058e-01 1.36296176e-19)	5.15466878e-02	(2.99912419e-05 1.28732992e-04 5.00000000e-02)	4295	1	1.16018912e+07	(1.16356603e-01 1.01701236e-05 5.00000000e-02)	12	2	2.01805266e-04	(2.88500438e+00 1.62259029e-02 5.00000000e-02)	10493	3	6.48820094e+02	(2.88500438e+00 1.60039776e-01 5.00000000e-02)	16535	3	1.00000000e+00	(3.57203511e-01 1.05220581e-01 5.00000000e-02)	15381	2
37              	5.29475917e+00	(-3.19474650e-05 1.01701236e-05 5.00000000e-02)	34	1	(5.47165411e+00 6.48970257e-01 1.36267726e-19)	5.14826388e-02	(2.99912419e-05 1.28732992e-04 5.00000000e-02)	4295	1	1.16018912e+07	(1.16356603e-01 1.01701236e-05 5.00000000e-02)	12	2	1.97882012e-04	(2.88500438e+00 1.72453908e-02 5.00000000e-02)	10652	3	6.50960691e+02	(2.88500438e+00 1.60039776e-01 5.00000000e-02)	16535	3	1.00000000e+00	(-3.19474650e-05 6.67918404e-04 5.00000000e-02)	664	1
38              	5.29442142e+00	(-3.19474650e-05 1.01701236e-05 5.00000000e-02)	34	1	(5.47085611e+00 6.48805101e-01 1.36237757e-19)	5.14181434e-02	(2.99912419e-05 1.28732992e-04 5.00000000e-02)	4295	1	1.16018912e+07	(1.16356603e-01 1.01701236e-05 5.00000000e-02)	12	2	1.95059822e-04	(2.97752058e-02 4.68072781e-03 5.00000000e-02)	7161	0	6.52912969e+02	(2.88500438e+00 1.60039776e-01 5.00000000e-02)	16535	3	1.00000000e+00	(5.55420652e-01 1.05220581e-01 5.00000000e-02)	15264	3
39              	5.29426907e+00	(-3.19474650e-05 1.01701236e-05 5.00000000e-02)	34	1	(5.47008752e+00 6.48644512e-01 1.36206703e-19)	5.13532924e-02	(2.99912419e-05 1.28732992e-04 5.00000000e-02)	4295	1	1.16018912e+07	(1.16356603e-01 1.01701236e-05 5.00000000e-02)	12	2	1.94775547e-04	(3.16667883e-02 4.68072781e-03 5.00000000e-02)	7166	0	6.54695346e+02	(2.88500438e+00 1.60039776e-01 5.00000000e-02)	16535	3	1.00000000e+00	(4.40899861e-01 1.05220581e-01 5.00000000e-02)	15401	2
40              	5.29430538e+00	(-3.19474650e-05 1.01701236e-05 5.00000000e-02)	34	1	(5.46934875e+00 6.48488366e-01 1.36174910e-19)	5.12881697e-02	(2.99912419e-05 1.28732992e-04 5.00000000e-02)	4295	1	1.16018912e+07	(1.16356603e-01 1.01701236e-05 5.00000000e-02)	12	2	1.94446375e-04	(3.32523160e-02 4.68072781e-03 5.00000000e-02)	7170	0	6.56323919e+02	(2.88500438e+00 1.60039776e-01 5.00000000e-02)	16535	3	1.00000000e+00	(4.09611788e-01 1.05220581e-01 5.00000000e-02)	15394	2
41              	5.29452514e+00	(-3.19474650e-05 1.01701236e-05 5.00000000e-02)	34	1	(5.46863091e+00 6.48336526e-01 1.36142686e-19)	5.12228554e-02	(2.99912419e-05 1.28732992e-04 5.00000000e-02)	4295	1	1.16018912e+07	(1.16356603e-01 1.01701236e-05 5.00000000e-02)	12	2	1.94086069e-04	(3.75163237e-02 4.98929477e-03 5.00000000e-02)	7338	0	6.57813106e+02	(2.88500438e+00 1.60039776e-01 5.00000000e-02)	16535	3	1.00000000e+00	(4.45557978e-01 1.05220581e-01 5.00000000e-02)	15402	2
42              	5.29492756e+00	(-3.19474650e-05 1.01701236e-05 5.00000000e-02)	34	1	(5.46793474e+00 6.48188864e-01 1.36110292e-19)	5.11574253e-02	(2.99912419e-05 1.28732992e-04 5.00000000e-02)	4295	1	1.16018912e+07	(1.16356603e-01 1.01701236e-05 5.00000000e-02)	12	2	1.93693108e-04	(3.93497139e-02 4.98929477e-03 5.00000000e-02)	7342	0	6.59176199e+02	(2.88500438e+00 1.60039776e-01 5.00000000e-02)	16535	3	1.00000000e+00	(2.10956659e-02 5.77388473e-02 5.00000000e-02)	13612	0
43              	5.29551092e+00	(-3.19474650e-05 1.01701236e-05 5.00000000e-02)	34	1	(5.46725956e+00 6.48045249e-01 1.36077935e-19)	5.10919494e-02	(2.99912419e-05 1.28732992e-04 5.00000000e-02)	4295	1	1.16018912e+07	(1.16356603e-01 1.01701236e-05 5.00000000e-02)	12	2	1.93247602e-04	(4.12607905e-02 4.98929477e-03 5.00000000e-02)	7346	0	6.60424409e+02	(2.88500438e+00 1.60039776e-01 5.00000000e-02)	16535	3	1.00000000e+00	(2.52926372e-02 1.11720124e-01 5.00000000e-02)	15364	0
44              	5.29627503e+00	(-3.19474650e-05 1.01701236e-05 5.00000000e-02)	34	1	(5.46660393e+00 6.47905554e-01 1.36045785e-19)	5.10264896e-02	(2.99912419e-05 1.28732992e-04 5.00000000e-02)	4295	1	1.16018912e+07	(1.16356603e-01 1.01701236e-05 5.00000000e-02)	12	2	1.92790356e-04	(4.58620303e-02 5.31686246e-03 5.00000000e-02)	7513	0	6.61568391e+02	(2.88500438e+00 1.60039776e-01 5.00000000e-02)	16535	3	1.00000000e+00	(2.52926372e-02 1.11720124e-01 5.00000000e-02)	15364	0
45              	5.29721884e+00	(-3.19474650e-05 1.01701236e-05 5.00000000e-02)	34	1	(5.46596752e+00 6.47769649e-01 1.36013972e-19)	5.09610616e-02	(2.99912419e-05 1.28732992e-04 5.00000000e-02)	4295	1	1.16018912e+07	(1.16356603e-01 1.01701236e-05 5.00000000e-02)	12	2	1.92281971e-04	(4.80490536e-02 5.31686246e-03 5.00000000e-02)	7517	0	6.62617960e+02	(2.88500438e+00 1.60039776e-01 5.00000000e-02)	16535	3	1.00000000e+00	(2.62740784e-02 1.11720124e-01 5.00000000e-02)	15367	0
46              	5.29834155e+00	(-3.19474650e-05 1.01701236e-05 5.00000000e-02)	34	1	(5.46536107e+00 6.47637407e-01 1.35982596e-19)	5.08957073e-02	(2.99912419e-05 1.28732992e-04 5.00000000e-02)	4295	1	1.16018912e+07	(1.16356603e-01 1.01701236e-05 5.00000000e-02)	12	2	1.91739589e-04	(5.39306817e-02 5.66460089e-03 5.00000000e-02)	7685	0	6.63581466e+02	(2.88500438e+00 1.60039776e-01 5.00000000e-02)	16535	3	1.00000000e+00	(3.08983605e-02 1.18619891e-01 5.00000000e-02)	15538	0
47              	5.29964127e+00	(-3.19474650e-05 1.01701236e-05 5.00000000e-02)	34	1	(5.46477003e+00 6.47508701e-01 1.35951727e-19)	5.08304754e-02	(2.99912419e-05 1.28732992e-04 5.00000000e-02)	4295	1	1.16018912e+07	(1.16356603e-01 1.01701236e-05 5.00000000e-02)	12	2	1.91169132e-04	(5.58174964e-02 5.66460089e-03 5.00000000e-02)	7688	0	6.64466868e+02	(2.88500438e+00 1.60039776e-01 5.00000000e-02)	16535	3	1.00000000e+00	(3.16667883e-02 1.18619891e-01 5.00000000e-02)	15540	0
48              	5.30111581e+00	(-3.19474650e-05 1.01701236e-05 5.00000000e-02)	34	1	(5.46419403e+00 6.47383398e-01 1.35921418e-19)	5.07654244e-02	(2.99912419e-05 1.28732992e-04 5.00000000e-02)	4295	1	1.16018912e+07	(1.16356603e-01 1.01701236e-05 5.00000000e-02)	12	2	1.90547876e-04	(5.84263631e-02 5.66460089e-03 5.00000000e-02)	7692	0	6.65283421e+02	(2.88500438e+00 1.50737428e-01 5.00000000e-02)	16376	3	1.00000000e+00	(2.79792471e-02 1.11720124e-01 5.00000000e-02)	15372	0
49              	5.30276349e+00	(-3.19474650e-05 1.01701236e-05 5.00000000e-02)	34	1	(5.46363237e+00 6.47261373e-01 1.35891693e-19)	5.07006010e-02	(2.99912419e-05 1.28732992e-04 5.00000000e-02)	4295	1	1.16018912e+07	(1.16356603e-01 1.01701236e-05 5.00000000e-02)	12	2	1.90391639e-04	(-2.30781905e-03 1.01701236e-05 5.00000000e-02)	21	1	6.66037018e+02	(2.88500438e+00 1.50737428e-01 5.00000000e-02)	16376	3	1.00000000e+00	(3.36590861e-02 1.18619891e-01 5.00000000e-02)	15545	0
50              	5.30458183e+00	(-3.19474650e-05 1.01701236e-05 5.00000000e-02)	34	1	(5.46308445e+00 6.47142507e-01 1.35862536e-19)	5.06360278e-02	(2.99912419e-05 1.28732992e-04 5.00000000e-02)	4295	1	1.16018912e+07	(1.16356603e-01 1.01701236e-05 5.00000000e-02)	12	2	1.90399639e-04	(-2.30781905e-03 1.01701236e-05 5.00000000e-02)	21	1	6.66731176e+02	(2.88500438e+00 1.50737428e-01 5.00000000e-02)	16376	3	1.00000000e+00	(2.86864707e-02 1.11720124e-01 5.00000000e-02)	15374	0
51              	5.30657161e+00	(-3.19474650e-05 1.01701236e-05 5.00000000e-02)	34	1	(5.46254946e+00 6.47030324e-01 1.35835105e-19)	5.05717210e-02	(2.99912419e-05 1.28732992e-04 5.00000000e-02)	4295	1	1.16018912e+07	(1.16356603e-01 1.01701236e-05 5.00000000e-02)	12	2	1.90406188e-04	(-2.30781905e-03 1.01701236e-05 5.00000000e-02)	21	1	6.67372134e+02	(2.88500438e+00 1.50737428e-01 5.00000000e-02)	16376	3	1.00000000e+00	(2.86864707e-02 1.11720124e-01 5.00000000e-02)	15374	0
52              	5.30872497e+00	(-3.19474650e-05 1.01701236e-05 5.00000000e-02)	34	1	(5.46202658e+00 6.46922055e-01 1.35806583e-19)	5.05076906e-02	(2.99912419e-05 1.28732992e-04 5.00000000e-02)	4295	1	1.16018912e+07	(1.16356603e-01 1.01701236e-05 5.00000000e-02)	12	2	1.90414476e-04	(-1.95967764e-03 1.01701236e-05 5.00000000e-02)	22	1	6.67963692e+02	(2.88500438e+00 1.50737428e-01 5.00000000e-02)	16376	3	1.00000000e+00	(2.97752058e-02 1.11720124e-01 5.00000000e-02)	15377	0
53              	5.31103647e+00	(-3.19474650e-05 1.01701236e-05 5.00000000e-02)	34	1	(5.46151545e+00 6.46816199e-01 1.35778669e-19)	5.04439367e-02	(2.99912419e-05 1.28732992e-04 5.00000000e-02)	4295	1	1.16018912e+07	(1.16356603e-01 1.01701236e-05 5.00000000e-02)	12	2	1.90424725e-04	(-1.95967764e-03 1.01701236e-05 5.00000000e-02)	22	1	6.68510665e+02	(2.88500438e+00 1.50737428e-01 5.00000000e-02)	16376	3	1.00000000e+00	(3.01457132e-02 1.11720124e-01 5.00000000e-02)	15378	0
54              	5.31350019e+00	(-3.19474650e-05 1.01701236e-05 5.00000000e-02)	34	1	(5.46101555e+00 6.46712578e-01 1.35751416e-19)	5.03804636e-02	(2.99912419e-05 1.28732992e-04 5.00000000e-02)	4295	1	1.16018912e+07	(1.16356603e-01 1.01701236e-05 5.00000000e-02)	12	2	1.90433545e-04	(-1.95967764e-03 1.01701236e-05 5.00000000e-02)	22	1	6.69016721e+02	(2.88500438e+00 1.50737428e-01 5.00000000e-02)	16376	3	1.00000000e+00	(2.97752058e-02 1.11720124e-01 5.00000000e-02)	15377	0
55              	5.31610949e+00	(-3.19474650e-05 1.01701236e-05 5.00000000e-02)	34	1	(5.46052631e+00 6.46611208e-01 1.35724879e-19)	5.03172778e-02	(2.99912419e-05 1.28732992e-04 5.00000000e-02)	4295	1	1.16018912e+07	(1.16356603e-01 1.01701236e-05 5.00000000e-02)	12	2	1.90440980e-04	(-1.95967764e-03 1.01701236e-05 5.00000000e-02)	22	1	6.69485186e+02	(2.88500438e+00 1.50737428e-01 5.00000000e-02)	16376	3	1.00000000e+00	(3.01457132e-02 1.11720124e-01 5.00000000e-02)	15378	0
56              	5.31885662e+00	(-3.19474650e-05 1.01701236e-05 5.00000000e-02)	34	1	(5.46004742e+00 6.46512112e-01 1.35698931e-19)	5.02543776e-02	(2.99912419e-05 1.28732992e-04 5.00000000e-02)	4295	1	1.16018912e+07	(1.16356603e-01 1.01701236e-05 5.00000000e-02)	12	2	1.90447081e-04	(-1.95967764e-03 1.01701236e-05 5.00000000e-02)	22	1	6.69918215e+02	(2.88500438e+00 1.50737428e-01 5.00000000e-02)	16376	3	1.00000000e+00	(3.08983605e-02 1.11720124e-01 5.00000000e-02)	15380	0
57              	5.32173375e+00	(-3.19474650e-05 1.01701236e-05 5.00000000e-02)	34	1	(5.45957691e+00 6.46415239e-01 1.35673489e-19)	5.01917724e-02	(2.99912419e-05 1.28732992e-04 5.00000000e-02)	4295	1	1.16018912e+07	(1.16356603e-01 1.01701236e-05 5.00000000e-02)	12	2	1.90451895e-04	(-1.95967764e-03 1.01701236e-05 5.00000000e-02)	22	1	6.70318589e+02	(2.88500438e+00 1.50737428e-01 5.00000000e-02)	16376	3	1.00000000e+00	(8.94415915e-02 1.18619891e-01 5.00000000e-02)	15630	0
58              	5.32473203e+00	(-3.19474650e-05 1.01701236e-05 5.00000000e-02)	34	1	(5.45911504e+00 6.46320512e-01 1.35648483e-19)	5.01294642e-02	(2.99912419e-05 1.28732992e-04 5.00000000e-02)	4295	1	1.16018912e+07	(1.16356603e-01 1.01701236e-05 5.00000000e-02)	12	2	1.90455477e-04	(-1.95967764e-03 1.01701236e-05 5.00000000e-02)	22	1	6.70688299e+02	(2.88500438e+00 1.41974667e-01 5.00000000e-02)	16217	3	1.00000000e+00	(9.34752135e-02 1.18619891e-01 5.00000000e-02)	15634	0
59              	5.32784322e+00	(-3.19474650e-05 1.01701236e-05 5.00000000e-02)	34	1	(5.45866191e+00 6.46227860e-01 1.35623867e-19)	5.00674633e-02	(2.99912419e-05 1.28732992e-04 5.00000000e-02)	4295	1	1.16018912e+07	(1.16356603e-01 1.01701236e-05 5.00000000e-02)	12	2	1.90457880e-04	(-1.95967764e-03 1.01701236e-05 5.00000000e-02)	22	1	6.71029685e+02	(2.88500438e+00 1.41974667e-01 5.00000000e-02)	16217	3	1.00000000e+00	(1.02062450e-01 1.18619891e-01 5.00000000e-02)	15582	2
60              	5.33105808e+00	(-3.19474650e-05 1.01701236e-05 5.00000000e-02)	34	1	(5.45821736e+00 6.46137218e-01 1.35599626e-19)	5.00057788e-02	(2.99912419e-05 1.28732992e-04 5.00000000e-02)	4295	1	1.16018912e+07	(1.16356603e-01 1.01701236e-05 5.00000000e-02)	12	2	1.90459162e-04	(-1.95967764e-03 1.01701236e-05 5.00000000e-02)	22	1	6.71487259e+02	(2.88500438e+00 4.27409249e-02 5.00000000e-02)	13037	3	1.00000000e+00	(5.21016895e-02 5.77388473e-02 5.00000000e-02)	13686	0
61              	5.33436477e+00	(-3.19474650e-05 1.01701236e-05 5.00000000e-02)	34	1	(5.45778037e+00 6.46048522e-01 1.35575742e-19)	4.99444073e-02	(2.99912419e-05 1.28732992e-04 5.00000000e-02)	4295	1	1.16018912e+07	(1.16356603e-01 1.01701236e-05 5.00000000e-02)	12	2	1.90459377e-04	(-1.95967764e-03 1.01701236e-05 5.00000000e-02)	22	1	6.71962992e+02	(2.88500438e+00 4.27409249e-02 5.00000000e-02)	13037	3	1.00000000e+00	(5.03287477e-02 5.77388473e-02 5.00000000e-02)	13683	0