# Selection     : all 
# Volume        : 5.16250000e-02
# Time          	max(p)	location	cell	max(U)	max(k)	location	cell	max(omega)	location	cell	max(nut)	location	cell	max(ReThetat)	location	cell	max(gammaInt)	location	cell
0               	0.00000000e+00	(-4.68052535e-02 1.01701236e-05 5.00000000e-02)	0	(5.40000000e+00 0.00000000e+00 0.00000000e+00)	5.00000000e-02	(-4.68052535e-02 1.01701236e-05 5.00000000e-02)	0	2.65000000e+02	(-4.68052535e-02 1.01701236e-05 5.00000000e-02)	0	1.88679245e-04	(-4.68052535e-02 1.01701236e-05 5.00000000e-02)	0	1.60990000e+02	(-4.68052535e-02 1.01701236e-05 5.00000000e-02)	0	1.00000000e+00	(-4.68052535e-02 1.01701236e-05 5.00000000e-02)	0
1               	5.27828835e+00	(2.99912419e-05 1.01701236e-05 5.00000000e-02)	3675	(5.42535962e+00 1.91418270e-01 3.76604979e-19)	3.20802905e-01	(2.99912419e-05 1.01701236e-05 5.00000000e-02)	3675	1.16018912e+07	(1.16356603e-01 1.01701236e-05 5.00000000e-02)	3969	2.34469915e-04	(2.88500438e+00 1.69914938e-01 5.00000000e-02)	66674	1.64515648e+02	(2.88500438e+00 1.69914938e-01 5.00000000e-02)	66674	1.00000000e+00	(9.66778813e-01 4.10096419e-04 5.00000000e-02)	11969
2               	6.59255505e+00	(2.99912419e-05 1.01701236e-05 5.00000000e-02)	3675	(5.47938647e+00 5.25130188e-01 5.07699637e-19)	5.65990548e-02	(9.02865036e-05 3.11366197e-05 5.00000000e-02)	4276	1.16018912e+07	(1.16356603e-01 1.01701236e-05 5.00000000e-02)	3969	2.52962704e-04	(2.88500438e+00 1.69914938e-01 5.00000000e-02)	66674	1.90776457e+02	(2.88500438e+00 1.69914938e-01 5.00000000e-02)	66674	1.00000000e+00	(1.51236281e-03 7.28327903e-03 5.00000000e-02)	34897
3               	6.01792180e+00	(-3.19474650e-05 1.01701236e-05 5.00000000e-02)	34	(5.50485681e+00 5.74970194e-01 4.18239218e-19)	5.19593729e-02	(9.02865036e-05 1.57000272e-04 5.00000000e-02)	7276	1.16018912e+07	(1.16356603e-01 1.01701236e-05 5.00000000e-02)	3969	2.58729561e-04	(2.88500438e+00 1.69914938e-01 5.00000000e-02)	66674	2.18982351e+02	(2.88500438e+00 1.69914938e-01 5.00000000e-02)	66674	1.00280598e+00	(-2.68795547e-04 1.01701236e-05 5.00000000e-02)	31
4               	5.72232973e+00	(-3.19474650e-05 1.01701236e-05 5.00000000e-02)	34	(5.51801553e+00 6.12447687e-01 2.68811513e-19)	5.19132273e-02	(1.51210583e-04 1.57000272e-04 5.00000000e-02)	7277	1.16018912e+07	(1.16356603e-01 1.01701236e-05 5.00000000e-02)	3969	2.58420013e-04	(2.88500438e+00 1.69914938e-01 5.00000000e-02)	66674	2.45614025e+02	(2.88500438e+00 1.69914938e-01 5.00000000e-02)	66674	1.00092272e+00	(-1.78945070e-04 1.01701236e-05 5.00000000e-02)	32
5               	5.59055122e+00	(-3.19474650e-05 1.01701236e-05 5.00000000e-02)	34	(5.52393363e+00 6.27732813e-01 1.97292867e-19)	5.21318919e-02	(2.74971497e-04 2.18863888e-04 5.00000000e-02)	8479	1.16018912e+07	(1.16356603e-01 1.01701236e-05 5.00000000e-02)	3969	2.55072983e-04	(2.88500438e+00 1.69914938e-01 5.00000000e-02)	66674	2.70517848e+02	(2.88500438e+00 1.69914938e-01 5.00000000e-02)	66674	1.00677907e+00	(-1.00476297e-04 1.01701236e-05 5.00000000e-02)	33
6               	5.52682795e+00	(-3.19474650e-05 1.01701236e-05 5.00000000e-02)	34	(5.52497764e+00 6.36837231e-01 1.68342106e-19)	5.22086359e-02	(4.65495188e-04 2.88580868e-04 5.00000000e-02)	9682	1.16018912e+07	(1.16356603e-01 1.01701236e-05 5.00000000e-02)	3969	2.50694495e-04	(2.88500438e+00 7.34180011e-02 5.00000000e-02)	58274	2.94036907e+02	(2.88500438e+00 1.69914938e-01 5.00000000e-02)	66674	1.00012701e+00	(3.37821652e-04 4.10096419e-04 5.00000000e-02)	11480
7               	5.49255744e+00	(-3.19474650e-05 1.01701236e-05 5.00000000e-02)	34	(5.52368240e+00 6.43026143e-01 1.49649946e-19)	5.22912365e-02	(5.95845619e-04 3.26691153e-04 5.00000000e-02)	10284	1.16018912e+07	(1.16356603e-01 1.01701236e-05 5.00000000e-02)	3969	2.46590464e-04	(2.88500438e+00 5.43705160e-02 5.00000000e-02)	55274	3.16478689e+02	(2.88500438e+00 1.69914938e-01 5.00000000e-02)	66674	1.00107125e+00	(-1.00476297e-04 7.70222945e-05 5.00000000e-02)	138
8               	5.46865030e+00	(-3.19474650e-05 1.01701236e-05 5.00000000e-02)	34	(5.52078029e+00 6.47335446e-01 1.44541891e-19)	5.23598118e-02	(5.30332311e-04 3.26691153e-04 5.00000000e-02)	10283	1.16018912e+07	(1.16356603e-01 1.01701236e-05 5.00000000e-02)	3969	2.42576000e-04	(2.88500438e+00 4.53931371e-02 5.00000000e-02)	53474	3.38057836e+02	(2.88500438e+00 1.69914938e-01 5.00000000e-02)	66674	1.00005567e+00	(1.51210583e-04 2.88580868e-04 5.00000000e-02)	9677
9               	5.44910287e+00	(-3.19474650e-05 1.01701236e-05 5.00000000e-02)	34	(5.51627652e+00 6.50094234e-01 1.40648068e-19)	5.24170953e-02	(4.65495188e-04 2.88580868e-04 5.00000000e-02)	9682	1.16018912e+07	(1.16356603e-01 1.01701236e-05 5.00000000e-02)	3969	2.44649306e-04	(2.88500438e+00 1.62259029e-02 5.00000000e-02)	43274	3.58916639e+02	(2.88500438e+00 1.69914938e-01 5.00000000e-02)	66674	1.00018013e+00	(-1.00476297e-04 1.02105369e-04 5.00000000e-02)	173
10              	5.43141534e+00	(-3.19474650e-05 1.01701236e-05 5.00000000e-02)	34	(5.51280017e+00 6.51787751e-01 1.38699384e-19)	5.24558496e-02	(4.65495188e-04 2.88580868e-04 5.00000000e-02)	9682	1.16018912e+07	(1.16356603e-01 1.01701236e-05 5.00000000e-02)	3969	2.46808579e-04	(2.88500438e+00 1.52655508e-02 5.00000000e-02)	42674	3.79146885e+02	(2.88500438e+00 1.69914938e-01 5.00000000e-02)	66674	1.00000612e+00	(2.99912419e-05 2.52681188e-04 5.00000000e-02)	9075
11              	5.41524531e+00	(-3.19474650e-05 1.01701236e-05 5.00000000e-02)	34	(5.50961977e+00 6.52651829e-01 1.37122474e-19)	5.24559667e-02	(4.65495188e-04 2.88580868e-04 5.00000000e-02)	9682	1.16018912e+07	(1.16356603e-01 1.01701236e-05 5.00000000e-02)	3969	2.48523347e-04	(2.88500438e+00 1.52655508e-02 5.00000000e-02)	42674	3.98804975e+02	(2.88500438e+00 1.69914938e-01 5.00000000e-02)	66674	1.00000934e+00	(-1.78945070e-04 1.02105369e-04 5.00000000e-02)	172
12              	5.40077042e+00	(-3.19474650e-05 1.01701236e-05 5.00000000e-02)	34	(5.50716978e+00 6.53089043e-01 1.36220208e-19)	5.24669161e-02	(9.02865036e-05 1.57000272e-04 5.00000000e-02)	7276	1.16018912e+07	(1.16356603e-01 1.01701236e-05 5.00000000e-02)	3969	2.49834809e-04	(2.88500438e+00 1.52655508e-02 5.00000000e-02)	42674	4.23709202e+02	(2.88500438e+00 1.69914938e-01 5.00000000e-02)	66674	1.00000063e+00	(1.51210583e-04 3.67148169e-04 5.00000000e-02)	10877
13              	5.38800346e+00	(-3.19474650e-05 1.01701236e-05 5.00000000e-02)	34	(5.50450045e+00 6.53308893e-01 1.35643173e-19)	5.24765731e-02	(2.99912419e-05 1.28732992e-04 5.00000000e-02)	6675	1.16018912e+07	(1.16356603e-01 1.01701236e-05 5.00000000e-02)	3969	2.50787005e-04	(2.88500438e+00 1.52655508e-02 5.00000000e-02)	42674	4.48813041e+02	(2.88500438e+00 1.69914938e-01 5.00000000e-02)	66674	1.00000006e+00	(-2.68795547e-04 1.28732992e-04 5.00000000e-02)	206
14              	5.37683470e+00	(-3.19474650e-05 1.01701236e-05 5.00000000e-02)	34	(5.50228019e+00 6.53387638e-01 1.35231454e-19)	5.24864932e-02	(2.99912419e-05 1.28732992e-04 5.00000000e-02)	6675	1.16018912e+07	(1.16356603e-01 1.01701236e-05 5.00000000e-02)	3969	2.51399016e-04	(2.88500438e+00 1.52655508e-02 5.00000000e-02)	42674	4.71564625e+02	(2.88500438e+00 1.69914938e-01 5.00000000e-02)	66674	1.00000050e+00	(-3.19474650e-05 2.52681188e-04 5.00000000e-02)	349
15              	5.36712258e+00	(-3.19474650e-05 1.01701236e-05 5.00000000e-02)	34	(5.49993060e+00 6.53364749e-01 1.35322817e-19)	5.24852169e-02	(2.99912419e-05 1.28732992e-04 5.00000000e-02)	6675	1.16018912e+07	(1.16356603e-01 1.01701236e-05 5.00000000e-02)	3969	2.51693888e-04	(2.88500438e+00 1.52655508e-02 5.00000000e-02)	42674	4.91771885e+02	(2.88500438e+00 1.69914938e-01 5.00000000e-02)	66674	1.00000002e+00	(9.02865036e-05 4.10096419e-04 5.00000000e-02)	11476
16              	5.35868473e+00	(-3.19474650e-05 1.01701236e-05 5.00000000e-02)	34	(5.49770045e+00 6.53267400e-01 1.35519959e-19)	5.24804488e-02	(2.99912419e-05 1.28732992e-04 5.00000000e-02)	6675	1.16018912e+07	(1.16356603e-01 1.01701236e-05 5.00000000e-02)	3969	2.51681132e-04	(2.88500438e+00 1.52655508e-02 5.00000000e-02)	42674	5.09688119e+02	(2.88500438e+00 1.69914938e-01 5.00000000e-02)	66674	1.00000001e+00	(-1.00476297e-04 2.88580868e-04 5.00000000e-02)	383
17              	5.35132262e+00	(-3.19474650e-05 1.01701236e-05 5.00000000e-02)	34	(5.49580169e+00 6.53118954e-01 1.35710874e-19)	5.24682485e-02	(2.99912419e-05 1.28732992e-04 5.00000000e-02)	6675	1.16018912e+07	(1.16356603e-01 1.01701236e-05 5.00000000e-02)	3969	2.51372459e-04	(2.88500438e+00 1.52655508e-02 5.00000000e-02)	42674	5.25609650e+02	(2.88500438e+00 1.69914938e-01 5.00000000e-02)	66674	1.00000000e+00	(-1.00476297e-04 4.10096419e-04 5.00000000e-02)	488
18              	5.34485296e+00	(-3.19474650e-05 1.01701236e-05 5.00000000e-02)	34	(5.49388536e+00 6.52936950e-01 1.35875163e-19)	5.24508601e-02	(2.99912419e-05 1.28732992e-04 5.00000000e-02)	6675	1.16018912e+07	(1.16356603e-01 1.01701236e-05 5.00000000e-02)	3969	2.50774563e-04	(2.88500438e+00 1.52655508e-02 5.00000000e-02)	42674	5.39799622e+02	(2.88500438e+00 1.69914938e-01 5.00000000e-02)	66674	1.00000000e+00	(-1.78945070e-04 3.26691153e-04 5.00000000e-02)	417
19              	5.33910965e+00	(-3.19474650e-05 1.01701236e-05 5.00000000e-02)	34	(5.49213428e+00 6.52733214e-01 1.36011169e-19)	5.24274819e-02	(2.99912419e-05 1.28732992e-04 5.00000000e-02)	6675	1.16018912e+07	(1.16356603e-01 1.01701236e-05 5.00000000e-02)	3969	2.49895136e-04	(2.88500438e+00 1.52655508e-02 5.00000000e-02)	42674	5.52481386e+02	(2.88500438e+00 1.69914938e-01 5.00000000e-02)	66674	1.00000000e+00	(-3.19474650e-05 3.67148169e-04 5.00000000e-02)	454
20              	5.33396022e+00	(-3.19474650e-05 1.01701236e-05 5.00000000e-02)	34	(5.49056790e+00 6.52503840e-01 1.36120166e-19)	5.23985372e-02	(2.99912419e-05 1.28732992e-04 5.00000000e-02)	6675	1.16018912e+07	(1.16356603e-01 1.01701236e-05 5.00000000e-02)	3969	2.48740706e-04	(2.88500438e+00 1.52655508e-02 5.00000000e-02)	42674	5.63842929e+02	(2.88500438e+00 1.69914938e-01 5.00000000e-02)	66674	1.00000000e+00	(1.51210583e-04 6.10015059e-04 5.00000000e-02)	13877
21              	5.32929831e+00	(-3.19474650e-05 1.01701236e-05 5.00000000e-02)	34	(5.48900858e+00 6.52267850e-01 1.36204025e-19)	5.23644733e-02	(2.99912419e-05 1.28732992e-04 5.00000000e-02)	6675	1.16018912e+07	(1.16356603e-01 1.01701236e-05 5.00000000e-02)	3969	2.47318932e-04	(2.88500438e+00 1.52655508e-02 5.00000000e-02)	42674	5.74043214e+02	(2.88500438e+00 1.69914938e-01 5.00000000e-02)	66674	1.00000000e+00	(-1.00476297e-04 3.67148169e-04 5.00000000e-02)	453
22              	5.32506039e+00	(-3.19474650e-05 1.01701236e-05 5.00000000e-02)	34	(5.48748955e+00 6.52030356e-01 1.36268225e-19)	5.23257545e-02	(2.99912419e-05 1.28732992e-04 5.00000000e-02)	6675	1.16018912e+07	(1.16356603e-01 1.01701236e-05 5.00000000e-02)	3969	2.45637073e-04	(2.88500438e+00 1.52655508e-02 5.00000000e-02)	42674	5.83217646e+02	(2.88500438e+00 1.69914938e-01 5.00000000e-02)	66674	1.00000000e+00	(-3.19474650e-05 6.10015059e-04 5.00000000e-02)	629
23              	5.32120049e+00	(-3.19474650e-05 1.01701236e-05 5.00000000e-02)	34	(5.48619253e+00 6.51794073e-01 1.36316563e-19)	5.22831718e-02	(2.99912419e-05 1.28732992e-04 5.00000000e-02)	6675	1.16018912e+07	(1.16356603e-01 1.01701236e-05 5.00000000e-02)	3969	2.43704693e-04	(2.88500438e+00 1.52655508e-02 5.00000000e-02)	42674	5.91482431e+02	(2.88500438e+00 1.69914938e-01 5.00000000e-02)	66674	1.00000000e+00	(-1.78945070e-04 3.67148169e-04 5.00000000e-02)	452
24              	5.31767655e+00	(-3.19474650e-05 1.01701236e-05 5.00000000e-02)	34	(5.48489213e+00 6.51560771e-01 1.36352516e-19)	5.22372739e-02	(2.99912419e-05 1.28732992e-04 5.00000000e-02)	6675	1.16018912e+07	(1.16356603e-01 1.01701236e-05 5.00000000e-02)	3969	2.41529578e-04	(2.88500438e+00 1.52655508e-02 5.00000000e-02)	42674	5.98938043e+02	(2.88500438e+00 1.69914938e-01 5.00000000e-02)	66674	1.00000000e+00	(2.01520175e-01 1.05220581e-01 5.00000000e-02)	61620
25              	5.31446055e+00	(-3.19474650e-05 1.01701236e-05 5.00000000e-02)	34	(5.48360853e+00 6.51331558e-01 1.36378485e-19)	5.21886210e-02	(2.99912419e-05 1.28732992e-04 5.00000000e-02)	6675	1.16018912e+07	(1.16356603e-01 1.01701236e-05 5.00000000e-02)	3969	2.39123077e-04	(2.88500438e+00 1.52655508e-02 5.00000000e-02)	42674	6.05671867e+02	(2.88500438e+00 1.69914938e-01 5.00000000e-02)	66674	1.00000000e+00	(-2.68795547e-04 4.55689308e-04 5.00000000e-02)	521
26              	5.31153059e+00	(-3.19474650e-05 1.01701236e-05 5.00000000e-02)	34	(5.48234371e+00 6.51107065e-01 1.36396448e-19)	5.21376391e-02	(2.99912419e-05 1.28732992e-04 5.00000000e-02)	6675	1.16018912e+07	(1.16356603e-01 1.01701236e-05 5.00000000e-02)	3969	2.36495133e-04	(2.88500438e+00 1.52655508e-02 5.00000000e-02)	42674	6.11760278e+02	(2.88500438e+00 1.69914938e-01 5.00000000e-02)	66674	1.00000000e+00	(-1.00476297e-04 5.55470428e-04 5.00000000e-02)	593
27              	5.30887048e+00	(-3.19474650e-05 1.01701236e-05 5.00000000e-02)	34	(5.48123420e+00 6.50887585e-01 1.36407686e-19)	5.20846230e-02	(2.99912419e-05 1.28732992e-04 5.00000000e-02)	6675	1.16018912e+07	(1.16356603e-01 1.01701236e-05 5.00000000e-02)	3969	2.33658144e-04	(2.88500438e+00 1.52655508e-02 5.00000000e-02)	42674	6.17270434e+02	(2.88500438e+00 1.69914938e-01 5.00000000e-02)	66674	1.00000000e+00	(2.49316411e-01 1.05220581e-01 5.00000000e-02)	61640
28              	5.30646602e+00	(-3.19474650e-05 1.01701236e-05 5.00000000e-02)	34	(5.48013395e+00 6.50673272e-01 1.36413039e-19)	5.20297968e-02	(2.99912419e-05 1.28732992e-04 5.00000000e-02)	6675	1.16018912e+07	(1.16356603e-01 1.01701236e-05 5.00000000e-02)	3969	2.30636182e-04	(2.88500438e+00 1.62259029e-02 5.00000000e-02)	43274	6.22261595e+02	(2.88500438e+00 1.69914938e-01 5.00000000e-02)	66674	1.00000000e+00	(2.21806494e-01 1.05220581e-01 5.00000000e-02)	61629
29              	5.30430949e+00	(-3.19474650e-05 1.01701236e-05 5.00000000e-02)	34	(5.47905234e+00 6.50464148e-01 1.36413034e-19)	5.19733692e-02	(2.99912419e-05 1.28732992e-04 5.00000000e-02)	6675	1.16018912e+07	(1.16356603e-01 1.01701236e-05 5.00000000e-02)	3969	2.27530314e-04	(2.88500438e+00 1.62259029e-02 5.00000000e-02)	43274	6.26786259e+02	(2.88500438e+00 1.69914938e-01 5.00000000e-02)	66674	1.00000000e+00	(2.31448820e-01 1.05220581e-01 5.00000000e-02)	61633
30              	5.30238614e+00	(-3.19474650e-05 1.01701236e-05 5.00000000e-02)	34	(5.47799705e+00 6.50260161e-01 1.36408095e-19)	5.19155293e-02	(2.99912419e-05 1.28732992e-04 5.00000000e-02)	6675	1.16018912e+07	(1.16356603e-01 1.01701236e-05 5.00000000e-02)	3969	2.24260439e-04	(2.88500438e+00 1.62259029e-02 5.00000000e-02)	43274	6.30891077e+02	(2.88500438e+00 1.69914938e-01 5.00000000e-02)	66674	1.00000000e+00	(2.41499721e-01 1.05220581e-01 5.00000000e-02)	61637
31              	5.30068940e+00	(-3.19474650e-05 1.01701236e-05 5.00000000e-02)	34	(5.47696893e+00 6.50061201e-01 1.36398588e-19)	5.18564531e-02	(2.99912419e-05 1.28732992e-04 5.00000000e-02)	6675	1.16018912e+07	(1.16356603e-01 1.01701236e-05 5.00000000e-02)	3969	2.20840416e-04	(2.88500438e+00 1.62259029e-02 5.00000000e-02)	43274	6.34617628e+02	(2.88500438e+00 1.69914938e-01 5.00000000e-02)	66674	1.00000000e+00	(2.10302908e-01 1.05220581e-01 5.00000000e-02)	61624
32              	5.29920470e+00	(-3.19474650e-05 1.01701236e-05 5.00000000e-02)	34	(5.47601121e+00 6.49867201e-01 1.36384919e-19)	5.17962842e-02	(2.99912419e-05 1.28732992e-04 5.00000000e-02)	6675	1.16018912e+07	(1.16356603e-01 1.01701236e-05 5.00000000e-02)	3969	2.17284597e-04	(2.88500438e+00 1.62259029e-02 5.00000000e-02)	43274	6.38003020e+02	(2.88500438e+00 1.69914938e-01 5.00000000e-02)	66674	1.00000000e+00	(-1.00476297e-04 6.10015059e-04 5.00000000e-02)	628
33              	5.29792934e+00	(-3.19474650e-05 1.01701236e-05 5.00000000e-02)	34	(5.47509215e+00 6.49678125e-01 1.36367493e-19)	5.17351070e-02	(2.99912419e-05 1.28732992e-04 5.00000000e-02)	6675	1.16018912e+07	(1.16356603e-01 1.01701236e-05 5.00000000e-02)	3969	2.13608007e-04	(2.88500438e+00 1.62259029e-02 5.00000000e-02)	43274	6.41080570e+02	(2.88500438e+00 1.69914938e-01 5.00000000e-02)	66674	1.00000000e+00	(1.99380854e-01 1.05220581e-01 5.00000000e-02)	61619
34              	5.29685420e+00	(-3.19474650e-05 1.01701236e-05 5.00000000e-02)	34	(5.47419627e+00 6.49493939e-01 1.36346583e-19)	5.16730346e-02	(2.99912419e-05 1.28732992e-04 5.00000000e-02)	6675	1.16018912e+07	(1.16356603e-01 1.01701236e-05 5.00000000e-02)	3969	2.09826150e-04	(2.88500438e+00 1.62259029e-02 5.00000000e-02)	43274	6.43885005e+02	(2.88500438e+00 1.60039776e-01 5.00000000e-02)	66074	1.00000000e+00	(2.41499721e-01 1.05220581e-01 5.00000000e-02)	61637
35              	5.29597311e+00	(-3.19474650e-05 1.01701236e-05 5.00000000e-02)	34	(5.47332403e+00 6.49314607e-01 1.36322642e-19)	5.16101875e-02	(2.99912419e-05 1.28732992e-04 5.00000000e-02)	6675	1.16018912e+07	(1.16356603e-01 1.01701236e-05 5.00000000e-02)	3969	2.05955033e-04	(2.88500438e+00 1.62259029e-02 5.00000000e-02)	43274	6.46462449e+02	(2.88500438e+00 1.60039776e-01 5.00000000e-02)	66074	1.00000000e+00	(1.93094465e-01 1.05220581e-01 5.00000000e-02)	61616
36              	5.29527701e+00	(-3.19474650e-05 1.01701236e-05 5.00000000e-02)	34	(5.47247652e+00 6.49140077e-01 1.36296186e-19)	5.15466844e-02	(2.99912419e-05 1.28732992e-04 5.00000000e-02)	6675	1.16018912e+07	(1.16356603e-01 1.01701236e-05 5.00000000e-02)	3969	2.02011059e-04	(2.88500438e+00 1.62259029e-02 5.00000000e-02)	43274	6.48810723e+02	(2.88500438e+00 1.60039776e-01 5.00000000e-02)	66074	1.00000000e+00	(2.05865983e-01 1.05220581e-01 5.00000000e-02)	61622
37              	5.29476121e+00	(-3.19474650e-05 1.01701236e-05 5.00000000e-02)	34	(5.47165416e+00 6.48970277e-01 1.36267741e-19)	5.14826353e-02	(2.99912419e-05 1.28732992e-04 5.00000000e-02)	6675	1.16018912e+07	(1.16356603e-01 1.01701236e-05 5.00000000e-02)	3969	1.98084611e-04	(2.88500438e+00 1.72453908e-02 5.00000000e-02)	43874	6.50951479e+02	(2.88500438e+00 1.60039776e-01 5.00000000e-02)	66074	1.00000000e+00	(2.44078299e-01 1.05220581e-01 5.00000000e-02)	61638
38              	5.29442347e+00	(-3.19474650e-05 1.01701236e-05 5.00000000e-02)	34	(5.47085617e+00 6.48805122e-01 1.36237790e-19)	5.14181400e-02	(2.99912419e-05 1.28732992e-04 5.00000000e-02)	6675	1.16018912e+07	(1.16356603e-01 1.01701236e-05 5.00000000e-02)	3969	1.95051844e-04	(2.97752058e-02 4.68072781e-03 5.00000000e-02)	30850	6.52904008e+02	(2.88500438e+00 1.60039776e-01 5.00000000e-02)	66074	1.00000000e+00	(2.49316411e-01 1.05220581e-01 5.00000000e-02)	61640
39              	5.29427094e+00	(-3.19474650e-05 1.01701236e-05 5.00000000e-02)	34	(5.47008760e+00 6.48644532e-01 1.36206729e-19)	5.13532891e-02	(2.99912419e-05 1.28732992e-04 5.00000000e-02)	6675	1.16018912e+07	(1.16356603e-01 1.01701236e-05 5.00000000e-02)	3969	1.94767754e-04	(3.16667883e-02 4.68072781e-03 5.00000000e-02)	30855	6.54686447e+02	(2.88500438e+00 1.60039776e-01 5.00000000e-02)	66074	1.00000000e+00	(2.54664349e-01 1.05220581e-01 5.00000000e-02)	61642
40              	5.29430720e+00	(-3.19474650e-05 1.01701236e-05 5.00000000e-02)	34	(5.46934884e+00 6.48488386e-01 1.36174930e-19)	5.12881666e-02	(2.99912419e-05 1.28732992e-04 5.00000000e-02)	6675	1.16018912e+07	(1.16356603e-01 1.01701236e-05 5.00000000e-02)	3969	1.94439005e-04	(3.32523160e-02 4.68072781e-03 5.00000000e-02)	30859	6.56314675e+02	(2.88500438e+00 1.60039776e-01 5.00000000e-02)	66074	1.00000000e+00	(2.77201145e-01 1.05220581e-01 5.00000000e-02)	61650
41              	5.29452670e+00	(-3.19474650e-05 1.01701236e-05 5.00000000e-02)	34	(5.46863099e+00 6.48336551e-01 1.36142703e-19)	5.12228525e-02	(2.99912419e-05 1.28732992e-04 5.00000000e-02)	6675	1.16018912e+07	(1.16356603e-01 1.01701236e-05 5.00000000e-02)	3969	1.94078907e-04	(3.70697416e-02 4.98929477e-03 5.00000000e-02)	31468	6.57803349e+02	(2.88500438e+00 1.60039776e-01 5.00000000e-02)	66074	1.00000000e+00	(3.01688311e-01 1.05220581e-01 5.00000000e-02)	61658
42              	5.29492861e+00	(-3.19474650e-05 1.01701236e-05 5.00000000e-02)	34	(5.46793481e+00 6.48188893e-01 1.36110305e-19)	5.11574226e-02	(2.99912419e-05 1.28732992e-04 5.00000000e-02)	6675	1.16018912e+07	(1.16356603e-01 1.01701236e-05 5.00000000e-02)	3969	1.93686164e-04	(3.93497139e-02 4.98929477e-03 5.00000000e-02)	31473	6.59165477e+02	(2.88500438e+00 1.60039776e-01 5.00000000e-02)	66074	1.00000000e+00	(3.38855290e-01 1.05220581e-01 5.00000000e-02)	61669
43              	5.29551170e+00	(-3.19474650e-05 1.01701236e-05 5.00000000e-02)	34	(5.46725963e+00 6.48045281e-01 1.36077945e-19)	5.10919468e-02	(2.99912419e-05 1.28732992e-04 5.00000000e-02)	6675	1.16018912e+07	(1.16356603e-01 1.01701236e-05 5.00000000e-02)	3969	1.93240914e-04	(4.12607905e-02 4.98929477e-03 5.00000000e-02)	31477	6.60412792e+02	(2.88500438e+00 1.60039776e-01 5.00000000e-02)	66074	1.00000000e+00	(3.38855290e-01 1.05220581e-01 5.00000000e-02)	61669
44              	5.29627543e+00	(-3.19474650e-05 1.01701236e-05 5.00000000e-02)	34	(5.46660399e+00 6.47905586e-01 1.36045792e-19)	5.10264869e-02	(2.99912419e-05 1.28732992e-04 5.00000000e-02)	6675	1.16018912e+07	(1.16356603e-01 1.01701236e-05 5.00000000e-02)	3969	1.92783875e-04	(4.58620303e-02 5.31686246e-03 5.00000000e-02)	32086	6.61555899e+02	(2.88500438e+00 1.60039776e-01 5.00000000e-02)	66074	1.00000000e+00	(3.76528664e-01 1.05220581e-01 5.00000000e-02)	61679
45              	5.29721888e+00	(-3.19474650e-05 1.01701236e-05 5.00000000e-02)	34	(5.46596756e+00 6.47769682e-01 1.36013978e-19)	5.09610587e-02	(2.99912419e-05 1.28732992e-04 5.00000000e-02)	6675	1.16018912e+07	(1.16356603e-01 1.01701236e-05 5.00000000e-02)	3969	1.92275649e-04	(4.80490536e-02 5.31686246e-03 5.00000000e-02)	32090	6.62604631e+02	(2.88500438e+00 1.60039776e-01 5.00000000e-02)	66074	1.00000000e+00	(2.76311005e-02 1.11720124e-01 5.00000000e-02)	62044
46              	5.29834126e+00	(-3.19474650e-05 1.01701236e-05 5.00000000e-02)	34	(5.46536111e+00 6.47637440e-01 1.35982601e-19)	5.08957025e-02	(2.99912419e-05 1.28732992e-04 5.00000000e-02)	6675	1.16018912e+07	(1.16356603e-01 1.01701236e-05 5.00000000e-02)	3969	1.91733213e-04	(5.39306817e-02 5.66460089e-03 5.00000000e-02)	32700	6.63567363e+02	(2.88500438e+00 1.60039776e-01 5.00000000e-02)	66074	1.00000000e+00	(2.83310246e-02 1.11720124e-01 5.00000000e-02)	62046
47              	5.29964056e+00	(-3.19474650e-05 1.01701236e-05 5.00000000e-02)	34	(5.46477007e+00 6.47508734e-01 1.35951730e-19)	5.08304707e-02	(2.99912419e-05 1.28732992e-04 5.00000000e-02)	6675	1.16018912e+07	(1.16356603e-01 1.01701236e-05 5.00000000e-02)	3969	1.91163103e-04	(5.58174964e-02 5.66460089e-03 5.00000000e-02)	32703	6.64452080e+02	(2.88500438e+00 1.60039776e-01 5.00000000e-02)	66074	1.00000000e+00	(2.83310246e-02 1.11720124e-01 5.00000000e-02)	62046
48              	5.30111421e+00	(-3.19474650e-05 1.01701236e-05 5.00000000e-02)	34	(5.46419406e+00 6.47383430e-01 1.35921421e-19)	5.07654207e-02	(2.99912419e-05 1.28732992e-04 5.00000000e-02)	6675	1.16018912e+07	(1.16356603e-01 1.01701236e-05 5.00000000e-02)	3969	1.90541998e-04	(5.84263631e-02 5.66460089e-03 5.00000000e-02)	32707	6.65268945e+02	(2.88500438e+00 1.50737428e-01 5.00000000e-02)	65474	1.00000000e+00	(2.94085224e-02 1.11720124e-01 5.00000000e-02)	62049
49              	5.30276287e+00	(-3.19474650e-05 1.01701236e-05 5.00000000e-02)	34	(5.46363240e+00 6.47261406e-01 1.35891697e-19)	5.07005977e-02	(2.99912419e-05 1.28732992e-04 5.00000000e-02)	6675	1.16018912e+07	(1.16356603e-01 1.01701236e-05 5.00000000e-02)	3969	1.90391495e-04	(-2.30781905e-03 1.01701236e-05 5.00000000e-02)	21	6.66021828e+02	(2.88500438e+00 1.50737428e-01 5.00000000e-02)	65474	1.00000000e+00	(2.97752058e-02 1.11720124e-01 5.00000000e-02)	62050
50              	5.30458045e+00	(-3.19474650e-05 1.01701236e-05 5.00000000e-02)	34	(5.46308448e+00 6.47142539e-01 1.35862538e-19)	5.06360247e-02	(2.99912419e-05 1.28732992e-04 5.00000000e-02)	6675	1.16018912e+07	(1.16356603e-01 1.01701236e-05 5.00000000e-02)	3969	1.90399483e-04	(-2.30781905e-03 1.01701236e-05 5.00000000e-02)	21	6.66716033e+02	(2.88500438e+00 1.50737428e-01 5.00000000e-02)	65474	1.00000000e+00	(2.83310246e-02 1.11720124e-01 5.00000000e-02)	62046
51              	5.30656996e+00	(-3.19474650e-05 1.01701236e-05 5.00000000e-02)	34	(5.46254949e+00 6.47030356e-01 1.35835107e-19)	5.05717183e-02	(2.99912419e-05 1.28732992e-04 5.00000000e-02)	6675	1.16018912e+07	(1.16356603e-01 1.01701236e-05 5.00000000e-02)	3969	1.90406020e-04	(-2.30781905e-03 1.01701236e-05 5.00000000e-02)	21	6.67356660e+02	(2.88500438e+00 1.50737428e-01 5.00000000e-02)	65474	1.00000000e+00	(2.86864707e-02 1.11720124e-01 5.00000000e-02)	62047
52              	5.30872308e+00	(-3.19474650e-05 1.01701236e-05 5.00000000e-02)	34	(5.46202661e+00 6.46922086e-01 1.35806585e-19)	5.05076886e-02	(2.99912419e-05 1.28732992e-04 5.00000000e-02)	6675	1.16018912e+07	(1.16356603e-01 1.01701236e-05 5.00000000e-02)	3969	1.90414318e-04	(-1.95967764e-03 1.01701236e-05 5.00000000e-02)	22	6.67948291e+02	(2.88500438e+00 1.50737428e-01 5.00000000e-02)	65474	1.00000000e+00	(2.94085224e-02 1.11720124e-01 5.00000000e-02)	62049
53              	5.31103469e+00	(-3.19474650e-05 1.01701236e-05 5.00000000e-02)	34	(5.46151549e+00 6.46816229e-01 1.35778671e-19)	5.04439356e-02	(2.99912419e-05 1.28732992e-04 5.00000000e-02)	6675	1.16018912e+07	(1.16356603e-01 1.01701236e-05 5.00000000e-02)	3969	1.90424563e-04	(-1.95967764e-03 1.01701236e-05 5.00000000e-02)	22	6.68495463e+02	(2.88500438e+00 1.50737428e-01 5.00000000e-02)	65474	1.00000000e+00	(2.97752058e-02 1.11720124e-01 5.00000000e-02)	62050
54              	5.31349817e+00	(-3.19474650e-05 1.01701236e-05 5.00000000e-02)	34	(5.46101558e+00 6.46712608e-01 1.35751419e-19)	5.03804634e-02	(2.99912419e-05 1.28732992e-04 5.00000000e-02)	6675	1.16018912e+07	(1.16356603e-01 1.01701236e-05 5.00000000e-02)	3969	1.90433379e-04	(-1.95967764e-03 1.01701236e-05 5.00000000e-02)	22	6.69001651e+02	(2.88500438e+00 1.50737428e-01 5.00000000e-02)	65474	1.00000000e+00	(2.10956659e-02 5.43705160e-02 5.00000000e-02)	54823
55              	5.31610684e+00	(-3.19474650e-05 1.01701236e-05 5.00000000e-02)	34	(5.46052635e+00 6.46611235e-01 1.35724879e-19)	5.03172775e-02	(2.99912419e-05 1.28732992e-04 5.00000000e-02)	6675	1.16018912e+07	(1.16356603e-01 1.01701236e-05 5.00000000e-02)	3969	1.90440812e-04	(-1.95967764e-03 1.01701236e-05 5.00000000e-02)	22	6.69470011e+02	(2.88500438e+00 1.50737428e-01 5.00000000e-02)	65474	1.00000000e+00	(4.37639108e-02 5.77388473e-02 5.00000000e-02)	55482
56              	5.31885396e+00	(-3.19474650e-05 1.01701236e-05 5.00000000e-02)	34	(5.46004747e+00 6.46512137e-01 1.35698930e-19)	5.02543787e-02	(2.99912419e-05 1.28732992e-04 5.00000000e-02)	6675	1.16018912e+07	(1.16356603e-01 1.01701236e-05 5.00000000e-02)	3969	1.90446909e-04	(-1.95967764e-03 1.01701236e-05 5.00000000e-02)	22	6.69903248e+02	(2.88500438e+00 1.50737428e-01 5.00000000e-02)	65474	1.00000000e+00	(2.16585634e-02 5.43705160e-02 5.00000000e-02)	54825
57              	5.32173060e+00	(-3.19474650e-05 1.01701236e-05 5.00000000e-02)	34	(5.45957696e+00 6.46415262e-01 1.35673490e-19)	5.01917735e-02	(2.99912419e-05 1.28732992e-04 5.00000000e-02)	6675	1.16018912e+07	(1.16356603e-01 1.01701236e-05 5.00000000e-02)	3969	1.90451716e-04	(-1.95967764e-03 1.01701236e-05 5.00000000e-02)	22	6.70303595e+02	(2.88500438e+00 1.50737428e-01 5.00000000e-02)	65474	1.00000000e+00	(2.79792471e-02 1.11720124e-01 5.00000000e-02)	62045
58              	5.32472822e+00	(-3.19474650e-05 1.01701236e-05 5.00000000e-02)	34	(5.45911509e+00 6.46320536e-01 1.35648485e-19)	5.01294688e-02	(2.99912419e-05 1.28732992e-04 5.00000000e-02)	6675	1.16018912e+07	(1.16356603e-01 1.01701236e-05 5.00000000e-02)	3969	1.90455285e-04	(-1.95967764e-03 1.01701236e-05 5.00000000e-02)	22	6.70673222e+02	(2.88500438e+00 1.41974667e-01 5.00000000e-02)	64874	1.00000000e+00	(2.72865472e-02 1.11720124e-01 5.00000000e-02)	62043
59              	5.32784076e+00	(-3.19474650e-05 1.01701236e-05 5.00000000e-02)	34	(5.45866197e+00 6.46227885e-01 1.35623870e-19)	5.00674612e-02	(2.99912419e-05 1.28732992e-04 5.00000000e-02)	6675	1.16018912e+07	(1.16356603e-01 1.01701236e-05 5.00000000e-02)	3969	1.90457672e-04	(-1.95967764e-03 1.01701236e-05 5.00000000e-02)	22	6.71014648e+02	(2.88500438e+00 1.41974667e-01 5.00000000e-02)	64874	1.00000000e+00	(2.79792471e-02 1.11720124e-01 5.00000000e-02)	62045
60              	5.33105423e+00	(-3.19474650e-05 1.01701236e-05 5.00000000e-02)	34	(5.45821741e+00 6.46137243e-01 1.35599629e-19)	5.00057745e-02	(2.99912419e-05 1.28732992e-04 5.00000000e-02)	6675	1.16018912e+07	(1.16356603e-01 1.01701236e-05 5.00000000e-02)	3969	1.90458934e-04	(-1.95967764e-03 1.01701236e-05 5.00000000e-02)	22	6.71476881e+02	(2.88500438e+00 4.27409249e-02 5.00000000e-02)	52874	1.00000000e+00	(2.90456238e-02 1.11720124e-01 5.00000000e-02)	62048
61              	5.33436163e+00	(-3.19474650e-05 1.01701236e-05 5.00000000e-02)	34	(5.45778042e+00 6.46048546e-01 1.35575747e-19)	4.99444034e-02	(2.99912419e-05 1.28732992e-04 5.00000000e-02)	6675	1.16018912e+07	(1.16356603e-01 1.01701236e-05 5.00000000e-02)	3969	1.90459128e-04	(-1.95967764e-03 1.01701236e-05 5.00000000e-02)	22	6.71951765e+02	(2.88500438e+00 4.27409249e-02 5.00000000e-02)	52874	1.00000000e+00	(2.94085224e-02 1.11720124e-01 5.00000000e-02)	62049
62              	5.33775089e+00	(-3.19474650e-05 1.01701236e-05 5.00000000e-02)	34	(5.45736953e+00 6.45961734e-01 1.35552227e-19)	4.98833412e-02	(2.99912419e-05 1.28732992e-04 5.00000000e-02)	6675	1.16018912e+07	(1.16356603e-01 1.01701236e-05 5.00000000e-02)	3969	1.90458286e-04	(-1.95967764e-03 1.01701236e-05 5.00000000e-02)	22	6.72376829e+02	(2.88500438e+00 4.27409249e-02 5.00000000e-02)	52874	1.00000000e+00	(2.66080727e-02 1.11720124e-01 5.00000000e-02)	62041