/*--------------------------------*- C++ -*----------------------------------*\
  =========                 |
  \\      /  F ield         | OpenFOAM: The Open Source CFD Toolbox
   \\    /   O peration     | Website:  https://openfoam.org
    \\  /    A nd           | Version:  12
     \\/     M anipulation  |
\*---------------------------------------------------------------------------*/
FoamFile
{
    format      ascii;
    class       volScalarField;
    location    "1500";
    object      nut;
}
// * * * * * * * * * * * * * * * * * * * * * * * * * * * * * * * * * * * * * //

dimensions      [0 2 -1 0 0 0 0];

internalField   nonuniform List<scalar> 
7480
(
1.4105038e-10
1.375643e-10
1.3418152e-10
1.3129145e-10
1.2924487e-10
1.2823119e-10
1.1545712e-10
9.9534128e-11
8.8207446e-11
7.9293844e-11
7.5293981e-11
6.1317455e-11
2.3446469e-07
3.4420541e-06
5.5164708e-06
6.8687343e-06
7.6634925e-06
8.0701458e-06
8.2791188e-06
8.2717346e-06
8.2274402e-06
8.144676e-06
7.8462974e-06
7.2032319e-06
6.6521262e-06
6.1828482e-06
5.7888811e-06
5.4743377e-06
5.2180236e-06
5.0087673e-06
4.8409043e-06
4.7108595e-06
4.6150649e-06
4.5496689e-06
4.510598e-06
4.4938351e-06
4.4952554e-06
4.5104769e-06
4.5385551e-06
4.5789769e-06
4.6296962e-06
4.6881212e-06
4.7517659e-06
4.8187375e-06
4.8885207e-06
4.958126e-06
5.0266593e-06
5.0929904e-06
5.1557525e-06
5.2136687e-06
5.2684735e-06
5.3186734e-06
5.3625847e-06
5.3992834e-06
5.4286839e-06
5.4513634e-06
5.4681937e-06
5.4802254e-06
5.4893445e-06
5.4966443e-06
5.5024225e-06
5.50668e-06
5.5095101e-06
5.5111395e-06
5.5117956e-06
5.5116514e-06
5.5108449e-06
5.5097165e-06
5.5085567e-06
5.5073099e-06
5.5057517e-06
5.503729e-06
5.5011948e-06
5.4981661e-06
5.4947016e-06
5.4909624e-06
5.4870878e-06
5.4830529e-06
5.4787412e-06
5.4740816e-06
5.4690806e-06
5.4637823e-06
5.4583147e-06
5.4527451e-06
5.4470198e-06
5.4410741e-06
5.4348758e-06
5.4284532e-06
5.4219125e-06
5.4152845e-06
5.4085222e-06
5.401585e-06
5.3944626e-06
5.3871896e-06
5.3798468e-06
5.3722171e-06
5.3647467e-06
5.3555627e-06
5.349164e-06
5.333356e-06
5.7558527e-10
5.7085663e-10
5.6554589e-10
5.5995561e-10
5.5416004e-10
5.4818088e-10
5.4206765e-10
5.3582142e-10
5.2955781e-10
5.227844e-10
5.177135e-10
5.047836e-10
2.0780411e-08
4.9306324e-07
2.1715428e-06
4.1967562e-06
5.1955859e-06
5.4049233e-06
5.2517836e-06
5.0688888e-06
4.9863388e-06
4.9849188e-06
5.0521383e-06
5.1772827e-06
5.4305525e-06
5.7895772e-06
6.2644366e-06
6.9047963e-06
7.2467421e-06
7.6259859e-06
8.0295135e-06
8.4448179e-06
8.8622528e-06
9.2745211e-06
9.676482e-06
1.0066032e-05
1.0439527e-05
1.0799738e-05
1.1155636e-05
1.1510133e-05
1.1856079e-05
1.2188081e-05
1.2504068e-05
1.2804432e-05
1.3095587e-05
1.3357261e-05
1.3604868e-05
1.3831222e-05
1.4035416e-05
1.4218339e-05
1.437912e-05
1.4516159e-05
1.4630798e-05
1.4725813e-05
1.4804505e-05
1.4870123e-05
1.4925396e-05
1.497329e-05
1.5017958e-05
1.5058998e-05
1.5095975e-05
1.5129042e-05
1.515879e-05
1.5185843e-05
1.5210658e-05
1.5233527e-05
1.5254706e-05
1.5274651e-05
1.5293136e-05
1.5309473e-05
1.5323352e-05
1.533492e-05
1.5344474e-05
1.5352294e-05
1.5358683e-05
1.5363907e-05
1.5367836e-05
1.5370123e-05
1.5370654e-05
1.5369628e-05
1.5367317e-05
1.5364011e-05
1.5359888e-05
1.5354751e-05
1.5348361e-05
1.534074e-05
1.5332066e-05
1.5322638e-05
1.5312604e-05
1.5301788e-05
1.5290032e-05
1.5277382e-05
1.5264031e-05
1.5250163e-05
1.5235689e-05
1.5220481e-05
1.5204524e-05
1.5186945e-05
1.5172668e-05
1.5139687e-05
5.7868719e-10
5.7844027e-10
5.7816444e-10
5.7786238e-10
5.7753485e-10
5.7718132e-10
5.7679913e-10
5.7639312e-10
5.7593475e-10
5.7551901e-10
5.7468289e-10
5.754208e-10
3.4226124e-10
1.1549751e-09
1.7565313e-08
1.1907338e-07
4.8192774e-07
1.151775e-06
1.9679485e-06
2.6257173e-06
2.9737191e-06
3.0830527e-06
3.0643184e-06
2.9952661e-06
2.9287124e-06
2.9515537e-06
3.0597536e-06
3.2646333e-06
3.5541147e-06
3.9233044e-06
4.3856539e-06
4.8905364e-06
5.454303e-06
6.0817558e-06
6.7751613e-06
7.5365618e-06
8.3750231e-06
9.3109937e-06
1.0192787e-05
1.1052443e-05
1.1929896e-05
1.2804782e-05
1.3660862e-05
1.4495108e-05
1.5309455e-05
1.6107245e-05
1.6872627e-05
1.7587301e-05
1.826229e-05
1.8899555e-05
1.9372288e-05
1.9797665e-05
2.018468e-05
2.0538916e-05
2.0863887e-05
2.1162665e-05
2.1439279e-05
2.1697521e-05
2.1936838e-05
2.2157764e-05
2.2362127e-05
2.2552184e-05
2.2729968e-05
2.2897179e-05
2.3054965e-05
2.3204047e-05
2.3345193e-05
2.3477995e-05
2.3601748e-05
2.3716654e-05
2.3823451e-05
2.3922931e-05
2.4015808e-05
2.4102691e-05
2.4184245e-05
2.4260347e-05
2.4330392e-05
2.4394441e-05
2.4453085e-05
2.4506989e-05
2.4556635e-05
2.4602578e-05
2.4644637e-05
2.4682349e-05
2.4715783e-05
2.4745449e-05
2.4771824e-05
2.4795466e-05
2.4816217e-05
2.4833688e-05
2.4847966e-05
2.4859454e-05
2.4868631e-05
2.4875651e-05
2.4880085e-05
2.4882284e-05
2.4881223e-05
2.487992e-05
2.4872595e-05
2.4860223e-05
5.8231879e-10
5.8227856e-10
5.8224018e-10
5.8219595e-10
5.8214291e-10
5.8208014e-10
5.8200707e-10
5.8192372e-10
5.8182818e-10
5.817261e-10
5.8159233e-10
5.8152313e-10
5.8114125e-10
5.761757e-10
5.8968414e-10
6.9021758e-10
1.4095479e-09
5.1051767e-09
2.01613e-08
5.9208634e-08
1.3277619e-07
2.4538573e-07
3.9568521e-07
5.7668772e-07
7.8110554e-07
9.8889813e-07
1.1858137e-06
1.3684394e-06
1.5394561e-06
1.7040794e-06
1.8717376e-06
2.050154e-06
2.2456775e-06
2.4990894e-06
2.8169902e-06
3.2042396e-06
3.6754062e-06
4.2435881e-06
4.9067936e-06
5.6891383e-06
6.6127801e-06
7.6838316e-06
8.8487085e-06
9.8862981e-06
1.0976931e-05
1.2110391e-05
1.3272686e-05
1.4440458e-05
1.5606874e-05
1.6760308e-05
1.7886096e-05
1.8982319e-05
2.0007245e-05
2.0976372e-05
2.1901753e-05
2.2782478e-05
2.3619393e-05
2.4388486e-05
2.5000683e-05
2.5570623e-05
2.6105618e-05
2.6611544e-05
2.7092e-05
2.7548836e-05
2.7983246e-05
2.8396822e-05
2.8791895e-05
2.9167469e-05
2.9521992e-05
2.9856329e-05
3.0172283e-05
3.0471605e-05
3.075571e-05
3.1025655e-05
3.1282578e-05
3.1526307e-05
3.1756181e-05
3.197269e-05
3.217687e-05
3.2369762e-05
3.2552198e-05
3.272517e-05
3.2888358e-05
3.3041359e-05
3.3184624e-05
3.3319031e-05
3.3445311e-05
3.356435e-05
3.3675844e-05
3.377946e-05
3.3875598e-05
3.3964969e-05
3.4048332e-05
3.4125859e-05
3.4196986e-05
3.4262555e-05
3.4320736e-05
3.4378512e-05
3.441566e-05
3.4483841e-05
5.8572228e-10
5.8569798e-10
5.8567588e-10
5.8564798e-10
5.8561232e-10
5.8556834e-10
5.855158e-10
5.854545e-10
5.8538441e-10
5.8530479e-10
5.8521788e-10
5.8511343e-10
5.8503207e-10
5.8486005e-10
5.8470386e-10
5.8467925e-10
5.850805e-10
5.8749622e-10
6.0163226e-10
6.5724456e-10
8.2304344e-10
1.2395694e-09
2.1655178e-09
4.0397042e-09
7.5354473e-09
1.3606022e-08
2.3515632e-08
3.8948064e-08
6.2206159e-08
9.6379146e-08
1.4594562e-07
2.1708034e-07
3.1860604e-07
4.5779336e-07
6.4183967e-07
8.7390295e-07
1.1550589e-06
1.4711926e-06
1.8379201e-06
2.2209413e-06
2.627307e-06
3.1147788e-06
3.7168708e-06
4.4429088e-06
5.2967542e-06
6.30146e-06
7.4864648e-06
8.8450249e-06
9.9540249e-06
1.1148421e-05
1.2417507e-05
1.3747883e-05
1.5109313e-05
1.6490627e-05
1.7873747e-05
1.9240823e-05
2.0592425e-05
2.1877639e-05
2.3113185e-05
2.4312336e-05
2.5470688e-05
2.6580894e-05
2.7628652e-05
2.862102e-05
2.9570532e-05
3.0484029e-05
3.1367387e-05
3.2136833e-05
3.2825678e-05
3.3480703e-05
3.4105966e-05
3.4704069e-05
3.5276449e-05
3.5824219e-05
3.6349323e-05
3.68508e-05
3.7327137e-05
3.77796e-05
3.8210171e-05
3.862059e-05
3.9012148e-05
3.938636e-05
3.9742512e-05
4.0080226e-05
4.0400422e-05
4.0704428e-05
4.0993331e-05
4.1268461e-05
4.1529285e-05
4.1775647e-05
4.2008351e-05
4.2228443e-05
4.2436999e-05
4.2634192e-05
4.2819409e-05
4.299415e-05
4.3155535e-05
4.3316036e-05
4.3433703e-05
4.3644101e-05
5.8690227e-10
5.8688415e-10
5.8686918e-10
5.8684894e-10
5.8682134e-10
5.8678576e-10
5.8674195e-10
5.8668976e-10
5.8662907e-10
5.8655979e-10
5.8648176e-10
5.8639558e-10
5.862988e-10
5.8620495e-10
5.8608658e-10
5.8590353e-10
5.8571116e-10
5.8556008e-10
5.8547267e-10
5.8546873e-10
5.8562493e-10
5.8619913e-10
5.8765063e-10
5.9113222e-10
5.9875155e-10
6.1422281e-10
6.437837e-10
6.9783391e-10
7.9383246e-10
9.6154697e-10
1.2540999e-09
1.7697325e-09
2.699536e-09
4.4197777e-09
7.692391e-09
1.3974437e-08
2.6209286e-08
4.9371546e-08
9.3316986e-08
1.7431268e-07
3.1400288e-07
5.3555562e-07
8.6513726e-07
1.2963277e-06
1.8516976e-06
2.4316808e-06
3.0025244e-06
3.6692405e-06
4.4608906e-06
5.4019553e-06
6.5322805e-06
7.8644507e-06
9.4382502e-06
1.0747046e-05
1.2029639e-05
1.3399778e-05
1.4846889e-05
1.6343721e-05
1.7890186e-05
1.9460933e-05
2.1032097e-05
2.2577143e-05
2.4051493e-05
2.5517167e-05
2.6973229e-05
2.8405538e-05
2.9787148e-05
3.1109147e-05
3.2377245e-05
3.3599063e-05
3.4777712e-05
3.590626e-05
3.6984621e-05
3.801917e-05
3.9021019e-05
3.9915501e-05
4.0718584e-05
4.1486689e-05
4.2222975e-05
4.2929595e-05
4.3607878e-05
4.4259899e-05
4.4883188e-05
4.5477267e-05
4.6044055e-05
4.658565e-05
4.7103601e-05
4.7599769e-05
4.8072962e-05
4.8523158e-05
4.8951668e-05
4.9359972e-05
4.9749572e-05
5.012059e-05
5.0472365e-05
5.0807118e-05
5.1120761e-05
5.1432611e-05
5.1672246e-05
5.2093873e-05
5.8671883e-10
5.8670275e-10
5.866901e-10
5.8667242e-10
5.8664755e-10
5.8661489e-10
5.8657419e-10
5.8652531e-10
5.8646814e-10
5.8640261e-10
5.8632871e-10
5.8624664e-10
5.8615675e-10
5.8605986e-10
5.8595608e-10
5.8584429e-10
5.8572103e-10
5.8558955e-10
5.8540164e-10
5.8516848e-10
5.8492318e-10
5.8468162e-10
5.844975e-10
5.8433668e-10
5.8420829e-10
5.8415267e-10
5.8414344e-10
5.842022e-10
5.8438551e-10
5.8479091e-10
5.8561328e-10
5.8710172e-10
5.8989096e-10
5.9515654e-10
6.0531532e-10
6.2518745e-10
6.6548889e-10
7.4836358e-10
9.2570522e-10
1.3219827e-09
2.2682505e-09
4.5682508e-09
1.0544169e-08
2.5278952e-08
6.2163397e-08
1.4815448e-07
3.2039541e-07
6.2827349e-07
1.0953579e-06
1.7491215e-06
2.479917e-06
3.1622201e-06
3.9416496e-06
4.8557035e-06
5.9617681e-06
7.3048733e-06
8.8844447e-06
1.0740022e-05
1.2205493e-05
1.3599534e-05
1.5097318e-05
1.6684616e-05
1.8334952e-05
2.0050504e-05
2.1793216e-05
2.3542793e-05
2.5228597e-05
2.6921614e-05
2.8633418e-05
3.0338902e-05
3.199525e-05
3.359889e-05
3.5163255e-05
3.6693711e-05
3.8187117e-05
3.9623405e-05
4.0995047e-05
4.2312068e-05
4.3580929e-05
4.4800529e-05
4.5971108e-05
4.7102563e-05
4.8092784e-05
4.9010656e-05
4.9891527e-05
5.0738026e-05
5.1551851e-05
5.2335326e-05
5.3084936e-05
5.3801168e-05
5.4486378e-05
5.5142627e-05
5.5771927e-05
5.6373973e-05
5.6947863e-05
5.7496642e-05
5.8015037e-05
5.8530388e-05
5.8937462e-05
5.9644902e-05
5.8655503e-10
5.8653849e-10
5.8652527e-10
5.8650695e-10
5.8648139e-10
5.86448e-10
5.8640652e-10
5.8635681e-10
5.8629877e-10
5.8623231e-10
5.861574e-10
5.8607411e-10
5.8598268e-10
5.8588331e-10
5.857759e-10
5.856602e-10
5.855359e-10
5.8540286e-10
5.8526008e-10
5.8510614e-10
5.8494004e-10
5.8476009e-10
5.8456463e-10
5.8434756e-10
5.8409544e-10
5.8377906e-10
5.8344266e-10
5.8309944e-10
5.8275624e-10
5.8242197e-10
5.8210723e-10
5.8184947e-10
5.8161513e-10
5.8140562e-10
5.8125421e-10
5.811737e-10
5.8115981e-10
5.8126899e-10
5.8164339e-10
5.8261206e-10
5.8491784e-10
5.9053975e-10
6.0533311e-10
6.4445885e-10
7.505531e-10
1.0675934e-09
2.0080408e-09
5.0379983e-09
1.4381357e-08
4.2684853e-08
1.2282886e-07
3.0284956e-07
6.5491905e-07
1.2016811e-06
2.0053283e-06
2.8022165e-06
3.6122048e-06
4.5762735e-06
5.7363198e-06
7.1422527e-06
8.8245808e-06
1.0788757e-05
1.29071e-05
1.4347581e-05
1.5907434e-05
1.7581167e-05
1.93388e-05
2.1187956e-05
2.3091772e-05
2.5022692e-05
2.6901146e-05
2.88066e-05
3.0746052e-05
3.2686573e-05
3.4581417e-05
3.6444981e-05
3.8289171e-05
4.0104393e-05
4.1872551e-05
4.3584513e-05
4.524397e-05
4.6860848e-05
4.8416432e-05
4.9901637e-05
5.1325744e-05
5.2697098e-05
5.4016625e-05
5.5291311e-05
5.6394837e-05
5.7436618e-05
5.8438312e-05
5.940217e-05
6.0330605e-05
6.1221583e-05
6.2073855e-05
6.2891881e-05
6.366937e-05
6.444253e-05
6.5065147e-05
6.6136601e-05
5.8664471e-10
5.8662776e-10
5.8661408e-10
5.8659523e-10
5.865691e-10
5.8653508e-10
5.8649293e-10
5.8644249e-10
5.8638365e-10
5.8631631e-10
5.862404e-10
5.8615591e-10
5.8606293e-10
5.8596148e-10
5.8585136e-10
5.8573223e-10
5.8560382e-10
5.8546599e-10
5.8531878e-10
5.8516226e-10
5.8499636e-10
5.8482094e-10
5.8463559e-10
5.8443985e-10
5.8423311e-10
5.8401364e-10
5.8378048e-10
5.8353309e-10
5.8327099e-10
5.8299364e-10
5.8269978e-10
5.8238849e-10
5.8205549e-10
5.816942e-10
5.812793e-10
5.8081482e-10
5.8033745e-10
5.798605e-10
5.7939449e-10
5.7896682e-10
5.7861598e-10
5.7830322e-10
5.7808753e-10
5.7799289e-10
5.7806547e-10
5.7862375e-10
5.8049103e-10
5.8656662e-10
6.0808251e-10
6.7369183e-10
9.2974429e-10
1.759453e-09
5.1154086e-09
1.6125757e-08
5.5706442e-08
1.7043898e-07
4.3305126e-07
9.1479085e-07
1.7134929e-06
2.6404918e-06
3.5477723e-06
4.5662803e-06
5.8508057e-06
7.4046846e-06
9.2703041e-06
1.1440883e-05
1.389554e-05
1.5602756e-05
1.7271268e-05
1.9067992e-05
2.0962784e-05
2.2964501e-05
2.5029607e-05
2.7116897e-05
2.9166074e-05
3.1285926e-05
3.3459007e-05
3.5629193e-05
3.7769584e-05
3.988972e-05
4.1991266e-05
4.4060506e-05
4.6089461e-05
4.807009e-05
5.0003044e-05
5.1879808e-05
5.3693332e-05
5.5452716e-05
5.714132e-05
5.8755888e-05
6.0303731e-05
6.1793496e-05
6.3233485e-05
6.4520413e-05
6.5705015e-05
6.6846703e-05
6.7937834e-05
6.9023682e-05
6.991079e-05
7.1425632e-05
5.8680083e-10
5.8678391e-10
5.8677026e-10
5.8675143e-10
5.8672532e-10
5.8669131e-10
5.8664917e-10
5.8659873e-10
5.8653988e-10
5.8647251e-10
5.8639655e-10
5.8631198e-10
5.8621883e-10
5.8611708e-10
5.8600658e-10
5.85887e-10
5.8575808e-10
5.8561967e-10
5.8547168e-10
5.8531403e-10
5.8514664e-10
5.8496943e-10
5.8478236e-10
5.8458536e-10
5.8437841e-10
5.8416161e-10
5.8393492e-10
5.8369818e-10
5.8345119e-10
5.8319369e-10
5.8292539e-10
5.8264577e-10
5.8235432e-10
5.8205055e-10
5.8173323e-10
5.8140077e-10
5.8105241e-10
5.8068768e-10
5.8030587e-10
5.7990583e-10
5.7948381e-10
5.7903453e-10
5.7850633e-10
5.7791469e-10
5.7731613e-10
5.7672952e-10
5.7627964e-10
5.7587707e-10
5.7564499e-10
5.7554552e-10
5.7593378e-10
5.772224e-10
5.8409646e-10
6.0654819e-10
7.0376054e-10
1.0684634e-09
2.6898682e-09
8.7425245e-09
3.4044277e-08
1.2218169e-07
3.5853679e-07
8.2386581e-07
1.6712523e-06
2.6955593e-06
3.7195007e-06
4.8700577e-06
6.3408438e-06
8.1431273e-06
1.0310361e-05
1.2791535e-05
1.5530442e-05
1.7396878e-05
1.9223016e-05
2.117763e-05
2.3236858e-05
2.5405392e-05
2.7641837e-05
2.9879683e-05
3.2157742e-05
3.4516886e-05
3.6914133e-05
3.9293287e-05
4.1669376e-05
4.4050009e-05
4.6416862e-05
4.8740082e-05
5.1013139e-05
5.3243421e-05
5.5434125e-05
5.7562522e-05
5.9625385e-05
6.1623824e-05
6.3559054e-05
6.5415402e-05
6.7190189e-05
6.8892451e-05
7.052584e-05
7.212991e-05
7.3347512e-05
7.5383392e-05
5.8697479e-10
5.8695794e-10
5.8694435e-10
5.869256e-10
5.8689955e-10
5.868656e-10
5.8682351e-10
5.8677312e-10
5.8671432e-10
5.8664699e-10
5.8657107e-10
5.8648649e-10
5.8639327e-10
5.8629138e-10
5.8618068e-10
5.860609e-10
5.8593181e-10
5.8579324e-10
5.8564511e-10
5.8548732e-10
5.8531977e-10
5.8514237e-10
5.8495502e-10
5.8475765e-10
5.8455018e-10
5.8433253e-10
5.8410464e-10
5.8386645e-10
5.8361791e-10
5.8335898e-10
5.8308961e-10
5.8280976e-10
5.8251939e-10
5.8221847e-10
5.8190709e-10
5.8158531e-10
5.8125307e-10
5.8091018e-10
5.8055641e-10
5.8019142e-10
5.7981449e-10
5.7942518e-10
5.7902151e-10
5.7860099e-10
5.7816239e-10
5.7770403e-10
5.772222e-10
5.7671715e-10
5.760854e-10
5.7539958e-10
5.7469732e-10
5.7415893e-10
5.7369956e-10
5.7341955e-10
5.7339396e-10
5.7384962e-10
5.7674495e-10
5.8899571e-10
6.4037255e-10
8.9164898e-10
2.0618514e-09
7.1282601e-09
3.0078063e-08
1.2010352e-07
3.8287661e-07
9.0999473e-07
1.9129184e-06
3.0059838e-06
4.1794576e-06
5.5604623e-06
7.3490199e-06
9.5302136e-06
1.2118664e-05
1.4989833e-05
1.7912193e-05
1.9800973e-05
2.1823432e-05
2.3963574e-05
2.6220585e-05
2.8575584e-05
3.0983952e-05
3.3400475e-05
3.593048e-05
3.8542602e-05
4.1158023e-05
4.3782486e-05
4.6422556e-05
4.9058011e-05
5.166754e-05
5.4241637e-05
5.6779119e-05
5.9261204e-05
6.1676405e-05
6.4038856e-05
6.6340545e-05
6.8566487e-05
7.0714263e-05
7.2821953e-05
7.4651934e-05
7.75509e-05
5.8717976e-10
5.8716295e-10
5.871494e-10
5.8713069e-10
5.8710468e-10
5.8707075e-10
5.8702867e-10
5.8697829e-10
5.8691947e-10
5.8685212e-10
5.8677615e-10
5.8669149e-10
5.8659811e-10
5.8649597e-10
5.8638493e-10
5.8626477e-10
5.8613527e-10
5.8599628e-10
5.858477e-10
5.8568944e-10
5.8552142e-10
5.8534353e-10
5.8515568e-10
5.849578e-10
5.847498e-10
5.8453159e-10
5.843031e-10
5.8406423e-10
5.8381492e-10
5.8355509e-10
5.832847e-10
5.8300368e-10
5.8271199e-10
5.8240959e-10
5.8209645e-10
5.8177258e-10
5.8143796e-10
5.8109262e-10
5.8073658e-10
5.8036984e-10
5.7999245e-10
5.7960443e-10
5.7920598e-10
5.7879733e-10
5.7837839e-10
5.7794905e-10
5.7750817e-10
5.770557e-10
5.7658762e-10
5.7610151e-10
5.755933e-10
5.7506324e-10
5.7450503e-10
5.7380549e-10
5.7303315e-10
5.7228555e-10
5.7172097e-10
5.712679e-10
5.7109835e-10
5.7128329e-10
5.7333913e-10
5.8240142e-10
6.3051895e-10
8.9027436e-10
2.2561782e-09
8.6795506e-09
3.9662885e-08
1.6634563e-07
5.1804888e-07
1.2612122e-06
2.4701316e-06
3.7220341e-06
5.1194963e-06
6.8693561e-06
9.1251745e-06
1.1871884e-05
1.4926584e-05
1.8173071e-05
2.0738787e-05
2.2869573e-05
2.5119147e-05
2.747281e-05
2.9948385e-05
3.2514872e-05
3.5075657e-05
3.778253e-05
4.0602036e-05
4.3443271e-05
4.6310716e-05
4.9214278e-05
5.2129348e-05
5.5017642e-05
5.7869281e-05
6.0693533e-05
6.3473101e-05
6.619003e-05
6.8835683e-05
7.1442552e-05
7.3764626e-05
7.7487956e-05
5.8740099e-10
5.8738427e-10
5.8737081e-10
5.8735218e-10
5.8732625e-10
5.872924e-10
5.8725039e-10
5.8720007e-10
5.8714132e-10
5.8707401e-10
5.8699807e-10
5.8691342e-10
5.8682e-10
5.8671776e-10
5.8660658e-10
5.8648625e-10
5.8635658e-10
5.8621741e-10
5.8606865e-10
5.859102e-10
5.8574196e-10
5.8556384e-10
5.8537576e-10
5.8517762e-10
5.8496935e-10
5.8475085e-10
5.8452205e-10
5.8428286e-10
5.8403322e-10
5.8377304e-10
5.8350228e-10
5.8322086e-10
5.8292874e-10
5.8262587e-10
5.823122e-10
5.819877e-10
5.8165234e-10
5.8130611e-10
5.8094899e-10
5.8058098e-10
5.8020208e-10
5.7981231e-10
5.7941171e-10
5.7900033e-10
5.7857825e-10
5.7814555e-10
5.7770236e-10
5.7724866e-10
5.7678496e-10
5.7631149e-10
5.7582833e-10
5.7533427e-10
5.7482898e-10
5.7430787e-10
5.7376643e-10
5.7320184e-10
5.7261161e-10
5.7196072e-10
5.7113611e-10
5.7027929e-10
5.6965672e-10
5.6911539e-10
5.6894104e-10
5.6899949e-10
5.7170596e-10
5.8156063e-10
6.537987e-10
1.071454e-09
3.4337184e-09
1.6150132e-08
7.6668109e-08
3.1336955e-07
8.7815992e-07
2.0538934e-06
3.4009852e-06
4.8913231e-06
6.7211426e-06
9.0747028e-06
1.202865e-05
1.5326745e-05
1.8809264e-05
2.2069596e-05
2.4339569e-05
2.6713706e-05
2.91777e-05
3.1785351e-05
3.450331e-05
3.7232451e-05
4.0124395e-05
4.3152892e-05
4.6220855e-05
4.9337554e-05
5.2504366e-05
5.5689585e-05
5.8860392e-05
6.2009616e-05
6.5117671e-05
6.8209057e-05
7.0970375e-05
7.5481199e-05
5.8761552e-10
5.8759891e-10
5.8758558e-10
5.8756707e-10
5.8754126e-10
5.8750754e-10
5.8746565e-10
5.8741545e-10
5.8735681e-10
5.8728963e-10
5.872138e-10
5.8712924e-10
5.870359e-10
5.8693371e-10
5.8682256e-10
5.8670227e-10
5.8657265e-10
5.8643356e-10
5.8628489e-10
5.8612653e-10
5.859584e-10
5.8578039e-10
5.8559241e-10
5.8539438e-10
5.851862e-10
5.8496779e-10
5.8473907e-10
5.8449996e-10
5.8425038e-10
5.8399026e-10
5.8371955e-10
5.8343817e-10
5.8314609e-10
5.8284324e-10
5.8252958e-10
5.8220509e-10
5.8186973e-10
5.8152348e-10
5.8116632e-10
5.8079825e-10
5.8041926e-10
5.8002935e-10
5.7962853e-10
5.7921683e-10
5.7879425e-10
5.7836084e-10
5.7791664e-10
5.7746169e-10
5.7699607e-10
5.765199e-10
5.7603332e-10
5.7553648e-10
5.7502943e-10
5.7451281e-10
5.7398697e-10
5.734518e-10
5.7290582e-10
5.7234781e-10
5.7177047e-10
5.7116937e-10
5.7054e-10
5.6987778e-10
5.6898904e-10
5.680752e-10
5.6741373e-10
5.6686162e-10
5.6665347e-10
5.6719588e-10
5.7051524e-10
5.9598404e-10
7.5908442e-10
1.8382886e-09
8.225487e-09
4.6101052e-08
2.1288218e-07
6.9025781e-07
1.8383961e-06
3.2754911e-06
4.890138e-06
6.87201e-06
9.4013654e-06
1.2650411e-05
1.6249599e-05
1.999936e-05
2.3795821e-05
2.6237382e-05
2.8748902e-05
3.1345718e-05
3.4097253e-05
3.697249e-05
3.9875233e-05
4.298129e-05
4.6237559e-05
4.9548741e-05
5.292876e-05
5.6372321e-05
5.9827744e-05
6.3325647e-05
6.6472648e-05
7.1713582e-05
5.8781597e-10
5.8779947e-10
5.8778626e-10
5.8776788e-10
5.8774219e-10
5.8770859e-10
5.8766683e-10
5.8761675e-10
5.8755823e-10
5.8749117e-10
5.8741546e-10
5.8733101e-10
5.8723777e-10
5.8713565e-10
5.8702455e-10
5.8690431e-10
5.8677478e-10
5.8663579e-10
5.8648724e-10
5.8632902e-10
5.8616103e-10
5.8598317e-10
5.8579535e-10
5.8559747e-10
5.8538946e-10
5.8517121e-10
5.8494266e-10
5.8470372e-10
5.8445431e-10
5.8419436e-10
5.8392381e-10
5.8364261e-10
5.8335068e-10
5.83048e-10
5.827345e-10
5.8241017e-10
5.8207497e-10
5.8172887e-10
5.8137187e-10
5.8100395e-10
5.8062512e-10
5.8023536e-10
5.7983471e-10
5.7942316e-10
5.7900075e-10
5.7856749e-10
5.7812343e-10
5.776686e-10
5.7720305e-10
5.7672683e-10
5.7623998e-10
5.7574259e-10
5.7523472e-10
5.7471649e-10
5.7418806e-10
5.7364963e-10
5.7310135e-10
5.7254346e-10
5.7197676e-10
5.7140177e-10
5.7081625e-10
5.7022057e-10
5.6960446e-10
5.6896468e-10
5.6829248e-10
5.6757908e-10
5.6663182e-10
5.6568409e-10
5.6502132e-10
5.6437637e-10
5.6534049e-10
5.6290064e-10
5.765616e-10
6.6907737e-10
1.3008894e-09
5.4866407e-09
3.4925131e-08
1.7509605e-07
6.2659108e-07
1.824189e-06
3.3757094e-06
5.1533266e-06
7.3603973e-06
1.0192692e-05
1.3816713e-05
1.7762726e-05
2.1800544e-05
2.5854663e-05
2.8547388e-05
3.1214816e-05
3.3974654e-05
3.6903632e-05
3.9952932e-05
4.3072665e-05
4.6415585e-05
4.9904358e-05
5.34672e-05
5.7188634e-05
6.0580944e-05
6.6397264e-05
5.8800292e-10
5.8798652e-10
5.8797342e-10
5.8795515e-10
5.8792958e-10
5.8789609e-10
5.8785443e-10
5.8780447e-10
5.8774606e-10
5.8767911e-10
5.876035e-10
5.8751915e-10
5.8742598e-10
5.8732392e-10
5.8721286e-10
5.8709267e-10
5.8696319e-10
5.8682427e-10
5.8667579e-10
5.8651766e-10
5.8634977e-10
5.8617201e-10
5.8598429e-10
5.8578653e-10
5.8557863e-10
5.853605e-10
5.8513206e-10
5.8489323e-10
5.8464394e-10
5.8438411e-10
5.8411368e-10
5.8383259e-10
5.8354079e-10
5.8323822e-10
5.8292485e-10
5.8260063e-10
5.8226555e-10
5.8191957e-10
5.8156269e-10
5.8119489e-10
5.8081617e-10
5.8042654e-10
5.80026e-10
5.7961458e-10
5.7919229e-10
5.7875917e-10
5.7831525e-10
5.7786056e-10
5.7739516e-10
5.769191e-10
5.7643243e-10
5.7593521e-10
5.7542752e-10
5.7490941e-10
5.7438097e-10
5.7384227e-10
5.7329342e-10
5.7273451e-10
5.7216572e-10
5.7158728e-10
5.7099944e-10
5.7040228e-10
5.6979691e-10
5.6918393e-10
5.6856089e-10
5.679272e-10
5.6727378e-10
5.6658746e-10
5.6589005e-10
5.6502742e-10
5.6390166e-10
5.6307503e-10
5.6243706e-10
5.6219566e-10
5.6311813e-10
5.6860108e-10
6.3790504e-10
1.1331404e-09
4.7291626e-09
3.3993551e-08
1.7898412e-07
6.7194183e-07
2.0340246e-06
3.752911e-06
5.737171e-06
8.2509776e-06
1.1567246e-05
1.5612513e-05
1.9914553e-05
2.4238746e-05
2.8521823e-05
3.1331279e-05
3.4159363e-05
3.7103107e-05
4.0222879e-05
4.3450719e-05
4.6827307e-05
5.0508852e-05
5.3882588e-05
5.9959351e-05
5.8817738e-10
5.8816109e-10
5.8814809e-10
5.8812992e-10
5.8810446e-10
5.8807107e-10
5.8802952e-10
5.8797965e-10
5.8792135e-10
5.8785449e-10
5.8777898e-10
5.8769471e-10
5.8760162e-10
5.8749961e-10
5.873886e-10
5.8726844e-10
5.8713899e-10
5.8700011e-10
5.868517e-10
5.8669363e-10
5.865258e-10
5.8634812e-10
5.8616048e-10
5.8596279e-10
5.8575496e-10
5.8553691e-10
5.8530855e-10
5.850698e-10
5.8482058e-10
5.8456083e-10
5.8429048e-10
5.8400947e-10
5.8371774e-10
5.8341524e-10
5.8310194e-10
5.827778e-10
5.8244278e-10
5.8209688e-10
5.8174006e-10
5.8137233e-10
5.8099368e-10
5.8060412e-10
5.8020364e-10
5.7979229e-10
5.7937006e-10
5.78937e-10
5.7849314e-10
5.7803852e-10
5.7757319e-10
5.7709719e-10
5.7661059e-10
5.7611345e-10
5.7560584e-10
5.7508783e-10
5.7455949e-10
5.7402092e-10
5.7347218e-10
5.7291338e-10
5.723446e-10
5.7176594e-10
5.7117753e-10
5.7057946e-10
5.6997194e-10
5.6935525e-10
5.6872968e-10
5.6809532e-10
5.6745357e-10
5.6680448e-10
5.6614563e-10
5.6547775e-10
5.6476565e-10
5.6405665e-10
5.6328803e-10
5.6222406e-10
5.6125378e-10
5.6050248e-10
5.6017655e-10
5.6090286e-10
5.6501751e-10
6.3381822e-10
1.155636e-09
5.3129526e-09
4.2732097e-08
2.2831513e-07
8.6621823e-07
2.4926114e-06
4.4400845e-06
6.7564257e-06
9.7222835e-06
1.3610041e-05
1.8095523e-05
2.2738143e-05
2.734651e-05
3.1570815e-05
3.4560431e-05
3.7583411e-05
4.074778e-05
4.4141905e-05
4.7207527e-05
5.3120025e-05
5.8834023e-10
5.8832402e-10
5.8831112e-10
5.8829305e-10
5.8826768e-10
5.8823439e-10
5.8819293e-10
5.8814316e-10
5.8808495e-10
5.8801818e-10
5.8794276e-10
5.8785857e-10
5.8776555e-10
5.8766359e-10
5.8755261e-10
5.8743248e-10
5.8730306e-10
5.8716422e-10
5.8701584e-10
5.8685782e-10
5.8669004e-10
5.8651241e-10
5.8632482e-10
5.8612719e-10
5.8591942e-10
5.8570142e-10
5.8547312e-10
5.8523442e-10
5.8498526e-10
5.8472556e-10
5.8445526e-10
5.841743e-10
5.8388262e-10
5.8358017e-10
5.8326692e-10
5.8294282e-10
5.8260785e-10
5.8226199e-10
5.8190522e-10
5.8153753e-10
5.8115891e-10
5.8076938e-10
5.8036895e-10
5.7995762e-10
5.7953543e-10
5.791024e-10
5.7865857e-10
5.7820398e-10
5.7773867e-10
5.772627e-10
5.7677612e-10
5.7627901e-10
5.7577142e-10
5.7525343e-10
5.7472512e-10
5.7418656e-10
5.7363786e-10
5.730791e-10
5.7251037e-10
5.7193177e-10
5.7134342e-10
5.7074541e-10
5.7013787e-10
5.6952089e-10
5.6889461e-10
5.6825918e-10
5.676148e-10
5.669619e-10
5.6630046e-10
5.6563155e-10
5.649564e-10
5.6427381e-10
5.6358248e-10
5.6287021e-10
5.6211766e-10
5.6136999e-10
5.6027799e-10
5.5921258e-10
5.583977e-10
5.5810006e-10
5.586187e-10
5.640157e-10
6.5606641e-10
1.4020892e-09
8.0761065e-09
6.9078586e-08
3.5455909e-07
1.37929e-06
3.2499428e-06
5.457568e-06
8.2241125e-06
1.1882603e-05
1.6407616e-05
2.1351618e-05
2.6303612e-05
3.1198932e-05
3.5142736e-05
3.8345131e-05
4.1259131e-05
4.6693048e-05
5.8849226e-10
5.8847614e-10
5.8846333e-10
5.8844535e-10
5.8842007e-10
5.8838686e-10
5.883455e-10
5.8829582e-10
5.8823769e-10
5.8817101e-10
5.8809566e-10
5.8801155e-10
5.8791859e-10
5.8781668e-10
5.8770573e-10
5.8758562e-10
5.8745622e-10
5.8731741e-10
5.8716906e-10
5.8701106e-10
5.8684332e-10
5.8666572e-10
5.8647817e-10
5.8628057e-10
5.8607284e-10
5.8585488e-10
5.8562661e-10
5.8538794e-10
5.8513882e-10
5.8487915e-10
5.8460888e-10
5.8432795e-10
5.840363e-10
5.8373388e-10
5.8342066e-10
5.8309659e-10
5.8276165e-10
5.8241581e-10
5.8205906e-10
5.8169139e-10
5.8131279e-10
5.8092328e-10
5.8052286e-10
5.8011155e-10
5.7968937e-10
5.7925635e-10
5.7881252e-10
5.7835794e-10
5.7789263e-10
5.7741666e-10
5.7693009e-10
5.7643297e-10
5.7592538e-10
5.7540738e-10
5.7487907e-10
5.7434051e-10
5.737918e-10
5.7323302e-10
5.7266428e-10
5.7208568e-10
5.7149732e-10
5.7089932e-10
5.7029178e-10
5.6967483e-10
5.6904858e-10
5.6841317e-10
5.677687e-10
5.6711532e-10
5.6645317e-10
5.6578238e-10
5.6510343e-10
5.6441654e-10
5.6372175e-10
5.6302145e-10
5.6231387e-10
5.6160021e-10
5.6086787e-10
5.6008836e-10
5.5933579e-10
5.5817262e-10
5.5716865e-10
5.5601288e-10
5.571883e-10
5.524839e-10
5.6823365e-10
7.3063957e-10
2.1994896e-09
1.8437801e-08
1.4025047e-07
6.3819296e-07
2.240667e-06
4.4502312e-06
7.063488e-06
1.0461072e-05
1.495336e-05
2.0078773e-05
2.5376135e-05
3.0715344e-05
3.5387146e-05
4.0837259e-05
5.8863425e-10
5.8861821e-10
5.8860548e-10
5.8858759e-10
5.8856239e-10
5.8852927e-10
5.8848799e-10
5.8843838e-10
5.8838034e-10
5.8831373e-10
5.8823846e-10
5.8815442e-10
5.8806151e-10
5.8795964e-10
5.8784872e-10
5.8772863e-10
5.8759925e-10
5.8746045e-10
5.8731211e-10
5.8715414e-10
5.8698641e-10
5.8680883e-10
5.866213e-10
5.8642372e-10
5.8621601e-10
5.8599807e-10
5.8576981e-10
5.8553117e-10
5.8528206e-10
5.850224e-10
5.8475215e-10
5.8447123e-10
5.841796e-10
5.8387719e-10
5.8356397e-10
5.8323991e-10
5.8290498e-10
5.8255914e-10
5.822024e-10
5.8183473e-10
5.8145614e-10
5.8106663e-10
5.806662e-10
5.8025488e-10
5.798327e-10
5.7939967e-10
5.7895583e-10
5.7850123e-10
5.7803591e-10
5.7755993e-10
5.7707334e-10
5.765762e-10
5.7606858e-10
5.7555056e-10
5.7502222e-10
5.7448363e-10
5.7393489e-10
5.7337608e-10
5.7280731e-10
5.7222867e-10
5.7164028e-10
5.7104224e-10
5.7043466e-10
5.6981767e-10
5.6919139e-10
5.6855594e-10
5.6791146e-10
5.6725808e-10
5.6659593e-10
5.6592514e-10
5.6524585e-10
5.6455822e-10
5.6386238e-10
5.6315859e-10
5.6244745e-10
5.6172858e-10
5.6100486e-10
5.6027438e-10
5.5954027e-10
5.5878436e-10
5.5798379e-10
5.5721874e-10
5.5587624e-10
5.5485406e-10
5.539142e-10
5.5450502e-10
5.5329849e-10
5.9037683e-10
9.8460437e-10
4.8912654e-09
5.1245152e-08
3.243548e-07
1.368404e-06
3.4598711e-06
6.0343786e-06
9.3049344e-06
1.3712968e-05
1.9115405e-05
2.4195678e-05
3.2950827e-05
5.8876689e-10
5.8875093e-10
5.8873828e-10
5.8872046e-10
5.8869534e-10
5.886623e-10
5.8862109e-10
5.8857156e-10
5.8851359e-10
5.8844706e-10
5.8837185e-10
5.8828787e-10
5.8819501e-10
5.8809318e-10
5.8798228e-10
5.8786221e-10
5.8773284e-10
5.8759405e-10
5.8744572e-10
5.8728775e-10
5.8712003e-10
5.8694246e-10
5.8675494e-10
5.8655737e-10
5.8634966e-10
5.8613172e-10
5.8590347e-10
5.8566483e-10
5.8541572e-10
5.8515607e-10
5.8488581e-10
5.8460489e-10
5.8431325e-10
5.8401084e-10
5.8369762e-10
5.8337356e-10
5.8303861e-10
5.8269277e-10
5.8233601e-10
5.8196833e-10
5.8158973e-10
5.812002e-10
5.8079976e-10
5.8038842e-10
5.7996621e-10
5.7953316e-10
5.790893e-10
5.7863467e-10
5.7816932e-10
5.776933e-10
5.7720667e-10
5.7670949e-10
5.7620183e-10
5.7568377e-10
5.7515538e-10
5.7461675e-10
5.7406795e-10
5.735091e-10
5.7294027e-10
5.7236158e-10
5.7177312e-10
5.7117502e-10
5.7056738e-10
5.6995033e-10
5.6932398e-10
5.6868847e-10
5.6804392e-10
5.6739047e-10
5.6672825e-10
5.6605741e-10
5.6537809e-10
5.6469043e-10
5.6399457e-10
5.6329065e-10
5.6257884e-10
5.6185927e-10
5.6113216e-10
5.6039826e-10
5.5965684e-10
5.589121e-10
5.5815819e-10
5.5741185e-10
5.5660896e-10
5.558266e-10
5.5497698e-10
5.5366246e-10
5.5266801e-10
5.5221801e-10
5.5224574e-10
5.5728606e-10
6.7480032e-10
1.9738156e-09
1.7950281e-08
1.5760273e-07
7.8369024e-07
2.7124089e-06
5.268029e-06
8.6986197e-06
1.2212476e-05
2.1127334e-05
5.888904e-10
5.888745e-10
5.8886192e-10
5.8884418e-10
5.8881914e-10
5.8878617e-10
5.8874503e-10
5.8869557e-10
5.8863767e-10
5.885712e-10
5.8849606e-10