/*--------------------------------*- C++ -*----------------------------------*\
  =========                 |
  \\      /  F ield         | OpenFOAM: The Open Source CFD Toolbox
   \\    /   O peration     | Website:  https://openfoam.org
    \\  /    A nd           | Version:  12
     \\/     M anipulation  |
\*---------------------------------------------------------------------------*/
FoamFile
{
    format      ascii;
    class       volScalarField;
    location    "1500";
    object      omega;
}
// * * * * * * * * * * * * * * * * * * * * * * * * * * * * * * * * * * * * * //

dimensions      [0 0 -1 0 0 0 0];

internalField   nonuniform List<scalar> 
13056
(
414.142
169.33774
95.867373
70.819162
61.028435
56.384757
53.728753
52.001206
50.789668
49.900313
49.226741
48.704315
48.291189
47.959066
47.688139
47.464217
47.276637
47.11821
46.980084
46.86879
46.736252
46.735494
46.288154
109.92334
15925793
15925793
15925793
15925793
15925793
15925793
15925793
15925793
15925793
15925793
15925793
15925793
15925793
15925793
15925793
15925793
15925793
15925793
15925793
15925793
15925793
15925793
15925793
15925793
15925793
15925793
15925793
15925793
15925793
15925793
15925793
15925793
15925793
15925793
15925793
15925793
15925793
15925793
15925793
15925793
15925793
15925793
15925793
15925793
15925793
15925793
15925793
15925793
15925793
15925793
15925793
15925793
15925793
15925793
15925793
15925793
15925793
15925793
15925793
15925793
15925793
15925793
15925793
15925793
15925793
15925793
15925793
15925793
15925793
15925793
15925793
15925793
15925793
15925793
15925793
15925793
15925793
15925793
15925793
15925793
15925793
15925793
15925793
15925793
15925793
15925793
15925793
15925793
15925793
15925793
15925793
15925793
15925793
15925793
15925793
15925793
15925793
15925793
15925793
15925793
15925793
15925793
15925793
15925793
15925793
15925793
15925793
15925793
15925793
15925793
15925793
15925793
414.14193
169.33853
95.867865
70.818401
61.026222
56.381412
53.724599
51.996462
50.784477
49.894774
49.220926
48.698276
48.284967
47.952692
47.681637
47.457607
47.269933
47.111424
46.973226
46.861867
46.729332
46.728717
46.279991
106.68294
2727967.5
2723730.5
2723622.7
2723622.6
2723615
2723603.4
2723592.3
2723582.8
2723574.8
2723567.9
2723561.9
2723556.6
2723551.8
2723547.4
2723543.3
2723539.6
2723536.1
2723532.9
2723530
2723527.2
2723524.6
2723522.1
2723519.8
2723517.6
2723515.6
2723513.6
2723511.7
2723509.9
2723508.2
2723506.5
2723505
2723503.4
2723502
2723500.6
2723499.2
2723497.9
2723496.6
2723495.3
2723494.1
2723492.9
2723491.8
2723490.7
2723489.6
2723488.5
2723487.5
2723486.4
2723485.4
2723484.4
2723483.5
2723482.5
2723481.6
2723480.7
2723479.8
2723478.9
2723478
2723477.1
2723476.3
2723475.4
2723474.6
2723473.8
2723473
2723472.2
2723471.4
2723470.6
2723469.8
2723469
2723468.2
2723467.4
2723466.7
2723465.9
2723465.2
2723464.4
2723463.6
2723462.9
2723462.1
2723461.4
2723460.6
2723459.9
2723459.1
2723458.3
2723457.6
2723456.8
2723456.1
2723455.3
2723454.5
2723453.7
2723452.9
2723452.1
2723451.3
2723450.5
2723449.8
2723449.1
2723448.4
2723447.7
2723447.1
2723446.5
2723445.9
2723445.4
2723444.9
2723444.4
2723443.9
2723443.4
2723443
2723442.5
2723442.1
2723441.7
2723441.3
2723440.9
2723440.6
2723440.2
2723439.9
2723439.3
414.14166
169.34142
95.869434
70.81534
61.018203
56.369705
53.710309
51.980295
50.766889
49.876082
49.201356
48.678
48.264112
47.931356
47.659898
47.435523
47.247552
47.088785
46.95036
46.838791
46.706154
46.705813
46.254357
103.04485
912023
910424.75
910282.61
910281.48
910254.33
910218.99
910186.51
910159.04
910135.73
910115.6
910097.96
910082.32
910068.08
910055.05
910043.07
910032.04
910021.87
910012.44
910003.65
909995.43
909987.71
909980.44
909973.56
909967.06
909960.88
909955
909949.4
909944.05
909938.92
909934
909929.28
909924.72
909920.34
909916.11
909912.01
909908.04
909904.2
909900.47
909896.84
909893.31
909889.87
909886.5
909883.21
909879.99
909876.85
909873.77
909870.76
909867.8
909864.9
909862.06
909859.26
909856.5
909853.79
909851.12
909848.48
909845.88
909843.31
909840.78
909838.27
909835.79
909833.33
909830.9
909828.48
909826.09
909823.71
909821.36
909819.01
909816.68
909814.36
909812.06
909809.76
909807.47
909805.18
909802.9
909800.62
909798.34
909796.06
909793.78
909791.49
909789.2
909786.91
909784.6
909782.28
909779.95
909777.61
909775.24
909772.86
909770.45
909768.02
909765.62
909763.31
909761.12
909759.04
909757.05
909755.16
909753.36
909751.63
909749.98
909748.39
909746.87
909745.41
909744
909742.65
909741.34
909740.07
909738.85
909737.66
909736.5
909735.39
909734.24
909733.23
909731.58
414.14119
169.34647
95.87213
70.809926
61.004189
56.349336
53.685501
51.952263
50.736418
49.843713
49.167482
48.642912
48.22803
47.894449
47.622298
47.397332
47.208853
47.04964
46.910825
46.798896
46.666019
46.666112
46.210556
99.35366
424449.42
421870.28
421639.8
421632.25
421573.99
421500.68
421433.84
421377.36
421329.39
421287.91
421251.54
421219.27
421189.87
421162.94
421138.17
421115.37
421094.32
421074.79
421056.58
421039.55
421023.55
421008.46
420994.19
420980.68
420967.86
420955.64
420944
420932.88
420922.21
420911.98
420902.16
420892.68
420883.55
420874.75
420866.22
420857.95
420849.94
420842.17
420834.6
420827.24
420820.05
420813.02
420806.16
420799.45
420792.89
420786.47
420780.17
420774
420767.95
420762
420756.14
420750.38
420744.71
420739.13
420733.61
420728.18
420722.8
420717.5
420712.25
420707.05
420701.91
420696.81
420691.76
420686.75
420681.77
420676.83
420671.92
420667.04
420662.18
420657.34
420652.52
420647.71
420642.92
420638.14
420633.35
420628.56
420623.78
420618.99
420614.2
420609.38
420604.56
420599.72
420594.85
420589.95
420585.02
420580.05
420575.04
420569.98
420564.87
420559.8
420554.95
420550.34
420545.95
420541.77
420537.79
420534
420530.36
420526.88
420523.54
420520.34
420517.26
420514.29
420511.43
420508.67
420506.01
420503.42
420500.92
420498.48
420496.13
420493.7
420491.57
420488.1
414.14052
169.35379
95.876028
70.802074
60.983889
56.319839
53.64958
51.911678
50.692303
49.796852
49.118442
48.592114
48.175794
47.841019
47.567863
47.342042
47.152825
46.992967
46.853587
46.741136
46.607875
46.608545
46.14746
95.670935
238256.81
234343.91
233975.38
233949.85
233848.87
233725.06
233612.66
233517.62
233436.79
233366.86
233305.48
233250.97
233201.27
233155.74
233113.83
233075.21
233039.55
233006.44
232975.55
232946.64
232919.46
232893.82
232869.57
232846.59
232824.76
232803.96
232784.14
232765.18
232747
232729.56
232712.8
232696.63
232681.05
232666
232651.43
232637.31
232623.62
232610.33
232597.38
232584.78
232572.48
232560.46
232548.7
232537.21
232525.97
232514.97
232504.19
232493.6
232483.22
232473.01
232462.97
232453.09
232443.35
232433.76
232424.29
232414.95
232405.72
232396.6
232387.57
232378.64
232369.8
232361.03
232352.34
232343.71
232335.15
232326.64
232318.18
232309.76
232301.4
232293.06
232284.75
232276.46
232268.19
232259.94
232251.69
232243.43
232235.17
232226.9
232218.62
232210.31
232201.97
232193.61
232185.19
232176.72
232168.19
232159.6
232150.92
232142.16
232133.31
232124.54
232116.13
232108.16
232100.55
232093.31
232086.41
232079.82
232073.52
232067.48
232061.69
232056.13
232050.78
232045.63
232040.66
232035.87
232031.25
232026.76
232022.42
232018.17
232014.08
232009.87
232006.16
232000.13
414.13962
169.3635
95.881234
70.791683
60.95692
56.280598
53.601759
51.857623
50.633529
49.734407
49.053084
48.524405
48.10616
47.769787
47.495288
47.268322
47.078118
46.917398
46.777261
46.664112
46.530307
46.531677
46.063541
92.002459
151051.74
146085.93
145516.5
145452.35
145298.89
145116.27
144951
144811.08
144691.9
144588.67
144497.97
144417.34
144343.8
144276.34
144214.21
144156.9
144103.92
144054.69
144008.73
143965.69
143925.17
143886.94
143850.75
143816.44
143783.83
143752.73
143723.08
143694.71
143667.47
143641.34
143616.21
143591.97
143568.58
143546
143524.11
143502.89
143482.31
143462.32
143442.84
143423.88
143405.35
143387.24
143369.53
143352.21
143335.27
143318.68
143302.4
143286.43
143270.74
143255.33
143240.16
143225.22
143210.5
143195.99
143181.66
143167.52
143153.55
143139.73
143126.06
143112.52
143099.12
143085.82
143072.63
143059.54
143046.54
143033.62
143020.77
143007.99
142995.27
142982.6
142969.96
142957.35
142944.77
142932.21
142919.63
142907.05
142894.47
142881.87
142869.24
142856.56
142843.85
142831.08
142818.22
142805.28
142792.26
142779.12
142765.86
142752.47
142738.93
142725.5
142712.63
142700.41
142688.76
142677.66
142667.08
142656.99
142647.32
142638.05
142629.17
142620.64
142612.43
142604.52
142596.89
142589.53
142582.42
142575.53
142568.85
142562.32
142556.04
142549.56
142543.86
142534.58
414.13849
169.37576
95.887875
70.77864
60.922832
56.230872
53.541078
51.788979
50.558855
49.655039
48.969991
48.438305
48.017598
47.679181
47.402961
47.174531
46.983064
46.821239
46.680134
46.566091
46.431565
46.433729
45.95691
88.342161
104637.67
99033.506
98182.956
98047.746
97835.301
97592.338
97373.183
97187.285
97028.665
96891.081
96770.051
96662.311
96563.972
96473.678
96390.404
96313.488
96242.307
96176.078
96114.184
96056.163
96001.496
95949.853
95900.929
95854.497
95810.334
95768.189
95727.964
95689.451
95652.455
95616.93
95582.741
95549.735
95517.877
95487.09
95457.237
95428.271
95400.173
95372.853
95346.228
95320.283
95294.937
95270.139
95245.876
95222.143
95198.921
95176.159
95153.819
95131.886
95110.341
95089.15
95068.288
95047.736
95027.475
95007.491
94987.761
94968.269
94949.003
94929.942
94911.07
94892.382
94873.864
94855.488
94837.25
94819.143
94801.157
94783.274
94765.478
94747.764
94730.131
94712.559
94695.024
94677.521
94660.055
94642.606
94625.133
94607.64
94590.138
94572.609
94555.021
94537.365
94519.648
94501.843
94483.914
94465.862
94447.681
94429.335
94410.799
94392.077
94373.137
94354.346
94336.322
94319.215
94302.883
94287.326
94272.498
94258.331
94244.763
94231.755
94219.28
94207.299
94195.763
94184.641
94173.915
94163.565
94153.562
94143.864
94134.462
94125.264
94116.413
94107.296
94099.254
94086.179
414.13709
169.39074
95.896106
70.762838
60.881127
56.169817
53.466437
51.704452
50.466839
49.557191
48.867512
48.332088
47.908319
47.567358
47.288998
47.058744
46.865705
46.702505
46.560194
46.44504
46.309595
46.312587
45.825364
84.684015
77659.378
71892.37
70655.749
70403.707
70130.172
69834.113
69568.246
69342.216
69148.987
68981.145
68833.28
68701.441
68581.044
68470.348
68368.092
68273.489
68185.801
68104.094
68027.629
67955.852
67888.138
67824.09
67763.342
67705.621
67650.66
67598.153
67547.985
67499.906
67453.675
67409.239
67366.436
67325.078
67285.122
67246.476
67208.974
67172.556
67137.2
67102.798
67069.245
67036.525
67004.545
66973.241
66942.595
66912.595
66883.22
66854.409
66826.114
66798.315
66770.99
66744.097
66717.604
66691.49
66665.729
66640.304
66615.187
66590.359
66565.803
66541.494
66517.411
66493.55
66469.891
66446.4
66423.072
66399.899
66376.866
66353.952
66331.137
66308.413
66285.78
66263.214
66240.68
66218.175
66195.704
66173.244
66150.738
66128.193
66105.624
66083.006
66060.298
66037.489
66014.588
65991.558
65968.355
65944.977
65921.416
65897.627
65873.576
65849.267
65824.659
65800.228
65776.78
65754.51
65733.244
65712.974
65693.644
65675.166
65657.46
65640.476
65624.18
65608.522
65593.441
65578.894
65564.859
65551.31
65538.21
65525.507
65513.185
65501.127
65489.519
65477.561
65467.007
65449.841
414.13543
169.40862
95.906101
70.744186
60.831288
56.096525
53.376627
51.602609
50.355875
49.439122
48.743796
48.203813
47.776306
47.432241
47.151269
46.918788
46.72383
46.55895
46.415167
46.298656
46.162068
46.165821
45.666444
81.025702
60843.084
55390.639
53644.204
53218.603
52885.832
52552.163
52254.724
52001.333
51784.389
51595.749
51429.341
51280.731
51145.031
51020.095
50904.473
50797.299
50697.776
50604.883
50517.806
50435.936
50358.583
50285.308
50215.708
50149.482
50086.336
50025.931
49968.14
49912.688
49859.306
49807.932
49758.39
49710.469
49664.121
49619.245
49575.653
49533.278
49492.095
49451.987
49412.832
49374.612
49337.236
49300.633
49264.768
49229.628
49195.189
49161.384
49128.154
49095.481
49063.337
49031.676
49000.461
48969.668
48939.266
48909.236
48879.548
48850.178
48821.107
48792.306
48763.752
48735.439
48707.344
48679.428
48651.684
48624.104
48596.67
48569.357
48542.141
48515.013
48487.975
48460.995
48434.035
48407.087
48380.161
48353.227
48326.217
48299.14
48272.014
48244.806
48217.471
48189.991
48162.378
48134.588
48106.566
48078.309
48049.809
48021.007
47991.865
47962.384
47932.513
47902.832
47874.319
47847.219
47821.331
47796.637
47773.07
47750.527
47728.91
47708.162
47688.243
47669.091
47650.635
47632.821
47615.626
47599.017
47582.952
47567.363
47552.237
47537.427
47523.164
47508.464
47495.483
47474.36
414.13346
169.42955
95.918056
70.722632
60.772808
56.010057
53.27037
51.481917
50.224232
49.298943
48.596831
48.051364
47.619361
47.271559
46.987441
46.75228
46.555009
46.388106
46.242549
46.124405
45.986421
45.990856
45.47734
77.36936
49645.802
44928.164
42555.837
41897.899
41508.923
41156.612
40846.651
40582.398
40356.103
40159.357
39985.715
39830.491
39688.978
39558.571
39437.687
39325.43
39220.992
39123.346
39031.662
38945.316
38863.605
38786.08
38712.329
38642.046
38574.933
38510.641
38449.04
38389.853
38332.801
38277.821
38224.733
38173.32
38123.53
38075.264
38028.325
37982.643
37938.193
37894.856
37852.505
37811.115
37770.626
37730.957
37692.049
37653.886
37616.447
37579.66
37543.465
37507.838
37472.754
37438.164
37404.03
37370.322
37337.011
37304.078
37271.488
37239.218
37207.246
37175.541
37144.079
37112.854
37081.841
37050.997
37020.314
36989.786
36959.392
36929.103
36898.893
36868.756
36838.689
36808.659
36778.623
36748.575
36718.522
36688.431
36658.228
36627.922
36597.531
36567.02
36536.335
36505.458
36474.401
36443.115
36411.535
36379.658
36347.472
36314.912
36281.931
36248.532
36214.654
36180.952
36148.542
36117.71
36088.245
36060.114
36033.241
36007.514
35982.823
35959.104
35936.315
35914.387
35893.24
35872.815
35853.085
35834.015
35815.558
35797.637
35780.236
35763.19
35746.764
35729.823
35714.856
35690.48
414.13119
169.45368
95.932186
70.69818
60.705229
55.909485
53.146365
51.340787
50.070101
49.134669
48.424487
47.872495
47.43514
47.082888
46.795023
46.556667
46.35664
46.187326
46.039654
45.919564
45.779896
45.784926
45.255045
73.720773
41655.542
37992.134
34931.289
33992.955
33548.088
33192.32
32886.16
32625.666
32403.041
32209.931
32039.715
31887.613
31749.552
31622.368
31504.369
31394.653
31292.439
31196.754
31106.798
31021.966
30941.587
30865.223
30792.481
30723.066
30656.694
30593.03
30531.948
30473.187
30416.476
30361.754
30308.853
30257.559
30207.823
30159.553
30112.559
30066.768
30022.16
29978.624
29936.031
29894.355
29853.592
29813.649
29774.435
29735.928
29698.113
29660.919
29624.285
29588.188
29552.603
29517.487
29482.797
29448.505
29414.581
29381.01
29347.756
29314.794
29282.103
29249.654
29217.422
29185.4
29153.563
29121.868
29090.308
29058.875
29027.548
28996.298
28965.1
28933.944
28902.829
28871.72
28840.573
28809.382
28778.153
28746.852
28715.401
28683.81
28652.096
28620.222
28588.132
28555.806
28523.254
28490.424
28457.248
28423.721
28389.83
28355.502
28320.689
28285.389
28249.537
28213.827
28179.441
28146.696
28115.399
28085.487
28056.881
28029.466
28003.129
27977.806
27953.452
27929.997
27907.357
27885.473
27864.317
27843.852
27824.028
27804.767
27786.051
27767.702
27750.01
27731.745
27715.603
27689.284
414.12859
169.4811
95.948717
70.67091
60.628183
55.793945
53.003337
51.177632
49.891647
48.944268
48.224574
47.664886
47.221214
46.863707
46.571414
46.329282
46.125998
45.953833
45.803661
45.681271
45.539596
45.545111
44.996441
70.09584
35520.44
33133.972
29416.097
28168.216
27662.712
27310.002
27016.416
26768.08
26556.863
26374.57
26214.479
26071.766
25943.333
25825.274
25715.796
25613.989
25519.107
25430.256
25346.689
25267.837
25193.08
25122.011
25054.261
24989.558
24927.639
24868.195
24811.109
24756.147
24703.058
24651.78
24602.166
24554.018
24507.287
24461.892
24417.662
24374.522
24332.457
24291.369
24251.137
24211.729
24173.226
24135.523
24098.481
24062.071
24026.282
23991.054
23956.325
23922.071
23888.273
23854.892
23821.888
23789.231
23756.894
23724.866
23693.114
23661.61
23630.335
23599.264
23568.374
23537.657
23507.086
23476.624
23446.265
23416
23385.807
23355.659
23325.533
23295.419
23265.315
23235.186
23204.992
23174.725
23144.391
23113.954
23083.342
23052.562
23021.629
22990.506
22959.138
22927.506
22895.617
22863.418
22830.844
22797.886
22764.53
22730.703
22696.354
22661.481
22626.017
22590.647
22556.543
22524.036
22492.982
22463.268
22434.821
22407.527
22381.281
22356.019
22331.7
22308.256
22285.607
22263.694
22242.492
22221.965
22202.065
22182.714
22163.897
22145.433
22127.619
22109.204
22092.929
22066.354
414.12564
169.51188
95.967884
70.641001
60.541435
55.662693
52.840107
50.990926
49.687075
48.72573
47.994905
47.426203
46.975126
46.611456
46.31397
46.067406
45.860298
45.684785
45.531675
45.406586
45.262539
45.268391
44.698413
66.522422
30468.712
29482.307
25246.475
23699.443
23124.866
22773.067
22492.972
22258.449
22060.446
21890.853
21742.823
21611.452
21494.856
21388.126
21289.366
21197.646
21112.233
21032.313
20957.195
20886.343
20819.194
20755.37
20694.53
20636.423
20580.807
20527.405
20476.103
20426.698
20378.965
20332.84
20288.195
20244.855
20202.767
20161.865
20121.999
20083.092
20045.133
20008.042
19971.706
19936.089
19901.383
19867.463
19834.126
19801.336
19769.087
19737.329
19706.001
19675.081
19644.554
19614.388
19584.544
19554.994
19525.713
19496.695
19467.91
19439.329
19410.934
19382.708
19354.629
19326.686
19298.855
19271.104
19243.429
19215.82
19188.254
19160.708
19133.162
19105.608
19078.041
19050.428
19022.734
18994.952
18967.085
18939.099
18910.931
18882.584
18854.072
18825.358
18796.392
18767.157
18737.655
18707.838
18677.644
18647.065
18616.084
18584.632
18552.662
18520.167
18487.083
18454.05
18422.162
18391.749
18362.743
18334.964
18308.341
18282.774
18258.164
18234.456
18211.613
18189.573
18168.262
18147.628
18127.647
18108.287
18089.505
18071.226
18053.44
18035.972
18019.112
18001.653
17986.231
17961.004
414.12235
169.54597
95.989926
70.608753
60.444939
55.515176
52.655659
50.779285
49.454708
48.477141
47.733373
47.154178
46.694476
46.323622
46.020077
45.768342
45.556769
45.377347
45.220807
45.092566
44.945741
44.951708
44.357999
63.036153
26067.152
26495.651
21967.692
20167.104
19519.184
19164.3
18896.588
18675.783
18491.093
18334.38
18198.677
18078.993
17973.503
17877.499
17788.996
17707.02
17630.831
17559.674
17492.905
17430.011
17370.479
17313.953
17260.117
17208.733
17159.58
17112.405
17067.097
17023.482
16981.357
16940.654
16901.266
16863.035
16825.906
16789.825
16754.663
16720.343
16686.853
16654.132
16622.076
16590.641
16560.165
16530.488
16501.323
16472.628
16444.402
16416.603
16389.176
16362.094
16335.351
16308.919
16282.764
16256.855
16231.173
16205.715
16180.456
16155.365
16130.427
16105.629
16080.953
16056.386
16031.906
16007.486
15983.125
15958.812
15934.525
15910.242
15885.951
15861.641
15837.307
15812.919
15788.448
15763.888
15739.24
15714.471
15689.528
15664.416
15639.141
15613.671
15587.963
15562
15535.783
15509.268
15482.4
15455.17
15427.562
15399.513
15370.98
15341.954
15312.379
15282.824
15254.27
15227.036
15201.156
15176.355
15152.568
15129.708
15107.689
15086.462
15065.996
15046.236
15027.118
15008.595
14990.648
14973.249
14956.357
14939.91
14923.896
14908.158
14892.964
14877.199
14863.289
14840.491
414.11871
169.58326
96.015072
70.57461
60.338893
55.351107
52.449234
50.541561
49.193083
48.196783
47.438047
46.846707
46.377011
45.997826
45.68725
45.429511
45.212752
45.028789
44.868262
44.736357
44.586309
44.59204
43.972585
59.677585
22087.008
23833.946
19301.927
17310.93
16590.705
16228.754
15971.813
15764.201
15592.428
15448.174
15324.402
15216.055
15120.488
15034.097
14954.864
14881.759
14814.014
14750.913
14691.851
14636.335
14583.89
14534.184
14486.916
14441.859
14398.807
14357.532
14317.92
14279.823
14243.058
14207.555
14173.22
14139.915
14107.583
14076.176
14045.588
14015.741
13986.621
13958.182
13930.332
13903.022
13876.572
13850.854
13825.593
13800.74
13776.295
13752.227
13728.483
13705.037
13681.884
13659.006
13636.368
13613.94
13591.707
13569.669
13547.805
13526.083
13504.489
13483.016
13461.649
13440.373
13419.168
13398.011
13376.904
13355.837
13334.786
13313.734
13292.672
13271.591
13250.483
13229.322
13208.085
13186.768
13165.367
13143.855
13122.188
13100.37
13078.403
13056.258
13033.9
13011.313
12988.497
12965.412
12942.011
12918.288
12894.223
12869.763
12844.87
12819.535
12793.707
12767.885
12742.924
12719.136
12696.677
12675.149
12654.492
12634.63
12615.49
12597.033
12579.229
12562.032
12545.386
12529.254
12513.616
12498.449
12483.719
12469.371
12455.396
12441.653
12428.386
12414.591
12402.441
12382.481
414.11473
169.62351
96.043531
70.53918
60.2238
55.170556
52.220428
50.276943
48.901059
47.883242
47.107291
46.501962
46.020742
45.631942
45.313247
45.048569
44.825814
44.636597
44.471459
44.335312
44.181556
44.186497
43.540184
56.488417
18422.086
21281.662
17077.723
14971.507
14182.477
13807.966
13558.251
13361.663
13201.014
13067.536
12954.126
12855.67
12768.946
12691.114
12620.178
12555.051
12494.926
12439.108
12387.027
12338.206
12292.205
12248.715
12207.444
12168.175
12130.713
12094.851
12060.476
12027.457
11995.634
11964.932
11935.27
11906.528
11878.644
11851.58
11825.246
11799.565
11774.523
11750.084
11726.168
11702.724
11679.941
11657.758
11635.988
11614.575
11593.521
11572.804
11552.374
11532.204
11512.291
11492.622
11473.166
11453.894
11434.791
11415.862
11397.087
11378.437
11359.897
11341.464
11323.126
11304.869
11286.671
11268.518
11250.41
11232.337
11214.278
11196.219
11178.152
11160.07
11141.964
11123.812
11105.595
11087.311
11068.954
11050.5
11031.915
11013.202
10994.36
10975.363
10956.182
10936.805
10917.228
10897.417
10877.334
10856.971
10836.312
10815.31
10793.934
10772.172
10749.983
10727.794
10706.34
10685.896
10666.626
10648.154
10630.425
10613.374
10596.941
10581.091
10565.797
10551.022
10536.717
10522.851
10509.408
10496.366
10483.696
10471.351
10459.327
10447.495
10436.077
10424.176
10413.72
10396.497
414.11044
169.66633
96.075476
70.503243
60.100529
54.974045
51.969311
49.985092
48.577953
47.535552
46.739897
46.118534
45.624088
45.224241
44.896209
44.623547
44.393889
44.19862
44.028168
43.887125
43.72915
43.732427
43.059793
53.508071
15033.312
18730.409
15178.057
13043.35
12192.385
11799.763
11552.891
11364.46
11212.64
11087.842
10982.851
10892.485
10813.137
10742.454
10678.497
10620.118
10566.457
10516.826
10470.681
10427.563
10387.061
10348.885
10312.748
10278.437
10245.769
10214.552
10184.676
10156.022
10128.451
10101.883
10076.246
10051.438
10027.395
10004.08
9981.4217
9959.3467
9937.8346
9916.8605
9896.3561
9876.268
9856.6991
9837.6307
9818.9369
9800.5603
9782.5006
9764.7432
9747.2439
9729.9735
9712.9301
9696.106
9679.474
9663.0047
9646.6848
9630.5204
9614.4966
9598.5836
9582.7682
9567.0498
9551.42
9535.8628
9520.3596
9504.8974
9489.4797
9474.0972
9458.7284
9443.3616
9427.9927
9412.6156
9397.2198
9381.787
9366.3029
9350.7658
9335.169
9319.4905
9303.7096
9287.8249
9271.8327
9255.7101
9239.4339
9222.9942
9206.3862
9189.581
9172.5471
9155.2782
9137.7583
9119.9489
9101.8235
9083.372
9064.5581
9045.7462
9027.5572
9010.2086
8993.7873
8978.049
8962.943
8948.4143
8934.4114
8920.9046
8907.8716
8895.279
8883.0875
8871.2688
8859.81
8848.692
8837.8904
8827.3645
8817.1116
8807.0184
8797.2833
8787.1131
8778.2014
8763.4786
414.10587
169.7112
96.111022
70.467762
59.970372
54.762651
51.696555
49.666281
48.223693
47.153345
46.335249
45.695593
45.186037
44.773555
44.434833
44.153021
43.915447
43.713234
43.536683
43.390007
43.227288
43.227548
42.531896
50.769424
11921.704
16169.999
13515.948
11447.891
10546.705
10131.713
9883.2291
9699.9516
9554.6633
9436.5051
9338.0509
9254.0299
9180.576
9115.6417
9057.3599
9004.5045
8956.1516
8911.6052
8870.344
8831.9208
8795.9601
8762.1798
8730.2914
8700.0821
8671.3811
8644.0094
8617.8577
8592.8179
8568.7653
8545.6216
8523.3193
8501.7697
8480.9099
8460.7037
8441.0916
8422.0069
8403.4237
8385.3237
8367.65
8350.3496
8333.4705
8317.0169
8300.9049
8285.0782
8269.5337
8254.2621
8239.2252
8224.3935
8209.7639
8195.3328
8181.0766
8166.9675
8152.9923
8139.1575
8125.4518
8111.8479
8098.3321
8084.9051
8071.5612
8058.2853
8045.0601
8031.8746
8018.7329
8005.6272
7992.5375
7979.4532
7966.3722
7953.2895
7940.1948
7927.0724
7913.9109
7900.7097
7887.4617
7874.1475
7860.7593
7847.2906
7833.7345
7820.0711
7806.2818
7792.3587
7778.2963
7764.0704
7749.6552
7735.0453
7720.2263
7705.1659
7689.8424
7674.2462
7658.3473
7642.4543
7627.0902
7612.4284
7598.5073
7585.1696
7572.3694
7560.0596
7548.1971
7536.7563
7525.7176
7515.0525
7504.728
7494.7202
7485.0179
7475.6043
7466.4587
7457.5467
7448.8669
7440.3197
7432.0808
7423.4565
7415.9223
7403.4268
414.10107
169.75739
96.150202
70.433866
59.835089
54.538108
51.403572
49.321551
47.838985
46.737038
45.893511
45.233086
44.706347
44.279476
43.928566
43.636312
43.389697
43.179548
42.996024
42.842884
42.674902
42.670105
41.959131
48.294849
9115.6798
13652.264
12024.058
10119.947
9186.7599
8747.5708
8493.4257
8312.4267
8171.5749
8058.2601
7964.7037
7885.5161
7816.6736
7756.3047
7702.6111
7654.2498
7610.2271
7569.8313
7532.5566
7497.9661
7465.7282
7435.5576
7407.1536
7380.3055
7354.8523
7330.6257
7307.5195
7285.4319
7264.2514
7243.9015
7224.318
7205.4231
7187.1564
7169.4809
7152.3473
7135.6951
7119.4943
7103.7301
7088.356
7073.3214
7058.6398
7044.3254
7030.3234
7016.5812
7003.0921
6989.8505
6976.8243
6963.9846
6951.3266
6938.8486
6926.5315
6914.3495
6902.2891
6890.3558
6878.5419
6866.823
6855.1852
6843.6292
6832.1512
6820.738
6809.3735
6798.0479
6786.7651
6775.519
6764.2916
6753.0731
6741.8621
6730.6547
6719.4416
6708.209
6696.9475
6685.6569
6674.3307
6662.9517
6651.5281
6640.0443
6628.4903
6616.8491
6605.1053
6593.2525
6581.2854
6569.1835
6556.9256
6544.5069
6531.9147
6519.1221
6506.1109
6492.8724
6479.3818
6465.9016
6452.874
6440.4391
6428.6071
6417.2756
6406.4034
6395.9501
6385.8791
6376.1684
6366.8004
6357.751
6348.9923
6340.504
6332.276
6324.2936
6316.5395
6308.9842
6301.6273
6294.3819
6287.4022
6280.0854
6273.7132
6263.0945
414.09612
169.80404
96.192936
70.402827
59.696934
54.302895
51.092648
48.952883
47.425503
46.288024
45.415831
44.731944
44.185758
43.742577
43.377833
43.073714
42.816816
42.597633
42.406172
42.245634
42.071904
42.059078
41.34722
46.092596
6565.8465
11282.772
10646.876
9001.3587
8063.0607
7601.035
7337.8834
7156.5131
7018.2322
6908.232
6818.2061
6742.6065
6677.3756
6620.6797
6570.7735
6526.1352
6485.7044
6448.7511
6414.7784
6383.3583
6354.2136
6327.0416
6301.525
6277.4565
6254.6836
6233.0478
6212.4469
6192.7834
6173.9566
6155.8933
6138.5318
6121.8031
6105.6502
6090.0355
6074.9165
6060.2399
6045.9731
6032.1022
6018.5894
6005.3886
5992.4922
5979.9157
5967.6244
5955.5717
5943.7474
5932.1476
5920.7465
5909.5168
5898.4515
5887.5495
5876.7959
5866.1676
5855.6509
5845.2492
5834.9577
5824.7558
5814.6294
5804.5782
5794.5998
5784.6833
5774.8141
5764.983
5755.1926
5745.4389
5735.7064
5725.9855
5716.2747
5706.5713
5696.8672
5687.1504
5677.4124
5667.6527
5657.8664
5648.0385
5638.1951
5628.3081
5618.365
5608.351
5598.253
5588.0658
5577.7845
5567.3918
5556.8697
5546.2139
5535.4137
5524.4463
5513.2961
5501.9555
5490.404
5478.8664
5467.7205
5457.0813
5446.9425
5437.2366
5427.9269
5418.9787
5410.3602
5402.0523
5394.0394
5386.3007
5378.8125
5371.5571
5364.5257
5357.7054
5351.0813
5344.6283
5338.3463
5332.1597
5326.2033
5319.9555
5314.5305
5305.438
414.09109
169.8501
96.239003
70.375999
59.558644
54.060302
50.767073
48.563357
46.986073
45.808887
44.904565
44.194317
43.626235
43.164658
42.784288
42.46675
42.198209
41.968787
41.768327
41.599347
41.419441
41.394477
40.706204
44.15356
4486.3791
9135.1626
9353.5952
8039.6139
7132.8026
6652.8619
6378.3508
6194.2445
6056.8587
5948.8631
5861.2323
5788.2135
5725.884
5672.2529
5625.5888
5584.1304
5546.7676
5512.7529
5481.5912
5452.8633
5426.3363
5401.6896
5378.5971
5356.8575
5336.3257
5316.8516
5298.3378
5280.6902
5263.816
5247.6471
5232.1237
5217.1831
5202.7731
5188.8555
5175.3922
5162.337
5149.6565
5137.3359
5125.3444
5113.6417
5102.2081
5091.0549
5080.1613
5069.4879
5059.0216
5048.7589
5038.6797
5028.7591
5018.9881
5009.3651
4999.8787
4990.5096
4981.2432
4972.0809
4963.0199
4954.0435
4945.138
4936.3014
4927.532
4918.8214
4910.157
4901.5293
4892.9397
4884.3858
4875.8548
4867.3374
4858.8314
4850.3347
4841.8411
4833.3399
4824.8231
4816.2897
4807.7363
4799.1503
4790.571
4781.9602
4773.3041
4764.5899
4755.8061
4746.948
4738.0116
4728.9822
4719.8441
4710.5933
4701.221
4691.7075
4682.0393
4672.2098
4662.2016
4652.2098
4642.5607
4633.3511
4624.5645
4616.1557
4608.0928
4600.3453
4592.8855
4585.6964
4578.7643
4572.071
4565.5961
4559.324
4553.2467
4547.3531
4541.6303
4536.0566
4530.6319
4525.2909
4520.1505
4514.7613
4510.0946
4502.2194
414.08609
169.89437
96.288003
70.354741
59.423383
53.814453
50.431232
48.1573
46.524859
45.303597
44.363494
43.623808
43.031215
42.549003
42.151074
41.818437
41.53678
41.295808
41.085197
40.906618
40.720171
40.677829
40.052168
42.445421
2901.6345
7317.1339
8149.9835
7199.2108
6361.097
5869.8608
5582.6248
5393.6963
5255.6476
5148.4909
5062.2884
4991.0302
4931.1216
4880.1405
4836.2717
4797.5431
4762.8198
4731.3378
4702.596
4676.1823
4651.826
4629.2405
4608.1311
4588.3022
4569.6134
4551.9204
4535.1294
4519.148
4503.8896
4489.2901
4475.2909
4461.834
4448.8714
4436.3642
4424.2772
4412.5707
4401.2105
4390.1803
4379.4554
4369.0003
4358.7878
4348.8243
4339.0987
4329.578
4320.247
4311.102
4302.1275
4293.3012
4284.6122
4276.0583
4267.6312
4259.3143
4251.0931
4242.9667
4234.9337
4226.9813
4219.0958
4211.2739
4203.5142
4195.8108
4188.1523
4180.5293
4172.9419
4165.3891
4157.8606
4150.347
4142.8457
4135.3551
4127.8705
4120.3823
4112.8829
4105.3709
4097.8442
4090.292
4082.7394
4075.1599
4067.5432
4059.8786
4052.1552
4044.3687
4036.516
4028.5846
4020.5605
4012.4398
4004.2154
3995.8702
3987.3921
3978.7753
3970.0052
3961.2525
3952.8027
3944.7387
3937.0381
3929.6699
3922.6067
3915.8219