/*--------------------------------*- C++ -*----------------------------------*\
  =========                 |
  \\      /  F ield         | OpenFOAM: The Open Source CFD Toolbox
   \\    /   O peration     | Website:  https://openfoam.org
    \\  /    A nd           | Version:  12
     \\/     M anipulation  |
\*---------------------------------------------------------------------------*/
FoamFile
{
    format      ascii;
    class       volScalarField;
    location    "1500";
    object      p;
}
// * * * * * * * * * * * * * * * * * * * * * * * * * * * * * * * * * * * * * //

dimensions      [0 2 -2 0 0 0 0];

internalField   nonuniform List<scalar> 
7480
(
0.0053224067
0.0052834188
0.0051751386
0.0051426503
0.0051596998
0.0051941227
0.0052419577
0.0053069608
0.005395528
0.0055146986
0.0056850881
0.0059235899
0.0063922699
0.0068176471
0.0067599256
0.0063258547
0.0058585386
0.0054884695
0.0051728738
0.0048906466
0.0046449489
0.0044348903
0.0042572638
0.0040905091
0.0039237356
0.0037618144
0.0036086261
0.0034772747
0.003364756
0.0032576489
0.00315963
0.0030739134
0.0029995554
0.0029356395
0.0028806566
0.0028328394
0.0027906275
0.0027541193
0.0027221379
0.0026920559
0.0026634453
0.0026364021
0.0026110674
0.0025861246
0.0025598092
0.0025319799
0.0025030878
0.0024743423
0.0024450995
0.0024141949
0.0023810467
0.0023451985
0.0023083631
0.0022710136
0.0022319026
0.002191205
0.0021500132
0.0021100405
0.0020706729
0.0020298411
0.0019880294
0.0019462634
0.0019055889
0.0018648381
0.001822771
0.0017805756
0.0017395094
0.0016986002
0.001656339
0.0016134246
0.0015709134
0.00152804
0.0014839885
0.0014394859
0.001395235
0.0013505608
0.0013047553
0.0012584974
0.0012116543
0.0011641333
0.0011157242
0.0010668378
0.0010176368
0.00096711674
0.00091603551
0.00086439259
0.00081144581
0.0007583144
0.00070459251
0.00064964457
0.00059469495
0.00053922286
0.00048323424
0.00042780088
0.00037411148
0.00032002673
0.00028139108
0.00022268266
0.00035999873
-0.00024142021
0.0052598773
0.005221184
0.0051487195
0.0051268899
0.0051474416
0.0051860501
0.0052360693
0.0053020248
0.0053909945
0.0055101862
0.0056790792
0.0059146692
0.0063426556
0.0067158543
0.0066577276
0.006299385
0.0058864319
0.0055412639
0.0052386917
0.0049602733
0.0047154265
0.0045011224
0.0043095927
0.0041288726
0.0039561436
0.0037925195
0.0036412515
0.0035093244
0.0033933729
0.0032848981
0.0031861479
0.0030997005
0.0030244618
0.0029593203
0.002902848
0.0028534113
0.0028095386
0.0027715247
0.0027383225
0.0027071818
0.0026774599
0.0026492565
0.0026228536
0.0025970069
0.0025697907
0.0025410733
0.0025114295
0.002482028
0.0024521924
0.0024207547
0.0023871788
0.0023509787
0.0023138188
0.0022761729
0.0022367928
0.0021958582
0.0021544561
0.0021143111
0.0020747892
0.0020337924
0.0019918125
0.0019498819
0.0019090495
0.001868142
0.0018259198
0.0017835754
0.0017423673
0.0017013218
0.0016589286
0.0016158894
0.0015732609
0.0015302752
0.0014861161
0.0014415119
0.0013971641
0.0013523968
0.0013065027
0.0012601618
0.00121324
0.0011656445
0.0011171643
0.0010682103
0.0010189446
0.00096836271
0.00091722371
0.00086552594
0.00081252699
0.00075934621
0.00070557678
0.00065058381
0.00059559205
0.00054007972
0.00048405319
0.00042858369
0.00037486147
0.00032074387
0.00028206766
0.00022339247
0.00036082868
-0.00024082625
0.0052181737
0.0052040506
0.0051589937
0.005137332
0.0051540266
0.0051919262
0.0052408581
0.0053053612
0.005392789
0.0055102406
0.0056749525
0.0059036631
0.0062707085
0.0065848646
0.0065458213
0.0062305915
0.0058390049
0.0054975825
0.0051985457
0.0049247221
0.0046831613
0.0044715296
0.0042825759
0.0041087031
0.0039447043
0.0037889908
0.0036454001
0.0035171122
0.0034024531
0.0032972618
0.0032010006
0.0031154818
0.0030408303
0.0029759387
0.0029193942
0.0028696774
0.0028255179
0.0027868397
0.0027525129
0.0027204258
0.0026898688
0.0026607694
0.0026335425
0.0026071085
0.0025794181
0.0025501629
0.0025199296
0.0024899588
0.0024596601
0.0024275095
0.0023931517
0.0023564901
0.002319016
0.0022811248
0.0022415146
0.002200374
0.0021587952
0.0021185095
0.0020788529
0.0020377049
0.0019955665
0.0019534864
0.0019125195
0.0018714763
0.0018291167
0.0017866415
0.0017453128
0.0017041507
0.0016616379
0.0016184818
0.001575743
0.0015326504
0.001488388
0.0014436863
0.0013992463
0.0013543895
0.0013084082
0.0012619849
0.0012149844
0.0011673141
0.0011187622
0.0010697399
0.0010204085
0.00096976244
0.00091856362
0.00086680876
0.00081375502
0.00076052279
0.00070670308
0.0006516618
0.00059662507
0.00054106942
0.00048500187
0.00042949315
0.00037573484
0.00032157917
0.000282875
0.00022428978
0.00036174323
-0.00024009187
0.0051850594
0.0051841992
0.0051491721
0.0051293173
0.0051453491
0.0051833715
0.0052327506
0.0052973405
0.0053843267
0.0055005671
0.0056607416
0.0058795355
0.0061954026
0.0064684563
0.0064494252
0.0061697487
0.0058042561
0.005477245
0.0051907932
0.0049272032
0.0046908311
0.0044819323
0.0042939146
0.0041210072
0.0039567451
0.0037999912
0.0036546915
0.0035239175
0.0034076865
0.0033023477
0.0032056872
0.003119396
0.0030445494
0.002980034
0.0029243166
0.0028758748
0.0028333674
0.0027955645
0.0027613346
0.0027296818
0.0026997214
0.0026709135
0.0026430218
0.0026154419
0.0025871143
0.0025574497
0.0025267613
0.0024963545
0.0024657581
0.0024331409
0.0023982466
0.0023612835
0.0023236013
0.0022856211
0.0022459335
0.0022046871
0.0021629695
0.0021224196
0.0020824972
0.0020412072
0.0019989589
0.0019567866
0.0019157409
0.0018746054
0.0018321413
0.0017895702
0.0017481498
0.0017068846
0.0016642613
0.0016209988
0.0015781614
0.0015349732
0.0014906168
0.001445826
0.0014013031
0.0013563654
0.0013103025
0.0012638007
0.0012167246
0.0011689826
0.0011203612
0.0010712734
0.001021879
0.00097117
0.00091991283
0.00086810206
0.00081499412
0.00076171134
0.00070784173
0.00065275211
0.00059767078
0.00054207189
0.00048596301
0.00043041479
0.00037661909
0.00032242449
0.00028369438
0.00022508068
0.00036260173
-0.00023939327
0.005154319
0.0051614242
0.0051372853
0.0051247439
0.0051427994
0.0051813336
0.0052312386
0.0052956505
0.0053814727
0.0054952937
0.0056494677
0.0058544179
0.0061295977
0.0063659089
0.0063567405
0.006106727
0.0057672945
0.0054546245
0.0051779133
0.0049211735
0.0046877404
0.0044800453
0.0042926741
0.0041203431
0.0039568864
0.0038015708
0.0036577974
0.0035283051
0.0034130621
0.0033083766
0.0032119921
0.0031256664
0.0030505192
0.0029854088
0.0029288674
0.002879549
0.0028361605
0.002797298
0.0027623578
0.0027307805
0.0027014866
0.002673778
0.0026468137
0.0026197654
0.0025920582
0.0025632112
0.0025332565
0.0025026024
0.0024710412
0.0024379206
0.0024028375
0.0023657292
0.0023278739
0.0022898006
0.0022500905
0.0022087716
0.0021668658
0.0021259988
0.0020858747
0.0020445363
0.0020022335
0.0019599863
0.0019188748
0.0018776778
0.0018351405
0.0017925145
0.0017509897
0.0017095587
0.0016668067
0.0016234627
0.0015805585
0.0015373001
0.0014928693
0.0014480071
0.0014034143
0.0013583993
0.0013122565
0.0012656792
0.0012185297
0.0011707181
0.0011220286
0.0010728777
0.0010234224
0.00097265022
0.00092133358
0.00086946542
0.00081630138
0.00076296712
0.00070904667
0.00065390688
0.00059877928
0.00054313514
0.00048698262
0.00043139288
0.00037755673
0.00032332134
0.00028455681
0.00022585904
0.00036345243
-0.00023860096
0.0051258066
0.0051390648
0.0051254906
0.0051196218
0.0051383731
0.005176013
0.0052254576
0.0052890365
0.0053730886
0.0054837976
0.0056310518
0.0058218653
0.0060628382
0.0062657602
0.0062621044
0.0060404214
0.0057273591
0.0054294357
0.0051624231
0.0049133634
0.0046847897
0.0044798635
0.0042945233
0.0041238174
0.0039620353
0.0038085041
0.0036660767
0.0035372091
0.0034218747
0.0033169212
0.0032204182
0.0031338605
0.0030582447
0.0029925275
0.0029353097
0.0028852915
0.0028411603
0.0028015832
0.0027659839
0.0027336702
0.0027035192
0.0026749185
0.0026472043
0.0026196444
0.0025917534
0.0025632659
0.002534162
0.0025042095
0.0024731267
0.0024407343
0.0024065506
0.0023703281
0.0023325719
0.0022937844
0.0022536292
0.0022121836
0.002170173
0.0021292436
0.0020891539
0.0020478574
0.0020054806
0.0019630595
0.0019218447
0.0018806439
0.0018380797
0.0017953952
0.0017537418
0.0017121515
0.0016692944
0.0016259002
0.0015829562
0.0015396439
0.0014951519
0.0014502414
0.0014055741
0.0013604443
0.0013142105
0.001267574
0.0012203686
0.0011725022
0.0011237566
0.0010745489
0.0010250326
0.00097419783
0.00092282301
0.00087089845
0.00081767872
0.00076429466
0.00071032416
0.00065513304
0.00059995771
0.00054426653
0.00048806866
0.00043243625
0.00037855695
0.00032427892
0.00028547039
0.00022668324
0.0003642952
-0.00023763825
0.0050993489
0.0051173117
0.0051126721
0.0051125737
0.0051322987
0.005169587
0.0052190367
0.0052821794
0.0053646213
0.0054720064
0.0056120043
0.0057887107
0.0059999985
0.0061734137
0.0061726768
0.0059765961
0.0056882983
0.0054047444
0.0051471598
0.0049057635
0.0046821883
0.0044797717
0.0042961015
0.0041264632
0.0039658848
0.0038136297
0.0036721373
0.0035436753
0.0034283064
0.0033233897
0.0032271282
0.0031406314
0.003064794
0.0029987214
0.002941067
0.0028905545
0.0028459147
0.0028058919
0.0027698259
0.0027370026
0.0027063818
0.0026773474
0.0026492371
0.0026212945
0.0025929888
0.0025640173
0.0025343274
0.0025038504
0.0024725194
0.0024401353
0.0024063267
0.0023709346
0.0023339143
0.0022954282
0.0022557797
0.002215157
0.002173915
0.0021330002
0.0020922319
0.0020505612
0.0020081031
0.0019656558
0.0019245052
0.0018833692
0.0018408232
0.0017980141
0.0017562411
0.0017146374
0.0016717722
0.0016283266
0.0015853115
0.0015419387
0.0014973921
0.0014524447
0.001407705
0.0013624612
0.001316147
0.0012694711
0.0012222273
0.001174319
0.0011255311
0.0010762537
0.0010266502
0.00097575361
0.00092433312
0.00087236405
0.00081909835
0.00076566925
0.00071164731
0.00065640564
0.00060118382
0.00054544636
0.00048920405
0.00043352986
0.00037960574
0.00032528393
0.00028642288
0.00022754495
0.00036509826
-0.00023648307
0.0050746106
0.0050960944
0.0050988781
0.0051040961
0.0051252526
0.0051623908
0.0052116073
0.0052739333
0.005354249
0.0054576012
0.0055897332
0.0057522464
0.0059374478
0.0060850798
0.0060851982
0.0059115569
0.0056465421
0.0053774843
0.0051294788
0.0048958716
0.0046774816
0.004478097
0.004296417
0.0041282152
0.003969189
0.0038185224
0.0036783015
0.003550599
0.0034355307
0.0033308487
0.003234859
0.0031483824
0.0030722642
0.0030057542
0.0029475591
0.0028964395
0.0028511823
0.0028105853
0.0027739415
0.0027405572
0.0027094558
0.0026799855
0.0026514822
0.0026231902
0.0025945818
0.0025653568
0.0025354517
0.002504807
0.0024732983
0.0024406512
0.0024064965
0.0023707064
0.0023333375
0.0022947261
0.002255317
0.0022153243
0.002175081
0.0021346826
0.0020939102
0.0020526466
0.002010825
0.00196886
0.001927386
0.0018855545
0.0018428834
0.0018000886
0.001758417
0.0017169116
0.0016740961
0.0016305638
0.0015874611
0.0015440893
0.0014995366
0.0014545386
0.0014097297
0.001364435
0.00131808
0.0012713692
0.0012240806
0.0011761255
0.0011272985
0.0010779546
0.0010282686
0.00097731778
0.00092586366
0.00087386155
0.00082056013
0.00076707127
0.00071297712
0.00065768948
0.00060243083
0.00054665561
0.00049037337
0.00043465691
0.00038068647
0.00032632166
0.00028740104
0.00022842741
0.00036583033
-0.00023511493
0.0050512906
0.0050754107
0.0050843253
0.005094361
0.0051171003
0.0051540932
0.0052028471
0.0052641483
0.0053421362
0.0054411687
0.0055653089
0.0057140939
0.005876502
0.0060018345
0.0060014108
0.005847318
0.0056042515
0.0053497548
0.0051113567
0.0048854676
0.0046724809
0.0044764171
0.0042968795
0.0041302505
0.0039727936
0.0038236623
0.0036846445
0.0035576295
0.0034427853
0.0033382158
0.003242368
0.0031558471
0.0030794326
0.0030124855
0.0029537661
0.0029020703
0.0028562317
0.0028150937
0.0027779186
0.0027440186
0.002712455
0.0026825464
0.002653637
0.0026249988
0.0025961104
0.00256667
0.0025365962
0.0025058083
0.0024741548
0.0024413707
0.0024071199
0.0023712764
0.0023338919
0.0022952657
0.0022557504
0.0022155271
0.0021749836
0.0021342287
0.0020934257
0.0020526651
0.0020116878
0.0019705625
0.0019291236
0.0018872249
0.0018450123
0.0018026983
0.001760878
0.0017187545
0.0016757637
0.0016322761
0.001589304
0.0015460296
0.001501515
0.0014564405
0.0014115844
0.0013663224
0.0013199627
0.0012732013
0.0012258593
0.0011778649
0.001129003
0.0010796173
0.001029887
0.00097889442
0.00092740891
0.00087537071
0.00082203147
0.00076848236
0.00071432115
0.00065899349
0.00060370578
0.00054790161
0.00049157176
0.00043579609
0.00038177666
0.00032737628
0.00028839416
0.00022931931
0.00036645921
-0.00023350557
0.0050291152
0.0050552149
0.0050691346
0.0050834164
0.0051077616
0.0051446547
0.0051928215
0.0052529335
0.0053283913
0.0054228124
0.0055388352
0.0056743719
0.0058166243
0.0059225572
0.0059205841
0.0057833164
0.0055607064
0.0053206011
0.0050917657
0.0048735223
0.0046661484
0.0044736654
0.004296461
0.0041315769
0.0039757798
0.0038282433
0.0036905014
0.0035642716
0.0034497712
0.0033454138
0.0032497922
0.0031633242
0.0030867015
0.003019378
0.0029601772
0.0029079334
0.0028615254
0.0028198435
0.0027821293
0.0027476966
0.0027156441
0.0026852763
0.0026559485
0.0026269569
0.0025977785
0.0025681025
0.002537825
0.0025068533
0.0024750344
0.002442119
0.0024077895
0.0023719154
0.0023345358
0.0022959206
0.0022563991
0.0022161707
0.0021756003
0.0021348102
0.0020939622
0.0020530416
0.0020118051
0.0019703544
0.0019286994
0.0018871969
0.0018458349
0.0018043229
0.0017625552
0.0017202871
0.0016775689
0.0016344625
0.0015913267
0.0015475133
0.0015028997
0.001457919
0.0014132053
0.0013680251
0.0013216776
0.0012748676
0.0012275226
0.0011795403
0.0011306445
0.0010812126
0.0010314585
0.00098043896
0.00092892168
0.0008768416
0.00082346269
0.00076988216
0.00071568572
0.00066032023
0.00060500217
0.00054916758
0.00049278614
0.00043695226
0.00038288676
0.00032845708
0.0002894085
0.00023021369
0.00036694115
-0.00023162443
0.0050078552
0.0050354367
0.0050533934
0.0050713356
0.0050972366
0.0051340682
0.0051815262
0.0052402513
0.0053129651
0.0054025471
0.0055104535
0.0056333727
0.0057577785
0.0058469094
0.0058428577
0.0057200313
0.0055163774
0.005290432
0.0050711769
0.0048605604
0.0046589859
0.0044703405
0.0042956795
0.0041327123
0.0039786723
0.0038327862
0.0036963709
0.0035709854
0.0034568919
0.0033527755
0.0032573738
0.0031709509
0.0030941103
0.0030263916
0.0029666906
0.0029138818
0.0028668875
0.0028246431
0.0027863763
0.0027514005
0.0027188501
0.0026880208
0.0026582736
0.0026289248
0.0025994498
0.0025695311
0.0025390467
0.002507896
0.0024759238
0.0024428853
0.0024084739
0.0023725534
0.002335159
0.002296545
0.0022570345
0.0022168367
0.0021762951
0.0021355336
0.0020946841
0.0020537179
0.0020124263
0.0019709053
0.0019291942
0.0018875952
0.0018460278
0.0018042075
0.0017622257
0.0017203667
0.0016784517
0.0016360353
0.0015929114
0.0015489377
0.0015045386
0.0014598017
0.001414819
0.001369202
0.0013228879
0.0012762144
0.0012289796
0.0011810519
0.0011321322
0.0010826868
0.0010329637
0.00098193008
0.0009303706
0.00087826226
0.00082485641
0.00077125386
0.00071702811
0.00066162933
0.00060628413
0.00055041473
0.00049399366
0.00043812741
0.00038402114
0.00032955964
0.00029042874
0.00023110706
0.00036725918
-0.00022942133
0.0049873168
0.005015991
0.0050371627
0.0050581925
0.0050855298
0.0051223036
0.0051689333
0.0052260822
0.0052958735
0.0053804772
0.0054803763
0.0055913818
0.0056999364
0.0057745055
0.0057681018
0.0056575797
0.0054713252
0.0052591769
0.0050494791
0.0048464342
0.0046507701
0.0044661788
0.0042942543
0.0041333578
0.0039811657
0.0038369809
0.0037019396
0.0035774584
0.0034638407
0.0033600102
0.0032648473
0.0031784956
0.0031014718
0.0030333889
0.002973216
0.0029198678
0.002872307
0.0028295117
0.0027907017
0.0027551898
0.0027221429
0.0026908521
0.0026606827
0.0026309703
0.0026011921
0.0025710247
0.0025403293
0.0025089964
0.0024768657
0.0024436965
0.0024091946
0.0023732228
0.0023358142
0.0022972075
0.002257713
0.0022175393
0.0021770064
0.0021362441
0.002095376
0.0020543888
0.0020131045
0.001971603
0.0019299118
0.0018882792
0.0018466249
0.0018047073
0.0017626375
0.001720674
0.0016785565
0.00163589
0.0015927193
0.0015493272
0.0015056468
0.00146135
0.0014162793
0.0013705131
0.0013244075
0.0012776995
0.0012301377
0.0011820947
0.0011332751
0.0010839554
0.0010343043
0.00098326641
0.00093169399
0.00087962123
0.00082620914
0.00077257312
0.00071832541
0.00066290658
0.00060753742
0.0005516327
0.0004951811
0.00043929403
0.00038514723
0.0003306532
0.00029142433
0.00023198703
0.00036738454
-0.00022684379
0.0049673326
0.0049967868
0.0050204796
0.0050440525
0.0050726522
0.0051093386
0.0051550309
0.0052104334
0.0052771549
0.0053567044
0.0054487771
0.0055486034
0.0056430468
0.0057049889
0.005696159
0.0055960945
0.0054257113
0.0052269176
0.0050267423
0.0048312243
0.0046415617
0.0044612376
0.0042922547
0.004133592
0.0039833532
0.0038409348
0.0037073264
0.0035838181
0.0034707507
0.0033672574
0.0032723569
0.0031861006
0.0031089217
0.003040494
0.002979861
0.0029259796
0.0028778522
0.0028344988
0.0027951371
0.0027590804
0.0027255251
0.0026937619
0.0026631605
0.0026330744
0.0026029841
0.0025725599
0.0025416467
0.0025101252
0.0024778308
0.0024445271
0.0024099328
0.0023739097
0.0023364869
0.0022978866
0.0022584053
0.0022182514
0.0021777262
0.0021369673
0.002096092
0.0020550943
0.00201381
0.0019723013
0.0019305999
0.001888937
0.0018472623
0.0018053581
0.0017632975
0.0017212865
0.0016790663
0.0016362891
0.0015930176
0.0015495306
0.0015056368
0.0014611994
0.0014163958
0.0013712651
0.001325707
0.0012791227
0.0012313984
0.0011833631
0.0011346177
0.0010850833
0.0010352159
0.00098425086
0.00093281538
0.000880822
0.00082742055
0.00077377668
0.00071955933
0.0006641371
0.00060873853
0.0005528142
0.00049634357
0.00044043447
0.00038624668
0.00033172616
0.00029238952
0.00023283235
0.00036725211
-0.00022384335
0.0049477568
0.004977733
0.0050033622
0.0050289719
0.0050586223
0.0050951614
0.0051398151
0.0051933205
0.0052568526
0.0053313281
0.005415817
0.005505214
0.0055870825
0.0056380703
0.0056268745
0.0055356916
0.0053796977
0.0051937285
0.0050030011
0.0048149563
0.0046313505
0.0044554753
0.004289625
0.0041333485
0.0039851633
0.0038445736
0.0037124533
0.0035899819
0.003477534
0.0033744269
0.0032798124
0.0031936739
0.0031163671
0.0030476158
0.0029865386
0.0029321366
0.0028834512
0.0028395424
0.0027996309
0.0027630307
0.0027289651
0.002696728
0.0026656926
0.0026352297
0.0026048233
0.0025741376
0.0025430025
0.0025112889
0.0024788283
0.0024453887
0.0024107003
0.0023746241
0.0023371846
0.0022985885
0.0022591189
0.0022189843
0.0021784687
0.0021377149
0.0020968332
0.0020558219
0.0020145311
0.0019730127
0.0019313065
0.0018896262
0.0018479333
0.0018060185
0.001763935
0.0017218782
0.0016796286
0.0016368566
0.0015935879
0.001550044
0.0015060431
0.001461493
0.0014165872
0.001371308
0.001325614
0.0012792028
0.0012319752
0.0011844476
0.0011359826
0.0010863067
0.0010362949
0.00098543546
0.00093386337
0.00088163082
0.00082829529
0.00077478318
0.00072064059
0.00066522976
0.00060983421
0.00055394307
0.00049746533
0.00044152718
0.00038730852
0.00033277023
0.0002933167
0.00023362549
0.00036680072
-0.00022034748
0.004928461
0.0049587414
0.0049858135
0.0050129978
0.0050434644
0.0050797697
0.0051232884
0.0051747673
0.0052350211
0.0053044529
0.0053816497
0.0054613652
0.0055320212
0.0055734979
0.005560079
0.0054764452
0.0053334296
0.005159685
0.0049782902
0.0047976617
0.0046201442
0.0044488759
0.0042863432
0.0041326055
0.0039865794
0.0038478883
0.0037173177
0.003595952
0.0034841965
0.0033815307
0.0032872323
0.0032012387
0.0031238351
0.0030547862
0.002993284
0.0029383765
0.0028891427
0.0028446811
0.0028042197
0.0027670747
0.002732494
0.0026997772
0.0026683021
0.002637455
0.0026067245
0.0025757694
0.0025444054
0.0025124938
0.0024798626
0.0024462835
0.0024114972
0.0023753646
0.0023379054
0.0022993116
0.0022598531
0.0022197369
0.0021792312
0.0021384814
0.0020975925
0.0020565667
0.0020152694
0.0019737442
0.0019320355
0.0018903379
0.0018486213
0.0018066894
0.0017645859
0.0017224952
0.0016802173
0.0016374293
0.0015941397
0.0015505622
0.0015065535
0.0014620101
0.0014170776
0.0013717091
0.0013258938
0.0012793731
0.001232011
0.0011843854
0.0011361069
0.0010868252
0.0010372504
0.00098672503
0.00093501568
0.00088256441
0.00082931553
0.00077571472
0.00072137901
0.0006660265
0.0006107613
0.00055493348
0.00049846327
0.00044252788
0.0003883147
0.00033376519
0.00029418931
0.00023435024
0.00036596847
-0.0002162702
0.0049093325
0.0049397293
0.0049678259
0.0049961682
0.005027206
0.0050631696
0.005105461
0.0051548063
0.0052117236
0.0052761852
0.0053464175
0.0054171841
0.0054778412
0.0055110537
0.0054956025
0.0054184032
0.0052870464
0.0051248753
0.0049526544
0.0047793774
0.0046079578
0.0044414276
0.0042823856
0.0041313346
0.0039875724
0.0038508513
0.0037218925
0.0036017008
0.0034907088
0.0033885396
0.0032945898
0.0032087681
0.0031312983
0.0030619781
0.0030000706
0.0029446723
0.0028948999
0.0028498889
0.0028088784
0.0027711884
0.0027360892
0.0027028891
0.0026709704
0.0026397338
0.0026086736
0.0025774433
0.0025458455
0.002513732
0.0024809272
0.0024472062
0.0024123198
0.0023761287
0.002338648
0.0023000554
0.0022606076
0.0022205091
0.0021800131
0.0021392671
0.0020983713
0.0020573319
0.0020160286
0.0019744968
0.0019327842
0.0018910678
0.0018493264
0.0018073786
0.0017652582
0.0017231345
0.001680823
0.0016380132
0.0015947052
0.0015511031
0.0015070789
0.0014625208
0.0014175603
0.0013721743
0.0013263475
0.0012798074
0.001232384
0.001184653
0.0011362626
0.0010868391
0.0010372067
0.00098692319
0.00093554571
0.00088345994
0.0008305115
0.00077677347
0.00072221245
0.00066692513
0.000611591
0.00055560121
0.00049920137
0.00044337468
0.00038918748
0.00033464761
0.00029497694
0.00023497817
0.0003646831
-0.00021151509
0.0048902708
0.0049206196
0.0049493849
0.0049785131
0.0050098771
0.005045376
0.0050863516
0.0051334782
0.0051870307
0.0052466315
0.0053102523
0.0053727787
0.0054245217
0.0054505499
0.0054332808
0.0053615896
0.0052406753
0.0050893922
0.0049261408
0.0047601385
0.0045948078
0.0044331207
0.0042777286
0.0041295077
0.0039881139
0.0038534371
0.0037261552
0.003607207
0.003497051
0.0033954367
0.003301872
0.0032162525
0.0031387494
0.0030691871
0.0030068967
0.002951025
0.0029007262
0.0028551718
0.0028136148
0.002775381
0.0027397614
0.0027060747
0.0026737087
0.0026420776
0.0026106816
0.0025791698
0.0025473325
0.0025150122
0.0024820298
0.0024481638
0.0024131739
0.0023769217
0.0023394168
0.0023008234
0.0022613849
0.0022213028
0.0021808163
0.0021400737
0.0020991712
0.0020581185
0.0020168084
0.0019752697
0.001933552
0.0018918172
0.0018500516
0.0018080878
0.0017659495
0.0017237912
0.0016814445
0.0016386137
0.00159529
0.0015516631
0.0015076177
0.0014630423
0.0014180598
0.0013726551
0.0013268018
0.0012802384
0.0012328154
0.0011850686
0.0011366509
0.0010871767
0.0010374432
0.00098704512
0.00093552144
0.00088345167
0.00083080185
0.00077736716
0.0007231017
0.00066802111
0.00061250781
0.00055632442
0.00049997168
0.00044407968
0.00038978074
0.00033532742
0.00029561655
0.00023543073
0.00036283425
-0.00020597601
0.0048711873
0.0049013417
0.0049304715
0.0049600563
0.0049915087
0.0050264111
0.0050659865
0.0051108305
0.0051610182
0.0052158977
0.005273276
0.0053282413
0.0053720422
0.0053918232
0.0053729575
0.0053060076
0.0051944284
0.0050533312
0.0048988012
0.0047399818
0.004580715
0.0044239515
0.0042723526
0.0041270991
0.0039881777
0.003855621
0.0037300826
0.0036124484
0.0035032008
0.0034022012
0.0033090614
0.003223676
0.0031461736
0.0030763999
0.0030137506
0.0029574242
0.0029066122
0.0028605212
0.0028184211
0.0027796452
0.0027435037
0.0027093276
0.0026765108
0.0026444803
0.0026127427
0.0025809433
0.0025488611
0.0025163294
0.002483166
0.0024491521
0.0024140562
0.0023777402
0.0023402088
0.002301613
0.002262183
0.0022221162
0.0021816393
0.0021409
0.0020999912
0.0020589255
0.0020176084
0.0019760627
0.0019343395
0.0018925866
0.0018507969
0.001808816
0.001766659
0.001724466
0.0016820843
0.0016392322
0.001595892
0.0015522387
0.001508171
0.0014635799
0.0014185769
0.0013731501
0.001327267
0.0012806842
0.0012332591
0.0011854824
0.0011370408
0.0010875757
0.0010378224
0.00098738538
0.00093581049
0.00088364744
0.00083087359
0.00077731452
0.0007231744
0.0006684069
0.00061314622
0.00055721381
0.00050094295
0.0004448445
0.00039041024
0.0003359733
0.00029604326
0.0002356027
0.00036026761
-0.0001995597
0.0048520028
0.0048818318
0.0049110651
0.0049408165
0.0049721326
0.0050063041
0.0050444
0.0050869172
0.0051337661
0.0051840881
0.0052356011
0.0052836504
0.0053203816
0.005334731
0.0053144857
0.0052516447
0.0051484032
0.0050167883
0.0048706921
0.004718946
0.0045657034
0.0044139204
0.0042662408
0.0041240844
0.0039877373
0.0038573776
0.0037336509
0.0036174015
0.0035091349
0.0034088116
0.0033161396
0.003231023
0.0031535567
0.0030836044
0.0030206226
0.0029638619
0.0029125519
0.0028659333
0.0028232951
0.0027839798
0.0027473164
0.0027126489
0.0026793787
0.0026469446
0.0026148601
0.0025827674
0.0025504349
0.0025176875
0.0024843394
0.0024501749
0.00241497
0.0023785876
0.0023410271
0.002302427
0.0022630043
0.0022229518
0.0021824841
0.0021417477
0.0021008327
0.0020597543
0.0020184297
0.001976877
0.0019351478
0.0018933769
0.0018515629
0.001809564
0.0017673875
0.0017251601
0.0016827431
0.0016398688
0.0015965109
0.0015528309
0.0015087408
0.0014641337
0.0014191091
0.0013736587
0.0013277467
0.0012811455
0.0012337152
0.0011859072
0.0011374456
0.0010879843
0.001038198
0.00098773594
0.00093616849
0.00088399262
0.00083117568
0.00077754651
0.00072331419
0.00066840975
0.00061311178
0.00055742419
0.00050143492
0.00044552345
0.00039123237
0.00033673223
0.00029647631
0.00023575264
0.0003569021
-0.00019218668
0.0048326474
0.0048620326
0.0048911449
0.0049208091
0.004951781
0.0049850896
0.0050216334
0.0050617976
0.0051053568
0.0051513046
0.0051973311
0.0052390735
0.0052695183
0.0052791477
0.0052577296
0.005198476
0.0051026817
0.0049798581
0.0048418741
0.0046970715
0.0045497994
0.0044030321
0.0042593793
0.004120441
0.0039867676
0.0038586821
0.0037368361
0.003622043
0.0035148301
0.003415246
0.0033230879
0.0032382772
0.003160884
0.0030907878
0.0030275016
0.0029703289
0.0029185376
0.002871402
0.0028282318
0.002788381
0.0027511964
0.0027160364
0.0026823106
0.002649469
0.0026170326
0.0025846409
0.0025520531
0.0025190854
0.0024855492
0.0024512311
0.0024159144
0.0023794629
0.0023418708
0.0023032644
0.0022638477
0.0022238084
0.0021833497
0.002142616
0.0021016951
0.0020606044
0.0020192721
0.0019777122
0.0019359764
0.0018941878
0.0018523494
0.0018103317
0.0017681353
0.0017258735
0.0016834209
0.0016405232
0.001597147
0.0015534405
0.0015093273
0.0014647034
0.0014196564
0.001374182
0.0013282414
0.0012816207
0.0012341835
0.0011863458
0.0011378643
0.0010884034
0.0010385841
0.00098810003
0.00093653216
0.00088433543
0.00083150042
0.00077787005
0.00072361823
0.00066865656
0.0006132831
0.00055749441
0.00050137535
0.00044556437
0.000391535
0.00033723761
0.0002969995
0.00023599018
0.00035290684
-0.00018358376
0.0048130591
0.0048418937
0.0048706913
0.0049000475
0.0049304865
0.0049628069
0.004997734
0.0050355356
0.0050758747
0.0051176459
0.0051585612
0.0051945681
0.0052194304
0.0052249623
0.0052025641
0.0051464679
0.0050573311
0.0049426311
0.0048124109
0.0046744007
0.0045330317
0.0043912955
0.0042517581
0.0041161487
0.0039852447
0.0038595101
0.0037396142
0.003626349
0.0035202626
0.0034214818
0.0033298864
0.0032454209
0.0031681395
0.0030979358
0.0030343758
0.0029768152
0.0029245611
0.0028769207
0.0028332264
0.0027928452
0.0027551415
0.0027194886
0.0026853055
0.0026520534
0.0026192604
0.0025865646
0.0025537165
0.0025205244
0.0024867966
0.0024523222
0.0024168908
0.0023803675
0.0023427412
0.0023041265
0.0022647146
0.0022246872
0.0021842372
0.002143506
0.0021025792
0.0020614766
0.0020201362
0.0019785691
0.0019368261
0.0018950199
0.0018531571
0.00181112
0.0017689029
0.0017266069
0.0016841182
0.0016411963
0.0015978012
0.0015540678
0.001509931
0.0014652892
0.0014202196
0.0013747207
0.0013287512
0.00128211
0.0012346652
0.0011867983
0.0011382957
0.0010888336
0.0010389831
0.00098847659
0.00093690521
0.00088468846
0.00083183638
0.00077819544
0.0007239221
0.00066895288
0.000613568
0.00055773789
0.00050155164
0.00044565483
0.00039147479
0.00033714094
0.0002969593
0.00023580431
0.00034826424
-0.00017353931
0.0047931838
0.0048213711
0.0048496871
0.0048785444
0.0049082821
0.0049394995
0.0049727546
0.0050081991
0.0050454047
0.0050832074
0.0051193788
0.0051501837
0.0051700959
0.0051720759
0.005148875
0.0050955808
0.0050124052
0.0049051926
0.0047823683
0.0046509785
0.0045154311
0.004378723
0.0042433707
0.0041111892
0.0039831458
0.0038598378
0.0037419614
0.0036302954
0.003525408
0.0034274957
0.0033365142
0.0032524361
0.0031753068
0.003105034
0.0030412325
0.0029833102
0.0029306134
0.0028824825
0.0028382733
0.002797368
0.0027591483
0.0027230032
0.002688362
0.0026546968
0.0026215431
0.0025885383
0.0025554252
0.0025220044
0.0024880817
0.0024534482
0.0024178993
0.0023813015
0.0023436383
0.0023050133
0.0022656048
0.0022255882
0.0021851464
0.0021444175
0.0021034851
0.0020623709
0.0020210222
0.0019794477
0.0019376971
0.0018958734
0.0018539862
0.0018119289
0.0017696906
0.0017273604
0.0016848352
0.0016418883
0.0015984735
0.0015547132
0.0015105519
0.0014658917
0.0014207991
0.001375275
0.0013292762
0.0012826139
0.0012351605
0.0011872646
0.0011387401
0.0010892758
0.0010393948
0.00098886444
0.00093728865
0.00088505311
0.00083218298
0.00077852884
0.00072423642
0.00066925647
0.00061384875
0.00055799679
0.00050180909
0.00044588323
0.00039161587
0.00033718405
0.00029655018
0.00023531607
0.00034178628
-0.00016208697
0.0047729741
0.0048004271
0.0048281182
0.0048563125
0.0048852016
0.0049152137
0.0049467523
0.0049798588
0.0050140316
0.0050480801
0.0050798642
0.0051059629
0.0051214929
0.0051204003
0.0050965581
0.0050457714
0.0049679454
0.0048676211
0.004751813
0.0046268515
0.0044970305
0.0043653305
0.0042342144
0.0041055474
0.00398045
0.0038596422
0.0037438541
0.0036338582
0.0035302419
0.003433264
0.00334295
0.0032593036
0.0031823686
0.0031120666
0.0030480582
0.0029898021
0.0029366848
0.0028880794
0.0028433665
0.0028019447
0.0027632133
0.0027265777
0.0026914784
0.0026573981