/*--------------------------------*- C++ -*----------------------------------*\
  =========                 |
  \\      /  F ield         | OpenFOAM: The Open Source CFD Toolbox
   \\    /   O peration     | Website:  https://openfoam.org
    \\  /    A nd           | Version:  12
     \\/     M anipulation  |
\*---------------------------------------------------------------------------*/
FoamFile
{
    format      ascii;
    class       surfaceScalarField;
    location    "1500";
    object      phi;
}
// * * * * * * * * * * * * * * * * * * * * * * * * * * * * * * * * * * * * * //

dimensions      [0 3 -1 0 0 0 0];

internalField   nonuniform List<scalar> 
14782
(
0.0007983908
1.0682388e-06
-0.00079945903
0.0007969552
1.4355969e-06
0.00079532298
1.6322207e-06
0.00079361472
1.7082554e-06
0.00079183086
1.7838666e-06
0.00078997005
1.8608041e-06
0.0007880349
1.9351471e-06
0.00078602208
2.01282e-06
0.00078392132
2.1007689e-06
0.00078173267
2.1886413e-06
0.00077938191
2.3507679e-06
0.00077698309
2.3988112e-06
0.00077340238
3.5807169e-06
0.00076706198
6.3403932e-06
0.00075812763
8.9343573e-06
0.00074740525
1.0722378e-05
0.00073575268
1.1652574e-05
0.00072356081
1.219187e-05
0.0007111142
1.2446602e-05
0.00069865977
1.2454439e-05
0.00068634751
1.2312257e-05
0.00067425698
1.2090525e-05
0.00066233398
1.1923e-05
0.00065052487
1.1809111e-05
0.00063892385
1.1601016e-05
0.00062767593
1.1247921e-05
0.00061698709
1.0688844e-05
0.00060693582
1.0051267e-05
0.00059746911
9.466712e-06
0.00058861901
8.8501028e-06
0.00058043595
8.1830565e-06
0.0005729508
7.4851531e-06
0.00056616719
6.7836138e-06
0.00056006624
6.1009492e-06
0.0005546106
5.4556395e-06
0.00054974911
4.861489e-06
0.00054542333
4.3257809e-06
0.00054158235
3.8409789e-06
0.00053818249
3.3998615e-06
0.00053517592
3.0065671e-06
0.00053250954
2.6663779e-06
0.00053012838
2.381157e-06
0.00052798263
2.1457593e-06
0.00052603309
1.9495319e-06
0.00052423682
1.796272e-06
0.00052255141
1.6854145e-06
0.00052094487
1.6065322e-06
0.0005193885
1.5563752e-06
0.00051785954
1.5289593e-06
0.00051633612
1.5234223e-06
0.00051479263
1.543483e-06
0.00051320514
1.5874933e-06
0.00051156159
1.64355e-06
0.0005098613
1.7002883e-06
0.00050810972
1.75158e-06
0.00050631637
1.7933487e-06
0.00050449216
1.8242164e-06
0.00050265172
1.8404343e-06
0.00050080784
1.8438838e-06
0.00049896561
1.8422253e-06
0.00049712775
1.8378617e-06
0.00049529631
1.8314472e-06
0.00049347642
1.8198832e-06
0.00049167315
1.8032713e-06
0.00048988904
1.784115e-06
0.0004881267
1.7623407e-06
0.00048639029
1.7364103e-06
0.00048468232
1.7079697e-06
0.0004830004
1.6819107e-06
0.00048134071
1.65969e-06
0.00047970149
1.6392291e-06
0.00047808209
1.6193976e-06
0.00047648185
1.6002341e-06
0.00047490128
1.5805728e-06
0.00047334245
1.55883e-06
0.00047180634
1.5361116e-06
0.00047029103
1.5153081e-06
0.00046879459
1.4964376e-06
0.00046731528
1.479311e-06
0.00046585284
1.4624436e-06
0.00046440741
1.4454269e-06
0.00046298011
1.4273001e-06
0.00046157201
1.408101e-06
0.00046018091
1.3910966e-06
0.00045880541
1.3755033e-06
0.00045744492
1.3604912e-06
0.00045609847
1.3464515e-06
0.00045476759
1.3308737e-06
0.00045345266
1.3149346e-06
0.00045215151
1.301155e-06
0.00045086348
1.2880266e-06
0.00044958782
1.2756571e-06
0.00044832373
1.2640913e-06
0.00044707164
1.2520883e-06
0.00044582862
1.2430226e-06
0.00044459219
1.2364246e-06
0.00044335246
1.2397394e-06
0.00044207917
1.2732862e-06
0.00044084921
1.2299556e-06
1.47894e-06
0.00082684524
1.0459816e-06
-0.00082682299
0.00082687815
1.402696e-06
0.00082688527
1.6250954e-06
0.00082686962
1.7239059e-06
0.00082684198
1.8115026e-06
0.00082679793
1.904854e-06
0.00082673683
1.9962561e-06
0.00082665626
2.0933887e-06
0.00082655105
2.2059791e-06
0.00082640925
2.3304368e-06
0.00082622003
2.5399865e-06
0.00082585574
2.7630997e-06
0.0008254321
4.0043578e-06
0.00082494382
6.8286722e-06
0.0008239912
9.8869849e-06
0.00082232486
1.2388715e-05
0.0008198751
1.4102331e-05
0.00081671531
1.5351658e-05
0.00081291942
1.6242494e-05
0.00080854112
1.6832739e-05
0.00080360095
1.7252426e-05
0.00079812688
1.7564601e-05
0.00079224938
1.7800493e-05
0.00078606879
1.7989702e-05
0.00077960354
1.8066267e-05
0.00077287643
1.797503e-05
0.00076586856
1.7696721e-05
0.00075863585
1.7283978e-05
0.00075129064
1.6811921e-05
0.00074389164
1.6249104e-05
0.00073649299
1.5581698e-05
0.00072914576
1.4832388e-05
0.00072190302
1.4026349e-05
0.00071481899
1.3184986e-05
0.00070794442
1.2330206e-05
0.00070132451
1.1481399e-05
0.00069500705
1.0643237e-05
0.00068900896
9.8390767e-06
0.00068330585
9.1029678e-06
0.00067788472
8.4277009e-06
0.00067274784
7.8032524e-06
0.00066789505
7.2339454e-06
0.00066331696
6.7238575e-06
0.00065899165
6.2748359e-06
0.00065489853
5.8893887e-06
0.00065102009
5.56386e-06
0.00064733327
5.2933514e-06
0.00064381914
5.0705013e-06
0.00064046634
4.881759e-06
0.00063723405
4.7557163e-06
0.00063407852
4.6990147e-06
0.00063099323
4.6727854e-06
0.00062798003
4.6567501e-06
0.00062504105
4.6392631e-06
0.00062217458
4.6180552e-06
0.00061937615
4.5917761e-06
0.00061664025
4.5601112e-06
0.0006139574
4.5232935e-06
0.00061131604
4.4852385e-06
0.00060871064
4.4476225e-06
0.00060614148
4.4070284e-06
0.00060361005
4.3628769e-06
0.00060111923
4.3106996e-06
0.00059867134
4.2511607e-06
0.00059626671
4.1887497e-06
0.00059390589
4.1231553e-06
0.00059158944
4.0528586e-06
0.00058931464
3.9827721e-06
0.00058707638
3.9201757e-06
0.00058487164
3.8644297e-06
0.00058270066
3.8102034e-06
0.00058056436
3.7556964e-06
0.00057846259
3.7020098e-06
0.00057639539
3.6477692e-06
0.00057436336
3.5908624e-06
0.0005723651
3.534374e-06
0.00057039721
3.4831969e-06
0.00056845771
3.435931e-06
0.00056654595
3.3910769e-06
0.00056466213
3.3462657e-06
0.00056280636
3.3011912e-06
0.00056097878
3.2548816e-06
0.00055917866
3.2082255e-06
0.00055740331
3.1664406e-06
0.00055565143
3.1273866e-06
0.00055392281
3.0891127e-06
0.00055221697
3.0522868e-06
0.00055053449
3.0133547e-06
0.00054887458
2.9748404e-06
0.00054723492
2.9408241e-06
0.00054561465
2.9082877e-06
0.00054401346
2.8768502e-06
0.00054243037
2.8471843e-06
0.00054086522
2.8172342e-06
0.000539313
2.7952493e-06
0.00053777641
2.7730082e-06
0.00053622841
2.7877375e-06
0.00053470414
2.7975565e-06
0.00053296666
2.9674412e-06
2.9621037e-06
0.00085447077
1.0422909e-06
-0.00085446708
0.00085448557
1.3878898e-06
0.00085449734
1.6133299e-06
0.00085449116
1.730085e-06
0.00085447152
1.8311398e-06
0.00085443862
1.9377535e-06
0.00085439
2.0448836e-06
0.00085432386
2.1595217e-06
0.00085423575
2.2940924e-06
0.00085411315
2.4530356e-06
0.00085394589
2.7072485e-06
0.00085364078
3.0682048e-06
0.00085337268
4.2724667e-06
0.00085335896
6.8423923e-06
0.0008534985
9.7474357e-06
0.00085369612
1.2191097e-05
0.00085384364
1.3954816e-05
0.00085389486
1.5300441e-05
0.00085379503
1.6342324e-05
0.00085350408
1.7123686e-05
0.00085300685
1.7749655e-05
0.00085228677
1.8284682e-05
0.00085132898
1.8758279e-05
0.00085011698
1.9201703e-05
0.00084859388
1.9589367e-05
0.00084667308
1.9895832e-05
0.00084425644
2.0113357e-05
0.00084129003
2.0250387e-05
0.00083777253
2.032942e-05
0.00083367503
2.0346607e-05
0.00082900343
2.0253304e-05
0.00082380079
2.0035019e-05
0.00081810985
1.9717299e-05
0.00081199074
1.9304091e-05
0.00080552182
1.8799129e-05
0.00079879637
1.8206843e-05
0.00079191496
1.7524646e-05
0.00078498427
1.6769766e-05
0.00077810595
1.5981294e-05
0.00077136186
1.5171784e-05
0.00076481765
1.4347463e-05
0.00075852146
1.3530134e-05
0.00075246713
1.2778192e-05
0.00074662732
1.2114645e-05
0.00074101095
1.1505762e-05
0.00073563414
1.0940664e-05
0.00073050873
1.0418769e-05
0.00072563503
9.9442019e-06
0.00072099411
9.5226731e-06
0.00071656494
9.1848886e-06
0.00071233166
8.9322903e-06
0.00070827613
8.728321e-06
0.0007043834
8.5494822e-06
0.00070064364
8.3790218e-06
0.00069704359
8.2181025e-06
0.00069356778
8.067588e-06
0.00069019986
7.9280324e-06
0.00068691179
7.8113584e-06
0.00068368564
7.7113909e-06
0.00068052547
7.6077952e-06
0.00067743376
7.4987388e-06
0.00067440856
7.3880699e-06
0.00067144799
7.2712753e-06
0.00066855114
7.148003e-06
0.00066571647
7.023421e-06
0.0006629429
6.8967302e-06
0.00066022687
6.7688889e-06
0.00065756068
6.6489558e-06
0.00065493884
6.542025e-06
0.00065236074
6.4425275e-06
0.00064982804
6.342902e-06
0.00064734167
6.2420676e-06
0.00064490097
6.1427111e-06
0.00064250547
6.0432617e-06
0.00064015446
5.9418744e-06
0.00063784439
5.8444457e-06
0.00063557102
5.7565687e-06
0.00063333301
5.6739411e-06
0.00063113051
5.5935802e-06
0.00062896384
5.5129302e-06
0.00062683295
5.4320791e-06
0.00062473715
5.3506874e-06
0.00062267435
5.2710212e-06
0.00062064154
5.199254e-06
0.00061863769
5.1312368e-06
0.00061666291
5.0638889e-06
0.00061471692
4.9982818e-06
0.00061279966
4.9306094e-06
0.00061090952
4.864986e-06
0.00060904395
4.8063933e-06
0.00060720219
4.7500489e-06
0.00060538413
4.6949045e-06
0.00060358865
4.6426707e-06
0.0006018151
4.5907764e-06
0.00060005749
4.5528598e-06
0.00059832047
4.5100351e-06
0.0005965701
4.5381007e-06
0.00059486783
4.4998304e-06
0.00059284633
4.9889439e-06
4.5283767e-06
0.00088301903
1.0500119e-06
-0.00088302675
0.00088303031
1.3766023e-06
0.00088304003
1.6036141e-06
0.00088303183
1.7382798e-06
0.00088301054
1.8524341e-06
0.00088297624
1.9720548e-06
0.00088292598
2.0951436e-06
0.00088285782
2.22768e-06
0.00088276751
2.3843999e-06
0.00088264331
2.5772382e-06
0.00088247408
2.8764746e-06
0.00088220432
3.3379708e-06
0.00088195804
4.5187486e-06
0.00088193413
6.866302e-06
0.00088208456
9.5970014e-06
0.000882328
1.1947658e-05
0.00088258835
1.3694467e-05
0.00088284945
1.5039345e-05
0.00088309001
1.6101759e-05
0.00088329507
1.6918626e-05
0.00088346673
1.7578e-05
0.00088360633
1.8145074e-05
0.00088371204
1.8652569e-05
0.0008837841
1.9129645e-05
0.00088381525
1.9558221e-05
0.00088379054
1.9920545e-05
0.00088368949
2.0214408e-05
0.00088348563
2.045424e-05
0.00088314754
2.0667507e-05
0.00088263723
2.0856917e-05
0.00088188301
2.1007532e-05
0.00088079415
2.1123872e-05
0.0008792927
2.1218757e-05
0.0008772995
2.129729e-05
0.00087473725
2.1361374e-05
0.00087153577
2.1408327e-05
0.00086763577
2.1424647e-05
0.00086303692
2.1368614e-05
0.00085779799
2.1220224e-05
0.0008519869
2.0982875e-05
0.00084569491
2.0639447e-05
0.00083905075
2.0174302e-05
0.00083221126
1.9617677e-05
0.00082532394
1.9001969e-05
0.00081850363
1.8326073e-05
0.00081184056
1.7603728e-05
0.00080541157
1.6847758e-05
0.00079921659
1.6139189e-05
0.00079321563
1.5523629e-05
0.00078743913
1.4961389e-05
0.00078192713
1.4444288e-05
0.00077668959
1.3965865e-05
0.00077171758
1.3521493e-05
0.00076698173
1.3114864e-05
0.00076244748
1.2752355e-05
0.00075809111
1.2423955e-05
0.00075389648
1.2122668e-05
0.00074985307
1.185477e-05
0.00074595304
1.1611415e-05
0.0007421828
1.1378038e-05
0.00073852701
1.1154525e-05
0.00073497117
1.0943919e-05
0.00073150717
1.0735274e-05
0.00072813276
1.0522412e-05
0.00072484481
1.0311373e-05
0.00072163899
1.0102546e-05
0.00071850334
9.9045379e-06
0.00071542476
9.727533e-06
0.00071240298
9.5638056e-06
0.00070944192
9.4035915e-06
0.00070654251
9.2423079e-06
0.0007037037
9.0808793e-06
0.00070092352
8.9228943e-06
0.00069820083
8.7659535e-06
0.0006955326
8.6101022e-06
0.00069291223
8.464819e-06
0.00069033564
8.333159e-06
0.00068780332
8.2062608e-06
0.00068531606
8.0808399e-06
0.00068287376
7.9552217e-06
0.00068047591
7.8299352e-06
0.00067812047
7.7061262e-06
0.00067580368
7.587813e-06
0.00067352249
7.4804372e-06
0.00067127662
7.3771134e-06
0.00066906646
7.2740503e-06
0.0006668917
7.1730408e-06
0.00066475145
7.0708578e-06
0.000662643
6.9734342e-06
0.00066056374
6.8856526e-06
0.00065851319
6.8005962e-06
0.00065649148
6.7166169e-06
0.00065449715
6.6369997e-06
0.00065252893
6.5589993e-06
0.00065058011
6.5016827e-06
0.0006486565
6.4336447e-06
0.00064672011
6.4744915e-06
0.00064484899
6.3709434e-06
0.00064258916
7.2487795e-06
6.2033288e-06
0.00091252407
1.0646948e-06
-0.00091253875
0.0009125296
1.3710769e-06
0.00091253358
1.599629e-06
0.00091252212
1.749743e-06
0.00091249794
1.876612e-06
0.00091246132
2.0086736e-06
0.00091240936
2.1471037e-06
0.00091233954
2.2975022e-06
0.00091224765
2.4762922e-06
0.00091212292
2.7019634e-06
0.00091195647
3.0429293e-06
0.00091171346
3.580978e-06
0.00091148915
4.7430544e-06
0.00091145755
6.8979057e-06
0.0009115981
9.4564511e-06
0.00091183065
1.1715111e-05
0.00091208673
1.3438386e-05
0.00091234845
1.4777627e-05
0.00091259957
1.5850633e-05
0.00091282597
1.6692225e-05
0.00091302824
1.7375734e-05
0.00091321057
1.7962736e-05
0.00091337562
1.848752e-05
0.00091352979
1.8975482e-05
0.00091367355
1.9414455e-05
0.00091380501
1.9789083e-05
0.00091392248
2.0096939e-05
0.00091402481
2.0351913e-05
0.0009141132
2.0579119e-05
0.0009141865
2.0783617e-05
0.00091423902
2.0955012e-05
0.00091426372
2.1099168e-05
0.00091425062
2.1231854e-05
0.00091418319
2.1364728e-05
0.00091403608
2.1508481e-05
0.00091377242
2.1671991e-05
0.00091333561
2.1861457e-05
0.00091262886
2.2075357e-05
0.00091153468
2.2314404e-05
0.00090993891
2.2578647e-05
0.00090772079
2.2857571e-05
0.00090475944
2.3135647e-05
0.00090098786
2.338926e-05
0.00089643091
2.3558921e-05
0.00089115935
2.3597625e-05
0.00088526203
2.3501056e-05
0.00087886669
2.3243092e-05
0.00087215105
2.2854834e-05
0.00086529321
2.2381467e-05
0.00085844186
2.1812744e-05
0.00085172122
2.116492e-05
0.0008452352
2.0451894e-05
0.00083900327
1.9753421e-05
0.00083297794
1.9140196e-05
0.00082715598
1.8574313e-05
0.00082155887
1.8021064e-05
0.0008162074
1.7474139e-05
0.0008111178
1.694437e-05
0.00080627312
1.6456089e-05
0.00080163041
1.6020748e-05
0.00079715932
1.5625621e-05
0.00079284243
1.5260804e-05
0.00078867333
1.4904379e-05
0.0007846459
1.4549836e-05
0.00078074651
1.4210763e-05
0.00077695972
1.3889339e-05
0.0007732752
1.3589056e-05
0.00076968939
1.3313341e-05
0.00076619885
1.3054354e-05
0.00076279764
1.2804797e-05
0.00075947936
1.2560592e-05
0.00075623942
1.2320817e-05
0.00075307478
1.2087529e-05
0.00074998341
1.1857328e-05
0.00074695761
1.1635906e-05
0.000743987
1.1435429e-05
0.00074107076
1.1249395e-05
0.00073821242
1.1064597e-05
0.0007354121
1.0881163e-05
0.00073266828
1.0699043e-05
0.00072997959
1.0518625e-05
0.00072734168
1.0344032e-05
0.0007247487
1.0180801e-05
0.00072219865
1.0030479e-05
0.00071969247
9.8832995e-06
0.00071723054
9.7359749e-06
0.00071481217
9.5914108e-06
0.000712435
9.4480295e-06
0.00071009492
9.3135128e-06
0.0007077897
9.190878e-06
0.00070551941
9.0708812e-06
0.00070328433
8.951704e-06
0.00070108234
8.838985e-06
0.00069891121
8.730129e-06
0.00069676374
8.6491579e-06
0.00069464675
8.5506338e-06
0.00069251921
8.6020311e-06
0.00069047224
8.417914e-06
0.00068797948
9.7415387e-06
8.0043831e-06
0.00094301477
1.0851083e-06
-0.00094303518
0.00094301362
1.3722315e-06
0.00094301241
1.6008379e-06
0.00094299862
1.7635261e-06
0.00094297254
1.9026994e-06
0.0009429344
2.0468145e-06
0.00094288142
2.2000819e-06
0.00094281057
2.3683497e-06
0.00094271773
2.5691331e-06
0.00094259368
2.8260141e-06
0.00094243136
3.2052526e-06
0.00094221085
3.8014806e-06
0.00094200874
4.9451701e-06
0.00094197341
6.9332288e-06
0.00094210393
9.3259329e-06
0.00094232587
1.1493174e-05
0.00094257531
1.3188943e-05
0.00094283121
1.4521726e-05
0.00094307875
1.56031e-05
0.00094330443
1.6466546e-05
0.00094350824
1.7171916e-05
0.00094369412
1.7776862e-05
0.00094386452
1.8317115e-05
0.00094402509
1.8814921e-05
0.00094417677
1.9262772e-05
0.00094431835
1.9647502e-05
0.00094444788
1.9967411e-05
0.0009445646
2.023519e-05
0.00094467067
2.0473054e-05
0.0009447671
2.0687184e-05
0.00094485294
2.0869177e-05
0.00094492824
2.1023866e-05
0.00094499369
2.1166404e-05
0.00094504988
2.1308538e-05
0.00094509753
2.1460831e-05
0.00094513677
2.1632749e-05
0.00094516667
2.1831553e-05
0.000945183
2.2059033e-05
0.00094517779
2.2319615e-05
0.00094513743
2.2619005e-05
0.00094503746
2.2957541e-05
0.00094483539
2.3337717e-05
0.000944464
2.3760645e-05
0.00094380098
2.4221941e-05
0.00094268569
2.4712918e-05
0.00094096591
2.5220836e-05
0.0009384836
2.5725399e-05
0.00093513743
2.6201007e-05
0.00093093374
2.6585162e-05
0.00092593744
2.6809041e-05
0.00092024529
2.6857073e-05
0.0009139964
2.6700779e-05
0.00090738571
2.6364113e-05
0.00090061527
2.5910636e-05
0.00089384888
2.5340701e-05
0.00088720638
2.4663566e-05
0.00088078342
2.3897097e-05
0.00087458877
2.3139023e-05
0.00086856932
2.2475532e-05
0.00086273312
2.1856952e-05
0.00085711528
2.1243463e-05
0.00085174286
2.0633222e-05
0.00084661036
2.0036876e-05
0.00084167968
1.948052e-05
0.00083692077
1.896967e-05
0.00083231804
1.8492073e-05
0.00082787435
1.8032743e-05
0.0008235969
1.7590792e-05
0.000819472
1.7179259e-05
0.00081547722
1.6799574e-05
0.00081159794
1.6439874e-05
0.00080782879
1.6089967e-05
0.00080416513
1.575118e-05
0.00080059946
1.5422998e-05
0.00079712417
1.5111196e-05
0.00079373431
1.4825298e-05
0.00079042632
1.4557376e-05
0.00078719675
1.4294175e-05
0.00078404133
1.4036576e-05
0.00078095641
1.3783967e-05
0.00077793964
1.3535391e-05
0.00077498282
1.3300856e-05
0.00077207833
1.3085294e-05
0.0007692275
1.2881303e-05
0.00076643231
1.2678492e-05
0.00076369219
1.2476096e-05
0.0007610055
1.2278099e-05
0.00075836754
1.2085989e-05
0.00075577278
1.1908274e-05
0.00075322032
1.1743335e-05
0.0007507109
1.1580309e-05
0.00074824454
1.1418055e-05
0.00074581799
1.1265543e-05
0.00074342771
1.1120407e-05
0.00074106636
1.1010502e-05
0.00073874191
1.0875085e-05
0.00073641048
1.0933459e-05
0.00073417482
1.0653582e-05
0.00073144089
1.2475469e-05
9.9475238e-06
0.00097452375
1.1101379e-06
-0.00097454878
0.00097451641
1.3795734e-06
0.00097451056
1.6066834e-06
0.0009744943
1.7797838e-06
0.00097446608
1.9309239e-06
0.00097442602
2.0868739e-06
0.0009743716
2.2545066e-06
0.00097429953
2.4404128e-06
0.0009742059
2.662762e-06
0.00097408308
2.9488377e-06
0.00097392583
3.3625013e-06
0.00097372515
4.00216e-06
0.00097354397
5.1263532e-06
0.00097350717
6.9700297e-06
0.00097362766
9.2054386e-06
0.00097383988
1.1280957e-05
0.00097408341
1.2945417e-05
0.00097433505
1.4270085e-05
0.00097458103
1.5357117e-05
0.00097480802
1.6239553e-05
0.00097501465
1.6965283e-05
0.00097520349
1.7588032e-05
0.0009753773
1.8143301e-05
0.0009755406
1.8651616e-05
0.00097569438
1.9108993e-05
0.00097583763
1.9504251e-05
0.00097596899
1.9836055e-05
0.00097608812
2.0116064e-05
0.00097619701
2.0364163e-05
0.00097629682
2.0587367e-05
0.00097638669
2.0779307e-05
0.00097646656
2.0943996e-05
0.0009765373
2.1095668e-05
0.00097659944
2.1246402e-05
0.00097665374
2.1406527e-05
0.00097670133
2.1585158e-05
0.00097674339
2.1789496e-05
0.00097678064
2.202178e-05
0.00097681399
2.2286267e-05
0.00097684438
2.2588612e-05
0.00097687216
2.2929763e-05
0.00097689732
2.3312554e-05
0.00097691869
2.3739277e-05
0.00097693154
2.420909e-05
0.00097692444
2.4720025e-05
0.00097687673
2.5268543e-05
0.00097674937
2.585276e-05
0.0009764793
2.6471071e-05
0.00097594356
2.7120906e-05
0.00097495792
2.7794681e-05
0.00097333808
2.8476919e-05
0.00097089882
2.9140032e-05
0.00096752048
2.9742455e-05
0.00096323555
3.0195569e-05
0.00095814857
3.042768e-05
0.00095238187
3.0430263e-05
0.00094610331
3.0175663e-05
0.00093952399
2.9718338e-05
0.00093284162
2.9157901e-05
0.00092619892
2.8499657e-05
0.00091969801
2.7744373e-05
0.00091341598
2.691525e-05
0.0009073124
2.6140456e-05
0.00090132683
2.5466089e-05
0.00089550433
2.4792173e-05
0.0008898947
2.4101702e-05
0.00088451485
2.3412591e-05
0.00087934279
2.2762853e-05
0.00087435455
2.2167494e-05
0.0008695373
2.1616823e-05
0.00086488828
2.1088893e-05
0.00086040409
2.057416e-05
0.00085607087
2.0084405e-05
0.00085187062
1.9623242e-05
0.00084779772
1.9184093e-05
0.00084385627
1.8766748e-05
0.00084003856
1.8375086e-05
0.00083633008
1.8002661e-05
0.00083272037
1.7646285e-05
0.00082920374
1.7300599e-05
0.00082577541
1.6963724e-05
0.00082243001
1.664625e-05
0.00081916279
1.6352515e-05
0.0008159697
1.6074391e-05
0.00081284786
1.5800337e-05
0.00080979414
1.5529814e-05
0.00080680555
1.5266688e-05
0.0008038739
1.5017636e-05
0.00080099293
1.4789248e-05
0.00079816468
1.4571582e-05
0.00079538992
1.4355065e-05
0.00079266782
1.4140159e-05
0.00078999316
1.39402e-05
0.00078736102
1.3752547e-05
0.00078476459
1.3606937e-05
0.00078221308
1.3426597e-05
0.00077965948
1.3487055e-05
0.00077721754
1.3095522e-05
0.00077422574
1.5467271e-05
1.204984e-05
0.001007085
1.1388152e-06
-0.0010071137
0.0010070721
1.3924927e-06
0.0010070617
1.617066e-06
0.0010070427
1.7988176e-06
0.0010070123
1.9613221e-06
0.0010069704
2.1287775e-06
0.0010069147
2.310207e-06
0.0010068419
2.5132584e-06
0.0010067482
2.75647e-06
0.0010066275
3.06954e-06
0.0010064764
3.5135899e-06
0.0010062935
4.1850087e-06
0.0010061317
5.2881961e-06
0.0010060954
7.0063345e-06
0.0010062064
9.0943804e-06
0.0010064091
1.1078233e-05
0.0010066465
1.2708116e-05
0.0010068937
1.4022853e-05
0.0010071378
1.5113018e-05
0.001007366
1.6011304e-05
0.0010075754
1.6755948e-05
0.0010077676
1.7395805e-05
0.0010079453
1.7965579e-05
0.0010081122
1.8484708e-05
0.0010082694
1.8951817e-05
0.0010084159
1.9357747e-05
0.0010085504
1.9701522e-05
0.0010086727
1.9993824e-05
0.0010087843
2.0252503e-05
0.0010088866
2.0485115e-05
0.0010089787
2.0687161e-05
0.0010090606
2.0862148e-05
0.0010091329
2.1023365e-05
0.0010091964
2.1182859e-05
0.0010092522
2.1350712e-05
0.0010093016
2.1535841e-05
0.0010093457
2.1745393e-05
0.0010093853
2.1982154e-05
0.0010094214
2.2250173e-05
0.001009455
2.255501e-05
0.0010094865
2.2898257e-05
0.0010095165
2.3282508e-05
0.0010095457
2.3710091e-05
0.0010095746
2.4180256e-05
0.0010096035
2.4691108e-05
0.0010096324
2.5239588e-05
0.0010096612
2.5824015e-05
0.0010096886
2.6443668e-05
0.0010097106
2.7098852e-05
0.0010097157
2.7789607e-05
0.0010096806
2.8512051e-05
0.0010095599
2.9260728e-05
0.0010092747
3.0027627e-05
0.0010086672
3.0803086e-05
0.0010075198
3.1575086e-05
0.0010056292
3.232086e-05
0.0010027913
3.3013516e-05
0.00099893876
3.3570903e-05
0.00099419345
3.3903215e-05
0.00098871011
3.3982993e-05
0.00098265458
3.3799909e-05
0.00097622987
3.3339957e-05
0.00096964599
3.2724341e-05
0.00096305643
3.2055645e-05
0.0009565539
3.1294703e-05
0.00095022424
3.0431365e-05
0.00094404676
2.959007e-05
0.00093795608
2.8853531e-05
0.00093199549
2.8128082e-05
0.00092623272
2.7379596e-05
0.00092069262
2.6628989e-05
0.00091534992
2.5916861e-05
0.00091018098
2.525335e-05
0.00090517883
2.462539e-05
0.00090034826
2.4014666e-05
0.00089569191
2.3423097e-05
0.00089119749
2.2869504e-05
0.00088684915
2.2351002e-05
0.00088263734
2.1858096e-05
0.00087855569
2.1382244e-05
0.00087459384
2.0925581e-05
0.00087074762
2.0492472e-05
0.00086701648
2.0083648e-05
0.00086339066
1.9700214e-05
0.00085985992
1.9331078e-05
0.00085641697
1.897276e-05
0.00085305633
1.8627329e-05
0.00084977386
1.830011e-05
0.00084656509
1.7998016e-05
0.00084342568
1.7710993e-05
0.00084035276
1.7427989e-05
0.00083734379
1.7149127e-05
0.0008343908
1.6893183e-05
0.00083148773
1.665562e-05
0.00082862941
1.6465259e-05
0.00082582617
1.6229839e-05
0.00082302706
1.6286163e-05
0.00082035667
1.5765906e-05
0.00081708359
1.8740357e-05
1.4330652e-05
0.0010407338
1.1704207e-06
-0.0010407654
0.0010407158
1.410412e-06
0.0010407011
1.6318635e-06
0.0010406792
1.8207107e-06
0.0010406467
1.9937949e-06
0.0010406031
2.1723943e-06
0.0010405462
2.3670747e-06
0.0010404728
2.5866523e-06
0.0010403794
2.8498364e-06
0.0010402614
3.1876018e-06
0.001040117
3.6579803e-06
0.0010399501
4.3518928e-06
0.0010398059
5.4324404e-06
0.0010397715
7.0406458e-06
0.0010398739
8.9919872e-06
0.0010400673
1.0884918e-05
0.0010402981
1.2477272e-05
0.0010405409
1.3780097e-05
0.0010407828
1.4871046e-05
0.0010410119
1.5782203e-05
0.0010412237
1.654417e-05
0.0010414192
1.7200287e-05
0.0010416008
1.7784049e-05
0.0010417714
1.8314107e-05
0.0010419321
1.8791053e-05
0.0010420822
1.9207677e-05
0.0010422203
1.9563374e-05
0.0010423462
1.9867925e-05
0.0010424613
2.0137401e-05
0.0010425668
2.0379685e-05
0.001042662
2.0591955e-05
0.0010427467
2.0777408e-05
0.0010428217
2.0948404e-05
0.0010428877
2.1116866e-05
0.0010429457
2.1292673e-05
0.001042997
2.1484539e-05
0.0010430428
2.1699559e-05
0.001043084
2.1941006e-05
0.0010431213
2.2212865e-05
0.0010431558
2.2520498e-05
0.0010431882
2.2865906e-05
0.0010432191
2.3251549e-05
0.0010432495
2.3679717e-05
0.0010432799
2.4149892e-05
0.0010433107
2.4660231e-05
0.0010433424
2.5207952e-05
0.0010433748
2.5791598e-05
0.0010434079
2.6410596e-05
0.0010434416
2.7065081e-05
0.0010434764
2.7754821e-05
0.0010435121
2.847634e-05
0.0010435483
2.9224577e-05
0.0010435833
2.9992572e-05
0.0010436108
3.0775581e-05
0.001043614
3.1571966e-05
0.0010435572
3.2377618e-05
0.001043377
3.3193692e-05
0.0010429312
3.4016761e-05
0.0010419938
3.4840613e-05
0.0010403278
3.5648996e-05
0.0010377167
3.6410935e-05
0.0010340188
3.703793e-05
0.0010293299
3.7413164e-05
0.0010238842
3.7501354e-05
0.0010178718
3.7307145e-05
0.0010114962
3.6806949e-05
0.0010049591
3.6127158e-05
0.00099840306
3.5409592e-05
0.00099191062
3.4620519e-05
0.00098556218
3.3728038e-05
0.00097933495
3.2856216e-05
0.00097316935
3.2082465e-05
0.00096712099
3.1301713e-05
0.0009612607
3.0485678e-05
0.00095560487
2.96705e-05
0.00095012826
2.8899706e-05
0.00094482176
2.8176004e-05
0.00093969138
2.7481376e-05
0.00093474028
2.6809203e-05
0.00092995985
2.6162671e-05
0.00092533405
2.5551378e-05
0.00092085584
2.4970688e-05
0.00091652666
2.4412823e-05
0.00091233833
2.3888549e-05
0.00090827757
2.3391838e-05
0.00090433483
2.2915497e-05
0.00090050173
2.2460429e-05
0.00089677713
2.2024709e-05
0.00089315836
2.1616786e-05
0.0008896339
2.1235454e-05
0.00088619564
2.0866247e-05
0.00088283755
2.0507217e-05
0.00087955357
2.0177167e-05
0.00087634007
1.9869119e-05
0.00087318745
1.9617877e-05
0.00087010255
1.9314742e-05
0.0008670292
1.9359514e-05
0.00086410321
1.8691889e-05
0.00086051914
2.2324432e-05
1.6812266e-05
0.0010755062
1.2044389e-06
-0.0010755403
0.0010754839
1.4327638e-06
0.0010754649
1.6508656e-06
0.0010754401
1.8454719e-06
0.0010754056
2.0282896e-06
0.0010753604
2.2176369e-06
0.0010753024
2.4250129e-06
0.0010752287
2.6603576e-06
0.0010751362
2.9424104e-06
0.0010750213
3.3024858e-06
0.001074884
3.7952168e-06
0.0010747317
4.504202e-06
0.0010746036
5.5605886e-06
0.0010745724
7.0717823e-06
0.0010746672
8.8972793e-06
0.0010748513
1.0700815e-05
0.0010750755
1.2253001e-05
0.0010753138
1.3541855e-05
0.0010755534
1.4631435e-05
0.0010757829
1.5552681e-05
0.0010759969
1.6330224e-05
0.0010761955
1.700168e-05
0.0010763806
1.75989e-05
0.0010765548
1.8139891e-05
0.0010767191
1.8626757e-05
0.0010768727
1.9054087e-05
0.0010770144
1.9421649e-05
0.001077144
1.9738403e-05
0.0010772625
2.0018858e-05
0.0010773711
2.0271059e-05
0.0010774694
2.0493652e-05
0.0010775572
2.0689687e-05
0.0010776349
2.0870626e-05
0.0010777036
2.1048202e-05
0.0010777641
2.1232124e-05
0.0010778178
2.1430908e-05
0.0010778657
2.1651597e-05
0.0010779089
2.1897883e-05
0.001077948
2.2173736e-05
0.0010779842
2.2484336e-05
0.001078018
2.2832026e-05
0.0010780504
2.3219189e-05
0.001078082
2.3648069e-05
0.0010781136
2.4118374e-05
0.0010781454
2.4628408e-05
0.0010781777
2.5175616e-05
0.0010782107
2.5758566e-05
0.0010782446
2.6376699e-05
0.0010782797
2.7030058e-05
0.0010783162
2.7718274e-05
0.0010783546
2.8437908e-05
0.001078395
2.9184251e-05
0.0010784365
2.9951059e-05
0.0010784786
3.0733461e-05
0.0010785211
3.1529453e-05
0.0010785632
3.2335528e-05
0.001078604
3.3152888e-05
0.0010786397
3.398108e-05
0.0010786568
3.4823503e-05
0.0010786219
3.5683897e-05
0.0010784742
3.655866e-05
0.0010780664
3.7445693e-05
0.0010771484
3.8331212e-05
0.0010754535
3.9196235e-05
0.001072748
4.00126e-05
0.0010688966
4.0658342e-05
0.0010640171
4.1006688e-05
0.0010583896
4.1037144e-05
0.0010522531
4.0757013e-05
0.0010458212
4.0159894e-05
0.0010392755
3.9401877e-05
0.0010327291
3.862889e-05
0.0010262493
3.7781557e-05
0.0010198956
3.6839365e-05
0.0010136215
3.5944559e-05
0.0010073861
3.5135145e-05
0.0010012766
3.4285485e-05
0.000995351
3.3406986e-05
0.00098960887
3.2551338e-05
0.00098403716
3.1734373e-05
0.00097863725
3.0951292e-05
0.00097341623
3.0191709e-05
0.00096837526
2.9453796e-05
0.00096350348
2.8760323e-05
0.00095879147
2.8103854e-05
0.00095423482
2.7472144e-05
0.00094982299
2.6872261e-05
0.00094554812
2.6299577e-05
0.00094140723
2.5757675e-05
0.00093739179
2.5250901e-05
0.00093349113
2.4766904e-05
0.00092969517
2.4303175e-05
0.00092599983
2.3872505e-05
0.00092240398
2.346497e-05
0.00091889244
2.3129423e-05
0.0009154669
2.274028e-05
0.00091206482
2.2761591e-05
0.00090884045
2.1916266e-05
0.0009049083
2.6256579e-05
1.9520797e-05
0.00111144
1.2404927e-06
-0.0011114761
0.0011114138
1.4590128e-06
0.0011113908
1.673812e-06
0.0011113632
1.8730752e-06
0.0011113267
2.0647604e-06
0.00111128
2.26439e-06
0.0011112211
2.4838676e-06
0.0011111474
2.734104e-06
0.001111056
3.0337535e-06
0.0011109448
3.4137339e-06
0.001110815
3.9250323e-06
0.0011106761
4.643125e-06
0.0011105625
5.6740977e-06
0.0011105353
7.0989965e-06
0.0011106233
8.8092651e-06
0.0011107985
1.0525685e-05
0.0011110161
1.2035426e-05
0.0011112497
1.3308218e-05
0.0011114867
1.4394422e-05
0.0011117162
1.5323148e-05
0.0011119321
1.6114402e-05
0.0011121335
1.6800193e-05
0.0011123221
1.7410299e-05
0.0011124999
1.7962129e-05
0.0011126677
1.8458961e-05
0.0011128248
1.8896976e-05
0.0011129701
1.9276329e-05
0.0011131033
1.9605232e-05
0.0011132253
1.9896817e-05
0.0011133372
2.0159159e-05
0.0011134387
2.0392178e-05
0.0011135295
2.0598894e-05
0.0011136102
2.0789935e-05
0.0011136816
2.0976776e-05
0.0011137448
2.1168974e-05
0.0011138008
2.1374859e-05
0.001113851
2.1601413e-05
0.0011138962
2.185269e-05
0.0011139373
2.2132678e-05
0.0011139752
2.244639e-05
0.0011140108
2.2796462e-05
0.0011140447
2.3185241e-05
0.0011140779
2.3614925e-05
0.0011141108
2.408543e-05
0.001114144
2.4595224e-05
0.0011141776
2.5141969e-05
0.0011142119
2.5724272e-05
0.0011142471
2.6341584e-05
0.0011142832
2.6993868e-05
0.0011143208
2.7680675e-05
0.00111436
2.8398731e-05
0.0011144008
2.9143421e-05
0.0011144431
2.990877e-05
0.0011144866
3.0689971e-05
0.0011145313
3.1484829e-05
0.0011145768
3.2289986e-05
0.001114623
3.3106716e-05
0.0011146688
3.3935235e-05
0.0011147142
3.4778145e-05
0.001114759
3.5639086e-05
0.0011148024
3.6515251e-05
0.0011148415
3.7406616e-05
0.001114862
3.8310714e-05
0.0011148253
3.9232878e-05
0.0011146618