/*--------------------------------*- C++ -*----------------------------------*\
  =========                 |
  \\      /  F ield         | OpenFOAM: The Open Source CFD Toolbox
   \\    /   O peration     | Website:  https://openfoam.org
    \\  /    A nd           | Version:  12
     \\/     M anipulation  |
\*---------------------------------------------------------------------------*/
FoamFile
{
    format      ascii;
    class       volVectorField;
    location    "1500";
    object      U;
}
// * * * * * * * * * * * * * * * * * * * * * * * * * * * * * * * * * * * * * //

dimensions      [0 1 -1 0 0 0 0];

internalField   nonuniform List<vector> 
7480
(
(0.99717945 8.1007792e-05 1.4989826e-17)
(0.99545431 0.00018548102 0)
(0.99352814 0.00025519147 1.7964527e-19)
(0.99145695 0.0002980946 0)
(0.98927021 0.00032999184 0)
(0.98699004 0.0003520094 0)
(0.98462106 0.00036778723 0)
(0.9821577 0.00038026946 0)
(0.97959574 0.00039202654 0)
(0.9769067 0.00040065219 0)
(0.97413411 0.00042251738 0)
(0.97096912 0.00040427735 0)
(0.96835453 0.00063375714 0)
(0.96221015 0.00086043785 1.1769348e-16)
(0.95210799 0.0014577851 -2.6591503e-18)
(0.93960119 0.0019806583 0)
(0.92554159 0.0023183386 0)
(0.91058293 0.0025039087 0)
(0.89509399 0.0025823704 0)
(0.87950526 0.002550801 0)
(0.86401292 0.0024702421 0)
(0.84878069 0.0023369783 0)
(0.83384989 0.0021313049 0)
(0.81901874 0.0018956627 0)
(0.80437107 0.0016871542 0)
(0.79007014 0.0015032188 0)
(0.77630145 0.0013244769 0)
(0.76341411 0.0011579349 0)
(0.75123088 0.001017207 0)
(0.73978873 0.00089410613 0)
(0.72915489 0.0007823132 0)
(0.71938029 0.00067976945 0)
(0.71048635 0.00058587273 0)
(0.70246286 0.00050140249 0)
(0.69527198 0.00042706378 0)
(0.68885798 0.00036286994 0)
(0.68314815 0.00030819092 0)
(0.67807173 0.00026163419 0)
(0.67357107 0.00022150452 0)
(0.66959284 0.0001864826 0)
(0.66607378 0.00015658068 0)
(0.66294382 0.00013212932 0)
(0.6601364 0.00011270775 0)
(0.65759249 9.7059455e-05 0)
(0.65527316 8.5001812e-05 0)
(0.65311134 7.6605767e-05 0)
(0.65106805 7.1163668e-05 0)
(0.64910383 6.801405e-05 0)
(0.64718448 6.6436748e-05 0)
(0.64528779 6.6509345e-05 0)
(0.64338202 6.8237687e-05 0)
(0.64143379 7.0840118e-05 0)
(0.63941953 7.3818038e-05 0)
(0.63733144 7.6664236e-05 0)
(0.63517411 7.9035694e-05 0)
(0.63295846 8.0661939e-05 0)
(0.63069724 8.1438506e-05 0)
(0.62840615 8.1216201e-05 0)
(0.62610426 8.0099602e-05 0)
(0.62380289 7.8522671e-05 0)
(0.62150619 7.6758527e-05 0)
(0.61921598 7.4900029e-05 0)
(0.61693632 7.285792e-05 0)
(0.61467408 7.0629527e-05 0)
(0.6124349 6.8312931e-05 0)
(0.6102216 6.5939635e-05 0)
(0.60803777 6.3464249e-05 0)
(0.60588848 6.0926836e-05 0)
(0.60377452 5.8504674e-05 0)
(0.60169102 5.6287876e-05 0)
(0.59963333 5.4224046e-05 0)
(0.59760011 5.2259257e-05 0)
(0.59559129 5.03791e-05 0)
(0.59360657 4.8546905e-05 0)
(0.59164735 4.6710058e-05 0)
(0.58971638 4.4886341e-05 0)
(0.58781333 4.3156648e-05 0)
(0.58593508 4.1535573e-05 0)
(0.58407875 4.001718e-05 0)
(0.5822433 3.8561416e-05 0)
(0.58042881 3.7149611e-05 0)
(0.57863616 3.5755891e-05 0)
(0.57686724 3.437535e-05 0)
(0.57512147 3.3078171e-05 0)
(0.57339584 3.1858287e-05 0)
(0.57168895 3.0693822e-05 0)
(0.56999991 2.9587792e-05 0)
(0.56832919 2.8490323e-05 0)
(0.56667861 2.7414517e-05 0)
(0.56504701 2.6409799e-05 0)
(0.56343193 2.5454464e-05 0)
(0.56183235 2.4543873e-05 0)
(0.560248 2.3677617e-05 0)
(0.55867758 2.2831632e-05 0)
(0.55712419 2.2057808e-05 0)
(0.55557019 2.1373629e-05 0)
(0.55405304 2.0236488e-05 0)
(0.55242725 3.3336144e-05 3.8777742e-20)
(0.55106528 2.2114545e-05 -2.1940913e-19)
(0.54855502 3.3067756e-05 -5.1017076e-18)
(0.99846854 0.00034770435 0)
(0.99849085 0.00051626564 0)
(0.99854975 0.00061644638 -2.3233756e-19)
(0.99854883 0.00061385603 -2.9378698e-18)
(0.9985218 0.00062363058 0)
(0.9984743 0.00062986263 0)
(0.99841011 0.00063288748 0)
(0.9983254 0.00063563506 0)
(0.99821526 0.00064099023 0)
(0.99806554 0.00064675583 0)
(0.99787375 0.00067125152 0)
(0.99755983 0.00067978798 0)
(0.99715809 0.00088028161 0)
(0.99658 0.0014057428 0)
(0.99574486 0.0020269151 0)
(0.99422849 0.0024020489 0)
(0.99176711 0.002537144 0)
(0.98836046 0.0025551975 0)
(0.98411944 0.0025103858 0)
(0.9791702 0.0024353554 0)
(0.97353983 0.0023488153 0)
(0.96723022 0.0022654875 0)
(0.9603111 0.0022160077 0)
(0.95302533 0.0022010306 0)
(0.94537655 0.0021782235 0)
(0.93740468 0.0021234933 0)
(0.92912306 0.0020394514 0)
(0.92047817 0.0019260021 0)
(0.91165387 0.0017975983 0)
(0.90273186 0.0016631331 0)
(0.89378328 0.0015234483 0)
(0.88486466 0.0013841495 0)
(0.87603959 0.0012466942 0)
(0.86737448 0.0011131595 0)
(0.85893362 0.00098677564 0)
(0.85077514 0.00087020098 0)
(0.84294946 0.00076425795 0)
(0.83552378 0.00067122644 0)
(0.82846906 0.00059225392 0)
(0.82175383 0.00052422314 0)
(0.81538078 0.00046482427 0)
(0.80935237 0.00041378246 0)
(0.80366605 0.00037060288 0)
(0.79830038 0.00033388605 0)
(0.7932232 0.00030230353 0)
(0.78841853 0.00027600262 0)
(0.78385949 0.00025498415 0)
(0.77951807 0.00023805844 0)
(0.7753753 0.00022374248 0)
(0.77142301 0.00021347178 0)
(0.76757012 0.00020721507 0)
(0.76380233 0.00020261649 0)
(0.76012023 0.00019854957 0)
(0.75652672 0.00019437924 0)
(0.75302288 0.00019000483 0)
(0.74960462 0.00018531922 0)
(0.74626513 0.00018027442 0)
(0.74299872 0.00017488189 0)
(0.73978671 0.0001692609 0)
(0.73661918 0.00016358141 0)
(0.73349465 0.00015792636 0)
(0.73041482 0.00015229681 0)
(0.72738207 0.00014651165 0)
(0.72439973 0.00014062051 0)
(0.72147004 0.00013481071 0)
(0.71859285 0.00012907876 0)
(0.7157696 0.00012335086 0)
(0.71299906 0.00011776399 0)
(0.71027562 0.00011257882 0)
(0.70759375 0.00010781636 0)
(0.70495177 0.00010331096 0)
(0.70235102 9.8985465e-05 0)
(0.69979244 9.4850999e-05 0)
(0.69727545 9.085631e-05 0)
(0.69480069 8.6926116e-05 0)
(0.69236831 8.3121965e-05 0)
(0.68997476 7.9572455e-05 0)
(0.68761616 7.6252003e-05 0)
(0.68529098 7.3124182e-05 0)
(0.68299938 7.01219e-05 0)
(0.68074155 6.7227879e-05 0)
(0.6785179 6.4408393e-05 0)
(0.6763283 6.1669383e-05 0)
(0.67417037 5.912145e-05 0)
(0.67204106 5.6722385e-05 0)
(0.66993977 5.4430975e-05 0)
(0.66786617 5.2255997e-05 0)
(0.66582052 5.0119932e-05 0)
(0.66380309 4.8059863e-05 0)
(0.66181159 4.6146701e-05 0)
(0.6598436 4.432686e-05 0)
(0.65789859 4.2593503e-05 0)
(0.65597658 4.0950549e-05 0)
(0.6540754 3.935895e-05 0)
(0.65219727 3.7926517e-05 0)
(0.65032398 3.6556743e-05 0)
(0.64849402 3.5718969e-05 0)
(0.6465594 3.6773802e-05 0)
(0.6449112 3.483491e-05 0)
(0.6419482 3.7422415e-05 0)
(0.99850257 0.00034301261 0)
(0.99850923 0.0004373168 0)
(0.99854077 0.00045981758 0)
(0.9985551 0.00046016226 0)
(0.99854025 0.00046305244 0)
(0.99850538 0.00046794686 0)
(0.99845646 0.00047437829 0)
(0.99839037 0.00048344484 0)
(0.99830186 0.00049709289 0)
(0.99817969 0.0005150113 0)
(0.99801536 0.00055114563 0)
(0.99776282 0.00060765746 0)
(0.9974183 0.00084914854 0)
(0.99717923 0.0014284854 0)
(0.99721836 0.002044119 0)
(0.99745918 0.0024942737 0)
(0.99771843 0.0027848425 0)
(0.99786234 0.0029912398 0)
(0.9978392 0.0031354334 0)
(0.99761544 0.0032217058 0)
(0.9971597 0.00326581 0)
(0.99645142 0.003284767 0)
(0.99547258 0.0032787524 0)
(0.9942074 0.0032531968 0)
(0.99263365 0.0031963419 0)
(0.99063905 0.003111879 0)
(0.98813711 0.003000155 0)
(0.98498315 0.0028762648 0)
(0.98119547 0.0027555436 0)
(0.97675067 0.0026322293 0)
(0.97160741 0.0024939511 0)
(0.96582338 0.0023389534 0)
(0.95943942 0.0021793982 0)
(0.95251459 0.0020194901 0)
(0.94513111 0.0018610754 0)
(0.93739009 0.001705573 0)
(0.92940851 0.0015539013 0)
(0.92130566 0.0014082983 0)
(0.91321078 0.0012719166 0)
(0.90523103 0.0011464533 0)
(0.89745152 0.0010320636 0)
(0.88994001 0.00092900773 0)
(0.88274155 0.00084080937 0)
(0.87579412 0.00076717565 0)
(0.86909608 0.00070383525 0)
(0.86267156 0.00064821464 0)
(0.85653375 0.00059906697 0)
(0.85069778 0.00055615532 0)
(0.84514769 0.00051867205 0)
(0.8398547 0.00048643736 0)
(0.8347995 0.0004606472 0)
(0.82996372 0.00044031143 0)
(0.82532436 0.00042259115 0)
(0.820869 0.00040550236 0)
(0.81658611 0.00038878253 0)
(0.8124572 0.00037266247 0)
(0.8084645 0.00035731207 0)
(0.8045882 0.00034324578 0)
(0.80078112 0.00032998974 0)
(0.79704862 0.00031682334 0)
(0.79339638 0.00030377874 0)
(0.78982401 0.00029102136 0)
(0.78632766 0.00027837324 0)
(0.78290577 0.00026588244 0)
(0.77955785 0.00025379191 0)
(0.77628177 0.00024204022 0)
(0.77307709 0.00023062787 0)
(0.76993499 0.00021986532 0)
(0.76684614 0.00020995083 0)
(0.76380801 0.00020072067 0)
(0.76082183 0.00019188667 0)
(0.75788948 0.00018336677 0)
(0.75501131 0.00017521819 0)
(0.75218598 0.00016737877 0)
(0.74941369 0.00015976047 0)
(0.74669203 0.00015249987 0)
(0.74401512 0.00014576621 0)
(0.74137955 0.00013945577 0)
(0.73878513 0.00013347161 0)
(0.73623259 0.00012771604 0)
(0.73372182 0.00012217591 0)
(0.73125302 0.00011681922 0)
(0.72882434 0.00011167984 0)
(0.72643224 0.00010690825 0)
(0.72407394 0.00010240952 0)
(0.72174951 9.8104638e-05 0)
(0.71945884 9.4003566e-05 0)
(0.71720211 9.0008089e-05 0)
(0.71497842 8.6188147e-05 0)
(0.71278476 8.2639562e-05 0)
(0.7106189 7.9267144e-05 0)
(0.70848062 7.6047149e-05 0)
(0.70637012 7.2994026e-05 0)
(0.70428465 7.0053019e-05 0)
(0.70222581 6.7422665e-05 0)
(0.70017516 6.484227e-05 0)
(0.69817184 6.3330391e-05 0)
(0.69606586 6.0976655e-05 0)
(0.69426318 6.4404804e-05 0)
(0.69104711 5.9079398e-05 -4.117933e-20)
(0.99853107 0.00033360636 0)
(0.99852831 0.00042234775 0)
(0.99855209 0.00047740374 0)
(0.99856392 0.00050945588 0)
(0.99854877 0.00053424083 0)
(0.99851363 0.00055698029 0)
(0.99846439 0.00057785612 0)
(0.99839836 0.0005982803 0)
(0.99831023 0.00062166801 0)
(0.99819041 0.00064952205 0)
(0.99802908 0.00069928639 0)
(0.99779664 0.00077052839 0)
(0.99749647 0.0010221118 0)
(0.99728431 0.001526458 0)
(0.99731757 0.0020616309 0)
(0.9975672 0.0024751262 0)
(0.99789628 0.0027438411 0)
(0.99821174 0.0029168779 0)
(0.99849475 0.0030178215 0)
(0.99874543 0.0030587309 0)
(0.9989598 0.0030640024 0)
(0.99913595 0.003049612 0)
(0.99927443 0.0030266596 0)
(0.99937457 0.0029967757 0)
(0.99943437 0.0029628814 0)
(0.99944207 0.0029248336 0)
(0.99937787 0.0028824641 0)
(0.99921335 0.0028388159 0)
(0.99891633 0.0027931293 0)
(0.99844539 0.002740328 0)
(0.99775724 0.0026805663 0)
(0.99673483 0.002616483 0)
(0.99528914 0.0025471391 0)
(0.99333145 0.0024716188 0)
(0.99077208 0.0023897669 0)
(0.98752605 0.0023017719 0)
(0.98351986 0.002206014 0)
(0.97869313 0.0020975136 0)
(0.97310732 0.0019796729 0)
(0.96683405 0.0018582175 0)
(0.95995537 0.0017335032 0)
(0.95259641 0.0016061521 0)
(0.94492399 0.0014783829 0)
(0.93712615 0.0013575938 0)
(0.92934738 0.0012482885 0)
(0.92170273 0.0011478971 0)
(0.91428095 0.0010553133 0)
(0.9071679 0.0009749919 0)
(0.90027379 0.00090720682 0)
(0.89359864 0.00084901267 0)
(0.88721364 0.00079879475 0)
(0.88113681 0.0007535125 0)
(0.8753732 0.00071202641 0)
(0.86989671 0.00067393857 0)
(0.86466567 0.00063874843 0)
(0.85964479 0.00060623932 0)
(0.85481592 0.00057632577 0)
(0.85016119 0.00054876564 0)
(0.84567399 0.00052329764 0)
(0.8413425 0.00049942711 0)
(0.837149 0.00047668791 0)
(0.83307625 0.00045513744 0)
(0.829109 0.0004342619 0)
(0.82524342 0.00041381664 0)
(0.82147831 0.00039412974 0)
(0.8178087 0.00037517754 0)
(0.81422968 0.00035726232 0)
(0.81071806 0.00034072221 0)
(0.80726755 0.00032529784 0)
(0.80388484 0.00031060532 0)
(0.80057204 0.00029642862 0)
(0.79732845 0.00028278644 0)
(0.79415243 0.0002697817 0)
(0.79104166 0.00025730836 0)
(0.78799585 0.00024532403 0)
(0.78500794 0.00023407848 0)
(0.78207005 0.00022365541 0)
(0.77918147 0.00021379979 0)
(0.7763436 0.00020438882 0)
(0.77355696 0.00019533553 0)
(0.77082068 0.00018663859 0)
(0.76813465 0.00017828914 0)
(0.76549434 0.00017035911 0)
(0.7628953 0.00016299199 0)
(0.7603358 0.0001560191 0)
(0.75781661 0.00014932972 0)
(0.7553376 0.00014294372 0)
(0.75289884 0.00013676057 0)
(0.7504977 0.00013088751 0)
(0.74813062 0.00012542593 0)
(0.74579581 0.00012022926 0)
(0.74349344 0.000115255 0)
(0.74122382 0.00011053963 0)
(0.73898342 0.00010601757 0)
(0.73677313 0.00010198644 0)
(0.73457462 9.7965316e-05 0)
(0.73242741 9.5657527e-05 0)
(0.73018025 9.1422042e-05 0)
(0.72825241 9.9935469e-05 0)
(0.72482988 8.5155378e-05 3.308949e-20)
(0.99855874 0.00033731021 0)
(0.99854956 0.00042464817 0)
(0.99856419 0.00048249586 0)
(0.99856969 0.00051102543 0)
(0.99855195 0.00052790101 0)
(0.99851577 0.00054309503 0)
(0.99846602 0.00055788266 0)
(0.99840024 0.00057391244 0)
(0.9983132 0.00059505625 0)
(0.99819634 0.00062482872 0)
(0.99804081 0.00067823066 0)
(0.99782751 0.00077043505 0)
(0.99756459 0.001008886 0)
(0.99737686 0.0014592566 0)
(0.99740135 0.0019620057 0)
(0.99762451 0.002370333 0)
(0.99793118 0.0026436165 0)
(0.99823412 0.0028222049 0)
(0.99851465 0.0029360127 0)
(0.99877469 0.0029992438 0)
(0.99901024 0.0030308204 0)
(0.99922038 0.0030450254 0)
(0.99940876 0.0030459734 0)
(0.99958159 0.0030400487 0)
(0.9997435 0.0030244616 0)
(0.99989428 0.0029969211 0)
(1.0000314 0.0029572076 0)
(1.0001524 0.0029076606 0)
(1.0002566 0.0028518578 0)
(1.0003449 0.0027921213 0)
(1.000415 0.0027294216 0)
(1.0004597 0.0026648604 0)
(1.0004695 0.0026002011 0)
(1.0004304 0.0025371574 0)
(1.0003208 0.002477082 0)
(1.0001068 0.0024204796 0)
(0.99974143 0.0023670207 0)
(0.99914702 0.0023168588 0)
(0.99818914 0.0022684073 0)
(0.99674516 0.0022177264 0)
(0.99468721 0.0021621024 0)
(0.99187934 0.0021001657 0)
(0.98819277 0.0020335223 0)
(0.9836113 0.0019563326 0)
(0.97820707 0.0018636074 0)
(0.97206275 0.0017620943 0)
(0.96529074 0.0016540108 0)
(0.95805941 0.0015413437 0)
(0.95058963 0.0014321567 0)
(0.9430494 0.0013328598 0)
(0.93559617 0.0012414182 0)
(0.92834346 0.001155961 0)
(0.9214061 0.001080137 0)
(0.91470866 0.0010151939 0)
(0.90822199 0.00095691113 0)
(0.90197021 0.00090239875 0)
(0.89597612 0.00085121048 0)
(0.89026292 0.00080413354 0)
(0.88484198 0.0007614641 0)
(0.87966313 0.00072191301 0)
(0.87468396 0.00068523261 0)
(0.86988051 0.00065132701 0)
(0.86523911 0.000618947 0)
(0.86075854 0.00058760813 0)
(0.85642657 0.0005578866 0)
(0.8522265 0.00052995786 0)
(0.84814105 0.00050372255 0)
(0.84416437 0.00047933748 0)
(0.84029451 0.00045672158 0)
(0.83652658 0.00043536267 0)
(0.83285245 0.00041491444 0)
(0.8292656 0.00039534215 0)
(0.82576267 0.00037671807 0)
(0.82234082 0.00035887333 0)
(0.81899837 0.00034194137 0)
(0.8157196 0.00032624388 0)
(0.81249767 0.00031157334 0)
(0.80933828 0.00029752307 0)
(0.80624297 0.0002840553 0)
(0.80321054 0.00027113643 0)
(0.80023878 0.00025876106 0)
(0.7973271 0.00024698815 0)
(0.79446643 0.000235922 0)
(0.7916527 0.00022560019 0)
(0.78888629 0.00021577391 0)
(0.78616854 0.00020633155 0)
(0.78349876 0.00019731417 0)
(0.78087664 0.0001886422 0)
(0.77829681 0.00018045952 0)
(0.77575565 0.00017283472 0)
(0.77325239 0.00016556453 0)
(0.77078751 0.00015859333 0)
(0.76836125 0.00015199212 0)
(0.76596883 0.00014569037 0)
(0.76361035 0.0001400805 0)
(0.76126794 0.00013442593 0)
(0.7589815 0.00013123409 0)
(0.75659863 0.00012491062 1.7993334e-20)
(0.75455139 0.0001391773 0)
(0.75093316 0.00011309633 0)
(0.99858485 0.00034324465 0)
(0.99857018 0.00042451443 0)
(0.99857619 0.00048056317 0)
(0.99857615 0.00051127066 0)
(0.99855703 0.00053305192 0)
(0.99852106 0.00055527466 0)
(0.99847176 0.00057866201 0)
(0.99840694 0.00060419811 0)
(0.99832164 0.00063565624 0)
(0.99820844 0.00067744879 0)
(0.99805989 0.00074428749 0)
(0.99786431 0.00085478035 0)
(0.99763372 0.0010885534 0)
(0.99746956 0.0015026122 0)
(0.99748892 0.0019750261 0)
(0.99768896 0.0023667584 0)
(0.99797261 0.0026337214 0)
(0.99825929 0.0028103006 0)
(0.99852703 0.0029260185 0)
(0.99877624 0.0029923283 0)
(0.99900446 0.0030252065 0)
(0.99921073 0.0030341652 0)
(0.99939809 0.0030295557 0)
(0.9995716 0.0030149995 0)
(0.99973568 0.0029905661 0)
(0.99989119 0.0029547437 0)
(1.0000356 0.0029084369 0)
(1.0001664 0.0028548112 0)
(1.0002839 0.0027983107 0)
(1.0003903 0.0027406852 0)
(1.0004865 0.0026808439 0)
(1.0005721 0.002619193 0)
(1.0006467 0.0025577009 0)
(1.0007107 0.0024979509 0)
(1.0007655 0.0024410883 0)
(1.0008115 0.0023878819 0)
(1.0008484 0.0023390251 0)
(1.0008743 0.002294585 0)
(1.0008828 0.0022540292 0)
(1.000863 0.0022176532 0)
(1.0007963 0.002185676 0)
(1.00065 0.0021577928 0)
(1.0003663 0.0021328608 0)
(0.99986002 0.002109218 0)
(0.99895601 0.0020841825 0)
(0.99748937 0.0020540572 0)
(0.99530296 0.0020155669 0)
(0.99221865 0.0019709403 0)
(0.98820211 0.0019168121 0)
(0.98330259 0.0018448053 0)
(0.97760858 0.0017595573 0)
(0.97123694 0.0016645365 0)
(0.96436686 0.0015622404 0)
(0.95723278 0.0014613156 0)
(0.95002685 0.0013680821 0)
(0.94290364 0.0012809832 0)
(0.93596153 0.0011985436 0)
(0.92930569 0.0011247549 0)
(0.9228456 0.0010604582 0)
(0.91655942 0.001001393 0)
(0.91048844 0.00094545575 0)
(0.90466541 0.00089265917 0)
(0.89911515 0.00084304919 0)
(0.89379909 0.00079699383 0)
(0.88867505 0.00075413011 0)
(0.88372309 0.00071442913 0)
(0.87892996 0.000677323 0)
(0.87431475 0.00064264189 0)
(0.86987321 0.00061030081 0)
(0.86558106 0.00058017695 0)
(0.86141507 0.00055179529 0)
(0.85736708 0.00052473879 0)
(0.85343408 0.00049906357 0)
(0.84960969 0.00047467874 0)
(0.84588421 0.00045163839 0)
(0.84225091 0.00043025012 0)
(0.83870614 0.00041033761 0)
(0.8352465 0.00039135436 0)
(0.83186759 0.0003732131 0)
(0.82856497 0.00035588021 0)
(0.82533521 0.00033930621 0)
(0.82217703 0.0003237007 0)
(0.81907405 0.00030912347 0)
(0.81602641 0.00029539858 0)
(0.81303739 0.00028224418 0)
(0.81010756 0.000269605 0)
(0.80723493 0.00025754956 0)
(0.80441855 0.00024606015 0)
(0.80164884 0.00023529445 0)
(0.79892376 0.00022521215 0)
(0.79624394 0.00021556848 0)
(0.79360981 0.00020631363 0)
(0.7910212 0.00019757239 0)
(0.78847131 0.00018927296 0)
(0.78595975 0.00018188151 0)
(0.78346954 0.00017437929 0)
(0.78104102 0.00017015794 0)
(0.77851998 0.0001612157 0)
(0.77635209 0.00018214158 4.734872e-20)
(0.7725368 0.00014294615 0)
(0.99860938 0.00035050675 0)
(0.99859035 0.00042574431 0)
(0.99858912 0.00048128776 0)
(0.99858423 0.00051597112 0)
(0.99856362 0.00054206613 0)
(0.99852745 0.00056751124 0)
(0.99847815 0.00059352653 0)
(0.99841394 0.00062146274 0)
(0.9983303 0.0006555035 0)
(0.99822093 0.00070128496 0)
(0.99807986 0.00077308075 0)
(0.9979009 0.00089095993 0)
(0.99769871 0.0011161003 0)
(0.99755609 0.0014939844 0)
(0.99757201 0.0019305851 0)
(0.99775136 0.0023016 0)
(0.99801388 0.0025622465 0)
(0.9982859 0.0027386355 0)
(0.99854327 0.0028572995 0)
(0.9987846 0.0029288619 0)
(0.9990075 0.0029656522 0)
(0.99921032 0.0029810503 0)
(0.99939513 0.0029820233 0)
(0.99956631 0.0029733772 0)
(0.99972771 0.0029552457 0)
(0.99987994 0.002926516 0)
(1.0000213 0.0028879476 0)
(1.00015 0.0028421401 0)
(1.0002664 0.0027925737 0)
(1.0003725 0.0027402796 0)
(1.0004695 0.0026842768 0)
(1.0005567 0.0026253824 0)
(1.0006338 0.0025657977 0)
(1.0007017 0.0025071363 0)
(1.000761 0.0024505679 0)
(1.0008128 0.0023970235 0)
(1.0008584 0.0023471611 0)
(1.0008986 0.0023008737 0)
(1.0009346 0.0022584019 0)
(1.000967 0.0022202846 0)
(1.0009967 0.0021863987 0)
(1.0010239 0.0021566207 0)
(1.0010482 0.002130792 0)
(1.0010675 0.0021084154 0)
(1.0010743 0.0020891861 0)
(1.0010524 0.0020727306 0)
(1.0009757 0.0020588264 0)
(1.0007898 0.0020466118 0)
(1.0004195 0.0020338497 0)
(0.99968636 0.0020181025 0)
(0.99839086 0.001996331 0)
(0.99635538 0.0019652222 0)
(0.99337747 0.0019253774 0)
(0.98941683 0.0018731376 0)
(0.98458269 0.0018035063 0)
(0.97897981 0.0017211078 0)
(0.97275473 0.001627999 0)
(0.96610639 0.0015289542 0)
(0.95926834 0.0014333229 0)
(0.95241075 0.0013451657 0)
(0.94565603 0.0012632463 0)
(0.93909043 0.0011864622 0)
(0.93278617 0.0011183995 0)
(0.92658315 0.0010572555 0)
(0.92052073 0.00099863493 0)
(0.91465337 0.00094230449 0)
(0.9090284 0.0008890633 0)
(0.90363133 0.00083991602 0)
(0.89843123 0.00079455904 0)
(0.89341104 0.00075281941 0)
(0.88856158 0.00071370031 0)
(0.88388586 0.00067659694 0)
(0.87937381 0.00064173018 0)
(0.87500752 0.00060914195 0)
(0.87076786 0.00057860862 0)
(0.86666244 0.00055011868 0)
(0.86269205 0.00052349109 0)
(0.85884027 0.00049830457 0)
(0.85509338 0.0004744582 0)
(0.85144396 0.0004517898 0)
(0.84788767 0.00043020027 0)
(0.84441923 0.0004098681 0)
(0.84103291 0.00039092042 0)
(0.83772433 0.00037316168 0)
(0.83449014 0.00035617693 0)
(0.8313275 0.00033990087 0)
(0.82823266 0.00032440293 0)
(0.82520377 0.0003097805 0)
(0.82222526 0.00029611683 0)
(0.81930011 0.00028320833 0)
(0.81642996 0.0002708235 0)
(0.81361426 0.00025894379 0)
(0.81085197 0.000247777 0)
(0.80813343 0.00023724171 0)
(0.80545849 0.00022782997 0)
(0.80281161 0.00021822444 0)
(0.80023342 0.00021277837 0)
(0.79756692 0.00020079921 0)
(0.79527264 0.00022917604 4.4501018e-20)
(0.79125158 0.00017515543 0)
(0.99863257 0.00035911426 0)
(0.99861018 0.00042897885 0)
(0.99860286 0.00048387806 0)
(0.99859346 0.00052135125 0)
(0.99857114 0.00055038909 0)
(0.99853468 0.00057835906 0)
(0.99848559 0.00060747154 0)
(0.99842234 0.00063951887 0)
(0.9983409 0.00067880119 0)
(0.99823597 0.00073157791 0)
(0.99810305 0.00081130805 0)
(0.99793995 0.00093798605 0)
(0.99776283 0.0011586813 0)
(0.99763965 0.0015080348 0)
(0.99765356 0.0019139119 0)
(0.99781455 0.002268126 0)
(0.99805713 0.0025250131 0)
(0.99831465 0.0027023968 0)
(0.99856161 0.0028240937 0)
(0.99879514 0.002900445 0)
(0.99901278 0.002942604 0)
(0.9992123 0.0029621671 0)
(0.99939495 0.0029665232 0)
(0.99956447 0.0029601707 0)
(0.9997242 0.0029435052 0)
(0.99987477 0.0029158163 0)
(1.0000146 0.002877884 0)
(1.0001423 0.0028321618 0)
(1.0002579 0.0027819079 0)
(1.0003633 0.0027285089 0)
(1.0004594 0.0026716753 0)
(1.0005459 0.0026123953 0)
(1.0006223 0.0025527238 0)
(1.0006893 0.0024942188 0)
(1.0007481 0.0024380353 0)
(1.0007999 0.0023850723 0)
(1.0008458 0.0023358977 0)
(1.000887 0.0022904952 0)
(1.0009243 0.0022490464 0)
(1.0009586 0.0022118023 0)
(1.0009907 0.002178467 0)
(1.0010211 0.0021489016 0)
(1.0010503 0.0021229926 0)
(1.0010788 0.002100473 0)
(1.0011074 0.0020809828 0)
(1.0011361 0.0020640665 0)
(1.0011648 0.0020494152 0)
(1.0011931 0.0020365747 0)
(1.0012192 0.0020253125 0)
(1.0012368 0.0020158194 0)
(1.0012288 0.0020079106 0)
(1.0011662 0.002000947 0)
(1.0009875 0.0019937834 0)
(1.0005974 0.0019841139 0)
(0.99977629 0.001968405 0)
(0.99831209 0.0019432895 0)
(0.99601436 0.0019075396 0)
(0.99266833 0.0018585748 0)
(0.98835935 0.0017963583 0)
(0.98324523 0.0017223045 0)
(0.97747472 0.0016375043 0)
(0.97122867 0.0015450536 0)
(0.9647299 0.0014515298 0)
(0.95817047 0.0013641724 0)
(0.95166194 0.0012843282 0)
(0.94527643 0.0012088947 0)
(0.9391129 0.001140617 0)
(0.9330265 0.0010788336 0)
(0.92703482 0.001019767 0)
(0.92120789 0.00096289891 0)
(0.91560996 0.00090907611 0)
(0.910224 0.00085918078 0)
(0.90501672 0.00081278944 0)
(0.89997551 0.00076965339 0)
(0.89509919 0.00072904543 0)
(0.89039815 0.00069084126 0)
(0.88586711 0.00065534047 0)
(0.88148726 0.00062227364 0)
(0.87724556 0.00059119227 0)
(0.87313642 0.00056178176 0)
(0.86915269 0.00053400006 0)
(0.865281 0.00050799867 0)
(0.86152676 0.00048374362 0)
(0.85788292 0.00046096965 0)
(0.85433761 0.00043932101 0)
(0.85088218 0.00041871819 0)
(0.84751068 0.00039917483 0)
(0.8442187 0.00038072178 0)
(0.84100203 0.00036351815 0)
(0.83785601 0.00034733689 0)
(0.83477711 0.00033184115 0)
(0.83176273 0.00031700109 0)
(0.8288106 0.00030313649 0)
(0.82590712 0.00029010693 0)
(0.82305421 0.00027838578 0)
(0.82023802 0.00026637186 0)
(0.81749892 0.00025946966 0)
(0.81467587 0.00024406233 -7.3678337e-21)
(0.81224592 0.00028064584 0)
(0.80800497 0.00021006621 -1.1979708e-20)
(0.99865462 0.00036872862 0)
(0.99862965 0.0004338255 0)
(0.99861722 0.00048772768 0)
(0.99860375 0.00052729943 0)
(0.99857973 0.00055916963 0)
(0.99854304 0.00059001581 0)
(0.99849434 0.00062253514 0)
(0.99843226 0.0006586712 0)
(0.99835325 0.00070262277 0)
(0.99825299 0.00076094684 0)
(0.99812838 0.00084629233 0)
(0.9979801 0.00097768396 0)
(0.99782493 0.0011915947 0)
(0.99771908 0.0015139466 0)
(0.99773207 0.001889367 0)
(0.99787684 0.0022250444 0)
(0.99810062 0.0024753584 0)
(0.99834389 0.0026512486 0)
(0.99858055 0.0027739158 0)
(0.99880628 0.0028535511 0)
(0.99901846 0.002899666 0)
(0.99921445 0.0029226512 0)
(0.99939481 0.002929944 0)
(0.99956259 0.0029259017 0)
(0.99972072 0.0029113563 0)
(0.99986982 0.0028859965 0)
(1.0000086 0.0028506674 0)
(1.0001355 0.0028077061 0)
(1.0002509 0.0027601416 0)
(1.0003561 0.0027094642 0)
(1.0004521 0.0026555749 0)
(1.0005386 0.0025992492 0)
(1.0006152 0.0025422815 0)
(1.0006825 0.0024861731 0)
(1.0007417 0.0024320483 0)
(1.0007938 0.0023807725 0)
(1.00084 0.0023329171 0)
(1.0008814 0.0022885585 0)
(1.0009189 0.0022478557 0)
(1.0009531 0.0022110512 0)
(1.0009849 0.0021780054 0)
(1.0010151 0.0021486804 0)
(1.0010443 0.0021230156 0)
(1.0010733 0.0021006715 0)
(1.0011025 0.0020811779 0)
(1.0011325 0.0020640027 0)
(1.0011632 0.0020487511 0)
(1.0011947 0.0020351776 0)
(1.0012268 0.0020232481 0)
(1.0012596 0.0020129204 0)
(1.0012934 0.002003825 0)
(1.001328 0.0019955104 0)
(1.0013627 0.0019872928 0)
(1.0013953 0.0019787533 0)
(1.0014154 0.0019699879 0)
(1.0014006 0.0019610668 0)
(1.0013054 0.0019514759 0)
(1.0010525 0.0019410554 0)
(1.0004444 0.0019268226 0)
(0.99924467 0.00190395 0)
(0.99723475 0.0018711359 0)
(0.99421867 0.001823644 0)
(0.99012154 0.0017612623 0)
(0.98520782 0.0016907921 0)
(0.979661 0.0016107733 0)
(0.9736623 0.0015235455 0)
(0.96742228 0.0014346381 0)
(0.96111576 0.0013507408 0)
(0.95484066 0.0012742359 0)
(0.94865728 0.0012021613 0)
(0.94266053 0.0011364718 0)
(0.93670715 0.0010761388 0)
(0.9308288 0.0010177261 0)
(0.92510194 0.00096117868 0)
(0.91958568 0.00090771726 0)
(0.91425047 0.00085814038 0)
(0.90907766 0.00081201345 0)
(0.90406931 0.00076896792 0)
(0.89923448 0.00072853671 0)
(0.89457016 0.00069052874 0)
(0.89006258 0.00065502259 0)
(0.88569486 0.00062180001 0)
(0.88147066 0.0005905591 0)
(0.87738863 0.00056138781 0)
(0.87343479 0.00053397519 0)
(0.86959739 0.00050806406 0)
(0.86586971 0.00048360396 0)
(0.86224289 0.0004605923 0)
(0.8587234 0.00043914763 0)
(0.85529935 0.00041898877 0)
(0.85196098 0.00039978584 0)
(0.84870209 0.00038149034 0)
(0.84551747 0.00036440334 0)
(0.84240078 0.00034836341 0)
(0.83935162 0.00033395055 0)
(0.83635022 0.00031921835 0)
(0.83343558 0.00031064135 0)
(0.83044122 0.00029141148 0)
(0.82786324 0.00033697882 4.2732957e-20)
(0.82338356 0.00024800129 0)
(0.99867572 0.00037919138 0)
(0.99864879 0.00044012014 0)
(0.99863214 0.00049286292 0)
(0.99861508 0.00053411243 0)
(0.99858944 0.00056864722 0)
(0.99855255 0.00060225857 0)
(0.99850436 0.00063788464 0)
(0.99844358 0.0006776944 0)
(0.99836724 0.0007258758 0)
(0.99827189 0.00078915115 0)
(0.99815569 0.00087936852 0)
(0.99802135 0.001014046 0)
(0.99788559 0.0012216206 0)
(0.99779524 0.0015210299 0)
(0.99780818 0.0018692797 0)
(0.99793874 0.0021876043 0)
(0.99814498 0.0024316789 0)
(0.99837436 0.0026067328 0)
(0.99860085 0.0027310917 0)
(0.99881878 0.002814521 0)
(0.99902532 0.0028650963 0)
(0.99921754 0.0028921842 0)
(0.99939537 0.0029030486 0)
(0.99956124 0.0029019365 0)
(0.99971764 0.0028900083 0)
(0.99986518 0.0028672382 0)
(1.0000027 0.0028344941 0)
(1.0001289 0.0027939638 0)
(1.0002438 0.002748432 0)
(1.0003488 0.0026994199 0)
(1.0004446 0.0026470163 0)
(1.0005311 0.0025919611 0)
(1.0006079 0.002535984 0)
(1.0006756 0.0024806398 0)
(1.0007353 0.0024270866 0)
(1.0007879 0.0023762082 0)
(1.0008347 0.00232861 0)
(1.0008767 0.0022844438 0)
(1.0009147 0.0022438761 0)
(1.0009494 0.0022071595 0)
(1.0009817 0.0021742154 0)
(1.0010123 0.0021449806 0)
(1.0010418 0.002119353 0)
(1.0010709 0.0020969821 0)
(1.0011002 0.0020774254 0)
(1.0011299 0.0020602142 0)
(1.0011603 0.0020450312 0)
(1.0011913 0.002031674 0)
(1.0012233 0.0020199947 0)
(1.0012564 0.0020097701 0)
(1.0012911 0.0020005442 0)
(1.0013277 0.0019918188 0)
(1.0013659 0.0019831005 0)
(1.0014048 0.0019741053 0)
(1.0014442 0.0019648814 0)
(1.0014837 0.0019553026 0)
(1.0015225 0.0019455609 0)
(1.0015595 0.0019355374 0)
(1.0015887 0.0019250415 0)
(1.0015909 0.0019144372 0)
(1.0015227 0.0019034738 0)
(1.0013145 0.0018917089 0)
(1.00076 0.0018774864 0)
(0.99960059 0.0018551365 0)
(0.99759983 0.0018226569 0)
(0.99456049 0.0017738329 0)
(0.99043094 0.0017093875 0)
(0.98548625 0.0016388759 0)
(0.97997135 0.0015612732 0)
(0.97408442 0.001478171 0)
(0.96802438 0.0013940092 0)
(0.96192772 0.0013152041 0)
(0.95586739 0.0012432146 0)
(0.94989528 0.0011751432 0)
(0.94407045 0.0011126759 0)
(0.93824362 0.0010541076 0)
(0.93249144 0.00099677953 0)
(0.92690026 0.00094174159 0)
(0.92148969 0.00089026013 0)
(0.91623895 0.00084215326 0)
(0.91114473 0.0007971738 0)
(0.90621323 0.00075490896 0)
(0.90145145 0.00071510334 0)
(0.89685388 0.00067813456 0)
(0.89240643 0.00064361417 0)
(0.88810546 0.00061106655 0)
(0.88394621 0.00058053517 0)
(0.8799143 0.00055185363 0)
(0.87600926 0.00052500436 0)
(0.87222592 0.00049990373 0)
(0.86855398 0.00047619309 0)
(0.86498348 0.00045375783 0)
(0.86150582 0.00043284911 0)
(0.85812228 0.0004132318 0)
(0.85482954 0.00039558533 0)
(0.85160086 0.00037765599 0)
(0.84847248 0.00036705342 0)
(0.84527184 0.00034335807 0)
(0.84252862 0.00039857854 0)
(0.83778692 0.00028927804 0)
(0.99869605 0.00039036768 0)
(0.99866765 0.00044769262 0)
(0.99864756 0.00049922019 0)
(0.99862739 0.00054177109 0)
(0.99860025 0.00057869309 0)
(0.9985632 0.00061489088 0)
(0.99851564 0.00065342976 0)
(0.99845636 0.00069672172 0)
(0.9983829 0.00074891595 0)
(0.99829265 0.000816671 0)
(0.99818482 0.0009109384 0)
(0.9980635 0.0010474321 0)
(0.99794492 0.001248403 0)
(0.9978683 0.0015272985 0)
(0.99788176 0.0018502939 0)
(0.99799989 0.0021512102 0)
(0.99818981 0.0023880647 0)
(0.9984057 0.0025613918 0)
(0.99862213 0.0026865129 0)
(0.99883226 0.0027726517 0)
(0.99903299 0.0028267962 0)
(0.99922124 0.0028573132 0)
(0.99939634 0.0028711594 0)
(0.99956014 0.0028725051 0)
(0.99971473 0.0028627682 0)
(0.99986063 0.0028421879 0)
(0.99999685 0.0028116856 0)
(1.0001222 0.0027733375 0)
(1.0002367 0.0027297367 0)
(1.0003413 0.0026824451 0)
(1.000437 0.0026317548 0)
(1.0005234 0.0025784141 0)
(1.0006004 0.0025240649 0)