/*--------------------------------*- C++ -*----------------------------------*\
  =========                 |
  \\      /  F ield         | OpenFOAM: The Open Source CFD Toolbox
   \\    /   O peration     | Website:  https://openfoam.org
    \\  /    A nd           | Version:  12
     \\/     M anipulation  |
\*---------------------------------------------------------------------------*/
FoamFile
{
    format      ascii;
    class       volVectorField;
    location    "1500";
    object      U;
}
// * * * * * * * * * * * * * * * * * * * * * * * * * * * * * * * * * * * * * //

dimensions      [0 1 -1 0 0 0 0];

internalField   nonuniform List<vector> 
13056
(
(1 2.3228073e-10 3.7121863e-24)
(0.99998254 8.4581784e-10 0)
(0.99994189 1.5421477e-09 0)
(0.99988767 2.1857112e-09 0)
(0.99982297 2.893954e-09 0)
(0.99974866 3.7131624e-09 0)
(0.9996655 4.6605457e-09 0)
(0.9995741 5.7626639e-09 0)
(0.99947477 7.0615451e-09 0)
(0.99936742 8.6106066e-09 0)
(0.99925164 1.0475582e-08 0)
(0.99912672 1.274223e-08 0)
(0.99899155 1.5526763e-08 0)
(0.99884448 1.8998269e-08 0)
(0.99868304 2.3389985e-08 0)
(0.99850383 2.9124307e-08 0)
(0.99830081 3.6656357e-08 0)
(0.99806758 4.7703988e-08 0)
(0.99778267 6.2088385e-08 0)
(0.99744538 9.2649895e-08 0)
(0.99692139 1.2233299e-07 0)
(0.99636701 3.6428504e-07 0)
(0.99388973 3.0567265e-07 -4.6985694e-21)
(0.9938464 0.00012215948 1.1498937e-16)
(0.026179444 0.00012478612 0)
(0.012812509 1.2804483e-06 -5.0074142e-17)
(0.012491829 7.63584e-09 1.4373829e-20)
(0.012511224 5.5127637e-09 6.3692436e-21)
(0.012261585 1.3899257e-08 0)
(0.011940193 1.5092333e-08 0)
(0.011639647 1.3482443e-08 0)
(0.011380304 1.1525789e-08 0)
(0.011155722 9.9540243e-09 0)
(0.010957936 8.7327132e-09 0)
(0.010781474 7.7490552e-09 0)
(0.010622428 6.9950971e-09 0)
(0.010475328 6.4090404e-09 0)
(0.010338851 5.8888113e-09 0)
(0.010211829 5.4206016e-09 0)
(0.010093518 4.9931057e-09 0)
(0.0099831661 4.6127251e-09 0)
(0.0098797097 4.2796902e-09 0)
(0.0097823325 3.9828069e-09 0)
(0.0096904261 3.719559e-09 0)
(0.0096032678 3.4847821e-09 0)
(0.0095204181 3.2723992e-09 0)
(0.0094414607 3.077764e-09 0)
(0.0093661096 2.8987992e-09 0)
(0.0092940396 2.7374771e-09 0)
(0.00922489 2.5871966e-09 0)
(0.0091585713 2.4479025e-09 0)
(0.0090947494 2.3237238e-09 0)
(0.0090331361 2.2069021e-09 0)
(0.0089737135 2.0967742e-09 0)
(0.0089162579 1.9975941e-09 0)
(0.0088605336 1.9043957e-09 0)
(0.0088065268 1.8151984e-09 0)
(0.0087541168 1.7340048e-09 0)
(0.0087030721 1.659332e-09 0)
(0.0086533442 1.5865947e-09 0)
(0.0086049268 1.5179316e-09 0)
(0.0085576636 1.4557336e-09 0)
(0.0085114106 1.3968796e-09 0)
(0.008466174 1.341068e-09 0)
(0.0084217997 1.2899621e-09 0)
(0.0083782008 1.2414205e-09 0)
(0.0083353766 1.1935797e-09 0)
(0.0082933385 1.1465597e-09 0)
(0.0082520691 1.1019987e-09 0)
(0.0082114736 1.0607493e-09 0)
(0.0081714824 1.0212865e-09 0)
(0.0081320856 9.8292439e-10 0)
(0.0080932584 9.4628839e-10 0)
(0.0080549418 9.117889e-10 0)
(0.0080170871 8.7884567e-10 0)
(0.0079796683 8.4712789e-10 0)
(0.0079426574 8.1637554e-10 0)
(0.0079060376 7.8691574e-10 0)
(0.007869761 7.589375e-10 0)
(0.0078338011 7.3184089e-10 0)
(0.0077981406 7.0566954e-10 0)
(0.0077627479 6.8053731e-10 0)
(0.007727592 6.562845e-10 0)
(0.0076926644 6.3279107e-10 0)
(0.0076579361 6.1032974e-10 0)
(0.0076233646 5.8857752e-10 0)
(0.0075889442 5.6734712e-10 0)
(0.00755466 5.4685702e-10 0)
(0.007520488 5.2705558e-10 0)
(0.0074863994 5.079531e-10 0)
(0.0074523672 4.8939145e-10 0)
(0.0074183803 4.7122999e-10 0)
(0.0073844357 4.536294e-10 0)
(0.0073504929 4.3682365e-10 0)
(0.0073165066 4.2052575e-10 0)
(0.0072824697 4.0444331e-10 0)
(0.0072483889 3.8879778e-10 0)
(0.0072142217 3.7400934e-10 0)
(0.0071798863 3.597226e-10 0)
(0.0071453937 3.4542047e-10 0)
(0.0071107619 3.3140941e-10 0)
(0.0070759469 3.1801253e-10 0)
(0.0070408882 3.0506125e-10 0)
(0.0070055659 2.9225096e-10 0)
(0.0069699895 2.7974931e-10 0)
(0.006934098 2.6783558e-10 0)
(0.0068978177 2.5623465e-10 0)
(0.0068611455 2.4474927e-10 0)
(0.0068240623 2.3363109e-10 0)
(0.0067864877 2.2292631e-10 0)
(0.0067483684 2.1237501e-10 0)
(0.0067097026 2.0202678e-10 0)
(0.0066704148 1.9219366e-10 0)
(0.0066312639 1.8284962e-10 0)
(0.0065935497 1.7410639e-10 0)
(0.0065575964 1.6647735e-10 0)
(0.0065231123 1.594415e-10 0)
(0.0064901349 1.5250421e-10 0)
(0.0064585848 1.4606692e-10 0)
(0.0064283321 1.4022305e-10 0)
(0.0063992556 1.3482568e-10 0)
(0.0063712856 1.2970608e-10 0)
(0.0063443744 1.2488659e-10 0)
(0.0063184445 1.2046847e-10 0)
(0.0062934032 1.1641966e-10 0)
(0.0062691867 1.1258794e-10 0)
(0.0062457658 1.0892196e-10 0)
(0.0062231003 1.0548741e-10 0)
(0.006201134 1.0238793e-10 0)
(0.0061797802 9.9539435e-11 0)
(0.0061590217 9.7194712e-11 0)
(0.006138656 9.4593015e-11 0)
(0.006119016 9.4432192e-11 0)
(0.0060986897 3.4182038e-10 0)
(0.0060807384 1.09329e-10 1.5017013e-22)
(0.0060515451 2.6411096e-10 0)
(1 7.0029334e-10 0)
(0.99998254 2.5500408e-09 0)
(0.99994189 4.6494192e-09 0)
(0.99988767 6.5897866e-09 0)
(0.99982296 8.7252244e-09 0)
(0.99974865 1.119527e-08 0)
(0.99966548 1.405179e-08 0)
(0.99957408 1.7374845e-08 0)
(0.99947474 2.1291131e-08 0)
(0.99936737 2.5961683e-08 0)
(0.99925158 3.1584674e-08 0)
(0.99912665 3.8418649e-08 0)
(0.99899147 4.681396e-08 0)
(0.99884438 5.7280377e-08 0)
(0.99868293 7.0521058e-08 0)
(0.99850371 8.780943e-08 0)
(0.99830068 1.1051757e-07 0)
(0.99806744 1.4382424e-07 0)
(0.99778251 1.8719052e-07 0)
(0.99744521 2.7932429e-07 0)
(0.99692121 3.687972e-07 0)
(0.99636682 1.0981875e-06 0)
(0.99388956 9.2219526e-07 1.7396766e-20)
(0.99384633 0.00036118727 -1.3699564e-20)
(0.076478242 0.00036832575 0)
(0.038629879 7.2436379e-06 0)
(0.037662132 1.5830365e-07 2.2347361e-20)
(0.037720538 1.1791789e-07 0)
(0.036967453 2.9239729e-07 -4.566449e-21)
(0.035997587 3.1603513e-07 0)
(0.035091728 2.818372e-07 0)
(0.034310095 2.4123808e-07 0)
(0.033633052 2.0848969e-07 0)
(0.033036749 1.8288392e-07 0)
(0.032504759 1.622593e-07 0)
(0.032025279 1.4648113e-07 0)
(0.03158181 1.3421038e-07 0)
(0.031170363 1.2331974e-07 0)
(0.030787423 1.1351009e-07 0)
(0.030430743 1.0456116e-07 0)
(0.030098058 9.6597749e-08 0)
(0.02978616 8.9624124e-08 0)
(0.029492589 8.3410086e-08 0)
(0.02921551 7.7894479e-08 0)
(0.028952745 7.2982817e-08 0)
(0.028702969 6.853012e-08 0)
(0.02846493 6.4456672e-08 0)
(0.028237758 6.0714121e-08 0)
(0.028020481 5.7326286e-08 0)
(0.02781201 5.4184529e-08 0)
(0.027612068 5.1272153e-08 0)
(0.027419657 4.8662222e-08 0)
(0.027233906 4.6220411e-08 0)
(0.027054755 4.3918473e-08 0)
(0.026881535 4.183481e-08 0)
(0.026713537 3.9883771e-08 0)
(0.026550715 3.8020064e-08 0)
(0.026392705 3.631861e-08 0)
(0.026238815 3.4749588e-08 0)
(0.026088895 3.3230001e-08 0)
(0.025942922 3.1795499e-08 0)
(0.025800429 3.0489231e-08 0)
(0.025660985 2.9253706e-08 0)
(0.025524605 2.8088382e-08 0)
(0.025390821 2.7020661e-08 0)
(0.025259376 2.6000584e-08 0)
(0.025130269 2.4996747e-08 0)
(0.025003532 2.4014325e-08 0)
(0.024879109 2.3083427e-08 0)
(0.024756717 2.2217191e-08 0)
(0.024636151 2.138933e-08 0)
(0.024517376 2.0586695e-08 0)
(0.024400317 1.9821295e-08 0)
(0.024284796 1.9098153e-08 0)
(0.024170669 1.8407018e-08 0)
(0.024057858 1.7741861e-08 0)
(0.023946276 1.709942e-08 0)
(0.023835871 1.6483583e-08 0)
(0.023726501 1.589583e-08 0)
(0.023618087 1.5327842e-08 0)
(0.023510577 1.4780203e-08 0)
(0.023403872 1.4254836e-08 0)
(0.02329788 1.3746486e-08 0)
(0.023192578 1.3253851e-08 0)
(0.023087878 1.2782864e-08 0)
(0.02298365 1.232816e-08 0)
(0.022879875 1.1884216e-08 0)
(0.022776512 1.1454065e-08 0)
(0.022673488 1.1039094e-08 0)
(0.022570716 1.0639227e-08 0)
(0.022468113 1.0250985e-08 0)
(0.022365646 9.8704333e-09 0)
(0.022263307 9.5014353e-09 0)
(0.022160974 9.1492534e-09 0)
(0.02205851 8.8083755e-09 0)
(0.021955892 8.4717452e-09 0)
(0.021853142 8.1436156e-09 0)
(0.021750133 7.8336758e-09 0)
(0.021646616 7.5347502e-09 0)
(0.021542624 7.2354082e-09 0)
(0.021438213 6.9416651e-09 0)
(0.02133325 6.6608996e-09 0)
(0.021227553 6.3898458e-09 0)
(0.02112106 6.1216706e-09 0)
(0.021013801 5.8596449e-09 0)
(0.020905592 5.6099701e-09 0)
(0.020796212 5.367168e-09 0)
(0.020685648 5.1266849e-09 0)
(0.020573847 4.8936162e-09 0)
(0.020460564 4.6694274e-09 0)
(0.020345638 4.4485155e-09 0)
(0.020229065 4.2317129e-09 0)
(0.020110617 4.0257003e-09 0)
(0.019992581 3.8300628e-09 0)
(0.019878877 3.6469209e-09 0)
(0.019770482 3.4870252e-09 0)
(0.019666516 3.3396967e-09 0)
(0.019567093 3.1944444e-09 0)
(0.019471973 3.0595632e-09 0)
(0.019380764 2.9371108e-09 0)
(0.019293102 2.8241005e-09 0)
(0.019208775 2.7169051e-09 0)
(0.019127641 2.6159121e-09 0)
(0.019049465 2.5233383e-09 0)
(0.018973969 2.4385193e-09 0)
(0.018900959 2.3583008e-09 0)
(0.018830347 2.2815182e-09 0)
(0.018762013 2.2095078e-09 0)
(0.018695788 2.1445639e-09 0)
(0.01863141 2.0847908e-09 0)
(0.018568826 2.035811e-09 0)
(0.018507429 1.9805886e-09 0)
(0.018448217 1.978141e-09 0)
(0.018386952 1.9242313e-09 0)
(0.01833283 2.3264805e-09 -2.3385959e-22)
(0.018244815 1.4776965e-09 4.2404518e-23)
(1 1.1787332e-09 0)
(0.99998254 4.292251e-09 0)
(0.99994189 7.8259816e-09 0)
(0.99988767 1.1092164e-08 0)
(0.99982296 1.4686792e-08 0)
(0.99974865 1.8844722e-08 0)
(0.99966547 2.3653237e-08 0)
(0.99957405 2.924707e-08 0)
(0.9994747 3.5839457e-08 0)
(0.99936732 4.370144e-08 0)
(0.99925152 5.3166571e-08 0)
(0.99912658 6.4670026e-08 0)
(0.99899138 7.8801513e-08 0)
(0.99884428 9.641906e-08 0)
(0.99868281 1.1870621e-07 0)
(0.99850358 1.4780633e-07 0)
(0.99830053 1.8602886e-07 0)
(0.99806728 2.4209027e-07 0)
(0.99778234 3.1508394e-07 0)
(0.99744502 4.7015585e-07 0)
(0.99692101 6.2079024e-07 0)
(0.99636661 1.8482815e-06 0)
(0.99388938 1.5531721e-06 -9.1940245e-21)
(0.99384633 0.00059118474 5.9817241e-54)
(0.12547891 0.00061002213 -8.16473e-54)
(0.065026646 1.9773035e-05 0)
(0.063395268 4.5982613e-07 -1.1906383e-20)
(0.063491969 3.4305009e-07 0)
(0.062223625 8.4949321e-07 0)
(0.060589937 9.1762254e-07 0)
(0.059065588 8.1796222e-07 0)
(0.057750332 7.0022816e-07 0)
(0.056610825 6.0525529e-07 0)
(0.055607149 5.3092169e-07 0)
(0.054711751 4.7103661e-07 0)
(0.053904739 4.252349e-07 0)
(0.053158331 3.8961517e-07 0)
(0.052465817 3.5800063e-07 0)
(0.051821284 3.2952186e-07 0)
(0.051220952 3.0354401e-07 0)
(0.050661003 2.804273e-07 0)
(0.050136039 2.6018343e-07 0)
(0.049641919 2.4214489e-07 0)
(0.049175557 2.2613259e-07 0)
(0.048733287 2.1187505e-07 0)
(0.048312879 1.9894744e-07 0)
(0.047912226 1.8712307e-07 0)
(0.04752986 1.7625967e-07 0)
(0.04716415 1.6642196e-07 0)
(0.046813265 1.5730295e-07 0)
(0.046476729 1.4884962e-07 0)
(0.04615287 1.4127008e-07 0)
(0.045840226 1.3418272e-07 0)
(0.045538683 1.2750157e-07 0)
(0.045247125 1.2145048e-07 0)
(0.044964361 1.1578657e-07 0)
(0.044690304 1.1037775e-07 0)
(0.044424344 1.0543781e-07 0)
(0.044165323 1.0088107e-07 0)
(0.043912985 9.6470882e-08 0)
(0.043667286 9.2307763e-08 0)
(0.043427443 8.851419e-08 0)
(0.043192738 8.4926211e-08 0)
(0.042963189 8.1544516e-08 0)
(0.042738005 7.8445829e-08 0)
(0.042516756 7.5483176e-08 0)
(0.042299449 7.256811e-08 0)
(0.042086131 6.9716992e-08 0)
(0.041876703 6.7015406e-08 0)
(0.041670694 6.4499824e-08 0)
(0.04146776 6.2095791e-08 0)
(0.041267844 5.976602e-08 0)
(0.041070811 5.7544721e-08 0)
(0.040876367 5.5445194e-08 0)
(0.04068427 5.3438162e-08 0)
(0.04049439 5.1506844e-08 0)
(0.040306579 4.9642421e-08 0)
(0.040120744 4.7855004e-08 0)
(0.039936653 4.6148062e-08 0)
(0.039754174 4.4498827e-08 0)
(0.039573215 4.290921e-08 0)
(0.03939361 4.1384397e-08 0)
(0.039215205 3.9908476e-08 0)
(0.039037961 3.8477985e-08 0)
(0.038861733 3.7110469e-08 0)
(0.038686298 3.579076e-08 0)
(0.038511625 3.4502193e-08 0)
(0.038337644 3.3253064e-08 0)
(0.038164236 3.2048184e-08 0)
(0.037991252 3.0887429e-08 0)
(0.037818551 2.9760513e-08 0)
(0.037646078 2.8655666e-08 0)
(0.037473823 2.758424e-08 0)
(0.037301578 2.6561745e-08 0)
(0.037129111 2.5572313e-08 0)
(0.036956385 2.4595109e-08 0)
(0.036783436 2.3642333e-08 0)
(0.036610052 2.2742446e-08 0)
(0.036435814 2.1874742e-08 0)
(0.036260775 2.100579e-08 0)
(0.03608503 2.0152903e-08 0)
(0.035908357 1.9337728e-08 0)
(0.035730448 1.8550896e-08 0)
(0.035551199 1.7772396e-08 0)
(0.03537066 1.7011625e-08 0)
(0.035188524 1.6286727e-08 0)
(0.035004415 1.55819e-08 0)
(0.034818315 1.4883768e-08 0)
(0.034630131 1.4207066e-08 0)
(0.034439454 1.3556211e-08 0)
(0.034246011 1.2914899e-08 0)
(0.034049794 1.2285467e-08 0)
(0.033850423 1.1687364e-08 0)
(0.033651745 1.1119426e-08 0)
(0.033460357 1.0587729e-08 0)
(0.033277906 1.0123488e-08 0)
(0.033102912 9.6957787e-09 0)
(0.032935562 9.2741072e-09 0)
(0.032775455 8.8825056e-09 0)
(0.032621933 8.5269856e-09 0)
(0.03247438 8.1989121e-09 0)
(0.032332441 7.8877196e-09 0)
(0.032195875 7.5945023e-09 0)
(0.03206429 7.3257263e-09 0)
(0.031937215 7.0794772e-09 0)
(0.031814325 6.8466034e-09 0)
(0.031695472 6.6236889e-09 0)
(0.031580452 6.4146015e-09 0)
(0.031468983 6.2260324e-09 0)
(0.031360622 6.0524686e-09 0)
(0.031255283 5.910241e-09 0)
(0.031151943 5.7498153e-09 0)
(0.031052277 5.7426798e-09 0)
(0.030949178 5.4953617e-09 0)
(0.03085808 6.7613542e-09 0)
(0.030709933 4.211234e-09 0)
(1 1.6747425e-09 7.9555456e-24)
(0.99998254 6.0984353e-09 0)
(0.99994189 1.111922e-08 0)
(0.99988767 1.5760013e-08 0)
(0.99982295 2.0867612e-08 0)
(0.99974864 2.6775693e-08 0)
(0.99966545 3.3608231e-08 0)
(0.99957403 4.155662e-08 0)
(0.99947466 5.0923794e-08 0)
(0.99936727 6.2094828e-08 0)
(0.99925145 7.5543621e-08 0)
(0.9991265 9.1888461e-08 0)
(0.99899128 1.119672e-07 0)
(0.99884417 1.3699891e-07 0)
(0.99868268 1.6866516e-07 0)
(0.99850343 2.1001124e-07 0)
(0.99830038 2.6431839e-07 0)
(0.9980671 3.4397067e-07 0)
(0.99778215 4.4768061e-07 0)
(0.99744482 6.6800236e-07 0)
(0.99692079 8.8205914e-07 0)
(0.99636638 2.6259036e-06 0)
(0.9938892 2.2073886e-06 0)
(0.99384641 0.00081631117 -3.0888049e-54)
(0.17382388 0.00085488741 4.2522628e-54)
(0.092390951 3.9251828e-05 0)
(0.090074613 9.4755776e-07 0)
(0.090205939 7.0811117e-07 0)
(0.088402645 1.7506419e-06 0)
(0.086080131 1.8902258e-06 0)
(0.083915229 1.6843092e-06 0)
(0.082047337 1.4420135e-06 0)
(0.080428677 1.2465737e-06 0)
(0.079002868 1.0934872e-06 0)
(0.077730913 9.7013344e-07 0)
(0.076584521 8.7580604e-07 0)
(0.075524203 8.0244999e-07 0)
(0.074540439 7.3733945e-07 0)
(0.073624835 6.7868414e-07 0)
(0.072772019 6.2518237e-07 0)
(0.071976565 5.7757382e-07 0)
(0.071230806 5.3588128e-07 0)
(0.070528857 4.9873072e-07 0)
(0.069866341 4.6575185e-07 0)
(0.069238045 4.3638853e-07 0)
(0.068640806 4.0976127e-07 0)
(0.068071632 3.8540927e-07 0)
(0.067528429 3.630367e-07 0)
(0.06700889 3.4277133e-07 0)
(0.066510415 3.2399194e-07 0)
(0.066032314 3.0658328e-07 0)
(0.065572226 2.9096861e-07 0)
(0.065128073 2.7637309e-07 0)
(0.064699683 2.6261456e-07 0)
(0.064285478 2.5014867e-07 0)
(0.063883772 2.3848309e-07 0)
(0.063494429 2.2734531e-07 0)
(0.063116586 2.1717004e-07 0)
(0.062748606 2.0778229e-07 0)
(0.062390123 1.987007e-07 0)
(0.062041061 1.9012815e-07 0)
(0.061700319 1.8231269e-07 0)
(0.061366884 1.7492098e-07 0)
(0.061040774 1.6795784e-07 0)
(0.060720855 1.615771e-07 0)
(0.060406529 1.5547316e-07 0)
(0.060097808 1.4946781e-07 0)
(0.059794753 1.4359688e-07 0)
(0.059497219 1.3803385e-07 0)
(0.059204542 1.3285141e-07 0)
(0.058916238 1.2789883e-07 0)
(0.058632221 1.2310082e-07 0)
(0.058352298 1.1852677e-07 0)
(0.058076049 1.1420219e-07 0)
(0.057803138 1.100674e-07 0)
(0.057533379 1.0608909e-07 0)
(0.057266557 1.0224995e-07 0)
(0.057002539 9.8569061e-08 0)
(0.056740998 9.505239e-08 0)
(0.056481752 9.1654978e-08 0)
(0.056224664 8.8381241e-08 0)
(0.055969498 8.5241179e-08 0)
(0.055716035 8.2201078e-08 0)
(0.055464223 7.9254196e-08 0)
(0.055213855 7.6437267e-08 0)
(0.054964615 7.3719599e-08 0)
(0.054716453 7.1065911e-08 0)
(0.054469274 6.8492585e-08 0)
(0.054222913 6.6010613e-08 0)
(0.053977153 6.3619981e-08 0)
(0.053731793 6.1299166e-08 0)
(0.053486756 5.9023428e-08 0)
(0.053242029 5.6816327e-08 0)
(0.052997319 5.4710194e-08 0)
(0.052752292 5.2672523e-08 0)
(0.052506895 5.0659885e-08 0)
(0.052261182 4.8697185e-08 0)
(0.052014852 4.6843537e-08 0)
(0.051767308 4.5056492e-08 0)
(0.051518624 4.3266817e-08 0)
(0.051268938 4.150995e-08 0)
(0.051017935 3.9830807e-08 0)
(0.050765175 3.8210266e-08 0)
(0.050510509 3.660685e-08 0)
(0.050254011 3.5039764e-08 0)
(0.049995245 3.3546593e-08 0)
(0.049733676 3.2094933e-08 0)
(0.049469276 3.0657009e-08 0)
(0.049201915 2.9263091e-08 0)
(0.048931014 2.7922501e-08 0)
(0.048656182 2.6601613e-08 0)
(0.048377409 2.5305121e-08 0)
(0.048094154 2.4073166e-08 0)
(0.047811884 2.2903401e-08 0)
(0.047539971 2.1808234e-08 0)
(0.047280755 2.0851966e-08 0)
(0.047032133 1.9971024e-08 0)
(0.046794372 1.9102504e-08 0)
(0.046566901 1.8295877e-08 0)
(0.046348785 1.7563567e-08 0)
(0.04613915 1.6887841e-08 0)
(0.045937491 1.6246884e-08 0)
(0.045743465 1.5642905e-08 0)
(0.045556516 1.5089264e-08 0)
(0.045375974 1.4582047e-08 0)
(0.045201379 1.4102406e-08 0)
(0.045032518 1.3643255e-08 0)
(0.044869104 1.3212544e-08 0)
(0.044710735 1.2824093e-08 0)
(0.044556784 1.2466553e-08 0)
(0.044407124 1.2173522e-08 0)
(0.044260311 1.1842987e-08 0)
(0.04411871 1.1827924e-08 0)
(0.043972264 1.1327945e-08 0)
(0.043842837 1.3934261e-08 0)
(0.043632355 8.6717095e-09 0)
(1 2.1957094e-09 0)
(0.99998254 7.9955035e-09 0)
(0.99994189 1.4578207e-08 0)
(0.99988767 2.0662905e-08 0)
(0.99982295 2.7359838e-08 0)
(0.99974863 3.5106459e-08 0)
(0.99966543 4.4065267e-08 0)
(0.999574 5.4487138e-08 0)
(0.99947462 6.6769199e-08 0)
(0.99936721 8.1416282e-08 0)
(0.99925138 9.9049682e-08 0)
(0.9991264 1.2048001e-07 0)
(0.99899117 1.4680574e-07 0)
(0.99884404 1.7962517e-07 0)
(0.99868254 2.2114295e-07 0)
(0.99850327 2.7535166e-07 0)
(0.9983002 3.4655327e-07 0)
(0.99806691 4.5098391e-07 0)
(0.99778194 5.8695636e-07 0)
(0.99744459 8.7581078e-07 0)
(0.99692055 1.1564795e-06 0)
(0.99636613 3.4426311e-06 0)
(0.993889 2.8946042e-06 0)
(0.99384658 0.0010393277 0)
(0.22203885 0.0011032137 0)
(0.12112282 6.5614298e-05 0)
(0.118088 1.6439276e-06 0)
(0.11824359 1.2318972e-06 1.2650777e-20)
(0.11587779 3.0372967e-06 0)
(0.11283244 3.2780675e-06 0)
(0.10999668 2.9198912e-06 0)
(0.10754998 2.5000714e-06 0)
(0.1054292 2.1614834e-06 0)
(0.10356094 1.8960725e-06 0)
(0.10189431 1.6821655e-06 0)
(0.10039218 1.5186193e-06 0)
(0.099002795 1.3914376e-06 0)
(0.097713705 1.2785448e-06 0)
(0.096513914 1.1768402e-06 0)
(0.095396388 1.0840745e-06 0)
(0.09435401 1.0015281e-06 0)
(0.093376739 9.2923835e-07 0)
(0.092456864 8.6482318e-07 0)
(0.091588655 8.0763957e-07 0)
(0.09076528 7.5672646e-07 0)
(0.089982598 7.1055345e-07 0)
(0.089236691 6.6832991e-07 0)
(0.088524805 6.2953848e-07 0)
(0.08784393 5.9439355e-07 0)
(0.08719066 5.6183327e-07 0)
(0.086564075 5.3164934e-07 0)
(0.085961097 5.0456806e-07 0)
(0.085379007 4.7926161e-07 0)
(0.084817558 4.5540719e-07 0)
(0.0842747 4.3378674e-07 0)
(0.083748229 4.1355808e-07 0)
(0.083237951 3.9424844e-07 0)
(0.082742736 3.7660279e-07 0)
(0.082260455 3.603202e-07 0)
(0.081790621 3.4457494e-07 0)
(0.081333121 3.2971275e-07 0)
(0.080886523 3.1615713e-07 0)
(0.080449511 3.0333669e-07 0)
(0.080022095 2.9126515e-07 0)
(0.079602783 2.8020279e-07 0)
(0.079190801 2.6961516e-07 0)
(0.078786174 2.5919927e-07 0)
(0.07838897 2.490208e-07 0)
(0.077998992 2.3937605e-07 0)
(0.077615379 2.3038743e-07 0)
(0.077237503 2.2179741e-07 0)
(0.076865245 2.1347805e-07 0)
(0.076498347 2.0554788e-07 0)
(0.076136259 1.9804827e-07 0)
(0.07577855 1.9087652e-07 0)
(0.075424976 1.8397703e-07 0)
(0.075075248 1.7732106e-07 0)
(0.074729188 1.709389e-07 0)
(0.074386375 1.6483917e-07 0)
(0.074046574 1.5894676e-07 0)
(0.073709601 1.532703e-07 0)
(0.073375141 1.4782591e-07 0)
(0.073042911 1.4255373e-07 0)
(0.072712848 1.3744258e-07 0)
(0.072384679 1.3255723e-07 0)
(0.072057986 1.2784523e-07 0)
(0.071732701 1.2324392e-07 0)
(0.071408705 1.1878063e-07 0)
(0.071085783 1.1447603e-07 0)
(0.070763648 1.1033059e-07 0)
(0.070442035 1.063064e-07 0)
(0.070120843 1.0235978e-07 0)
(0.069800058 9.8531855e-08 0)
(0.069479295 9.4879335e-08 0)
(0.069158117 9.1346095e-08 0)
(0.068836448 8.7856019e-08 0)
(0.068514366 8.4451956e-08 0)
(0.068191477 8.1237184e-08 0)
(0.067866995 7.8138408e-08 0)
(0.067541017 7.503497e-08 0)
(0.067213723 7.1987989e-08 0)
(0.066884705 6.9075865e-08 0)
(0.066553382 6.6265716e-08 0)
(0.066219559 6.348521e-08 0)
(0.065883332 6.0767408e-08 0)
(0.065544136 5.8177831e-08 0)
(0.065201262 5.5660506e-08 0)
(0.064854675 5.3166914e-08 0)
(0.064504207 5.0749431e-08 0)
(0.064149098 4.8424559e-08 0)
(0.063788834 4.6133928e-08 0)
(0.063423404 4.3885495e-08 0)
(0.063052097 4.1748989e-08 0)
(0.062682081 3.9720422e-08 0)
(0.062325639 3.7821145e-08 0)
(0.061985843 3.6162683e-08 0)
(0.061659933 3.4634952e-08 0)
(0.061348258 3.3128787e-08 0)
(0.061050071 3.1729869e-08 0)
(0.06076415 3.0459829e-08 0)
(0.060489344 2.9287996e-08 0)
(0.060224992 2.8176459e-08 0)
(0.059970646 2.7128979e-08 0)
(0.059725578 2.6168787e-08 0)
(0.05948891 2.5289141e-08 0)
(0.059260035 2.4457363e-08 0)
(0.059038677 2.3661077e-08 0)
(0.05882446 2.2914054e-08 0)
(0.058616856 2.2240306e-08 0)
(0.058415045 2.1620188e-08 0)
(0.05821886 2.1111836e-08 0)
(0.058026411 2.0538543e-08 0)
(0.057840787 2.0511515e-08 0)
(0.057648854 1.9652558e-08 0)
(0.057479188 2.4173302e-08 -3.0114582e-22)
(0.057203264 1.5035703e-08 5.4606237e-23)
(1 2.7493958e-09 0)
(0.99998254 1.0011723e-08 0)
(0.99994189 1.8254492e-08 0)
(0.99988767 2.5873936e-08 0)
(0.99982295 3.4260299e-08 0)
(0.99974862 4.3961322e-08 0)
(0.99966541 5.5180418e-08 0)
(0.99957396 6.8231657e-08 0)
(0.99947457 8.3612248e-08 0)
(0.99936715 1.0195428e-07 0)
(0.9992513 1.240357e-07 0)
(0.9991263 1.5087151e-07 0)
(0.99899105 1.8383717e-07 0)
(0.9988439 2.2493402e-07 0)
(0.99868238 2.7692263e-07 0)
(0.99850309 3.4480236e-07 0)
(0.9983 4.3396005e-07 0)
(0.9980667 5.6472567e-07 0)
(0.99778171 7.3498753e-07 0)
(0.99744435 1.0966771e-06 0)
(0.99692029 1.4481156e-06 0)
(0.99636585 4.3106255e-06 0)
(0.9938888 3.6251943e-06 0)
(0.99384689 0.0012620275 0)
(0.27054141 0.0013584833 0)
(0.15162346 9.9203661e-05 0)
(0.14781016 2.5922912e-06 0)
(0.14796515 1.9493654e-06 0)
(0.14500234 4.7829331e-06 0)
(0.14119371 5.1594421e-06 0)
(0.13765094 4.5939708e-06 0)
(0.13459404 3.9338368e-06 0)
(0.13194351 3.4015207e-06 0)
(0.12960828 2.9839293e-06 0)
(0.12752502 2.6472933e-06 0)
(0.12564732 2.3899535e-06 0)
(0.12391045 2.1898403e-06 0)
(0.12229888 2.0121948e-06 0)
(0.12079889 1.8521485e-06 0)
(0.1194017 1.7061713e-06 0)
(0.1180984 1.5762766e-06 0)
(0.11687646 1.4625197e-06 0)
(0.11572624 1.3611523e-06 0)
(0.11464059 1.2711624e-06 -6.2769103e-33)
(0.11361097 1.191041e-06 0)
(0.11263221 1.1183733e-06 0)
(0.11169942 1.0519269e-06 0)
(0.11080913 9.9088076e-07 0)
(0.10995762 9.3556288e-07 0)
(0.10914062 8.8432384e-07 0)
(0.10835695 8.3682374e-07 0)
(0.10760281 7.9419481e-07 0)
(0.10687478 7.5436984e-07 0)
(0.10617254 7.1683117e-07 0)
(0.10549354 6.8279729e-07 0)
(0.10483504 6.5095947e-07 0)
(0.10419677 6.2057392e-07 0)
(0.10357733 5.9279948e-07 0)
(0.10297407 5.6716658e-07 0)
(0.10238637 5.423889e-07 0)
(0.10181407 5.1900171e-07 0)
(0.10125541 4.9766131e-07 0)
(0.10070875 4.774785e-07 0)
(0.10017408 4.5848319e-07 0)
(0.099649524 4.4107511e-07 0)
(0.099134138 4.2440606e-07 0)
(0.098627958 4.0800841e-07 0)
(0.098131058 3.9199115e-07 0)
(0.097643181 3.7681361e-07 0)
(0.097163261 3.6266288e-07 0)
(0.096690521 3.4913938e-07 0)
(0.096224806 3.3604602e-07 0)
(0.095765785 3.2356647e-07 0)
(0.095312775 3.1176148e-07 0)
(0.094865242 3.0047044e-07 0)
(0.094422883 2.8960947e-07 0)
(0.09398533 2.7913509e-07 0)
(0.093552354 2.6909072e-07 0)
(0.093123438 2.5948734e-07 0)
(0.092698293 2.5021094e-07 0)
(0.092276682 2.412768e-07 0)
(0.091858207 2.3270836e-07 0)
(0.091442517 2.2440921e-07 0)
(0.091029536 2.1636246e-07 0)
(0.090618927 2.0867191e-07 0)
(0.090210159 2.0125609e-07 0)
(0.089803143 1.9401403e-07 0)
(0.089397738 1.8698721e-07 0)
(0.088993677 1.8021051e-07 0)
(0.088590599 1.7368558e-07 0)
(0.088188167 1.6735173e-07 0)
(0.087786257 1.6113909e-07 0)
(0.087384855 1.551127e-07 0)
(0.086983481 1.4936294e-07 0)
(0.086581581 1.4380178e-07 0)
(0.086179061 1.3830817e-07 0)
(0.085776022 1.3294903e-07 0)
(0.085371974 1.2788813e-07 0)
(0.084965928 1.2301059e-07 0)
(0.084558003 1.1812554e-07 0)
(0.084148429 1.1332868e-07 0)
(0.083736697 1.087442e-07 0)
(0.083322078 1.0432078e-07 0)
(0.082904323 9.9943933e-08 0)
(0.082483558 9.5665322e-08 0)
(0.082059075 9.1588625e-08 0)
(0.081629987 8.7626059e-08 0)
(0.081196246 8.3700712e-08 0)
(0.080757645 7.989486e-08 0)
(0.080313234 7.6234981e-08 0)
(0.079862368 7.2629115e-08 0)
(0.079405032 6.9089501e-08 0)
(0.078940339 6.5726094e-08 0)
(0.078477257 6.2532731e-08 0)
(0.078031157 5.9542779e-08 0)
(0.077605889 5.6931823e-08 0)
(0.077197999 5.4526801e-08 0)
(0.076807921 5.2155788e-08 0)
(0.076434722 4.9953458e-08 0)
(0.076076872 4.7954005e-08 0)
(0.075732933 4.6109276e-08 0)
(0.075402074 4.4359462e-08 0)
(0.075083737 4.2710378e-08 0)
(0.074777012 4.1198688e-08 0)
(0.074480799 3.9813865e-08 0)
(0.074194338 3.8504459e-08 0)
(0.073917283 3.7250865e-08 0)
(0.073649167 3.6074728e-08 0)
(0.073389327 3.5013919e-08 0)
(0.073136739 3.4037591e-08 0)
(0.07289119 3.3236999e-08 0)
(0.072650325 3.2334452e-08 0)
(0.072417991 3.2290185e-08 0)
(0.072177817 3.093738e-08 0)
(0.071965453 3.8065e-08 0)
(0.071620091 2.3661878e-08 -3.1138525e-23)
(1 3.3440525e-09 0)
(0.99998254 1.2177141e-08 0)
(0.99994189 2.2202869e-08 0)
(0.99988766 3.1470808e-08 0)
(0.99982294 4.1671942e-08 0)
(0.9997486 5.3472451e-08 0)
(0.99966539 6.711966e-08 0)
(0.99957393 8.2995472e-08 0)
(0.99947452 1.0170455e-07 0)
(0.99936708 1.2401566e-07 0)
(0.99925121 1.5087495e-07 0)
(0.99912619 1.8351693e-07 0)
(0.99899092 2.2361455e-07 0)
(0.99884375 2.73602e-07 0)
(0.99868221 3.3683693e-07 0)
(0.9985029 4.1939993e-07 0)
(0.99829978 5.2784302e-07 0)
(0.99806646 6.8689271e-07 0)
(0.99778145 8.9398202e-07 0)
(0.99744407 1.3338932e-06 0)
(0.99691999 1.761359e-06 0)
(0.99636554 5.2427438e-06 0)
(0.99388858 4.4101757e-06 0)
(0.99384736 0.0014856213 0)
(0.31963925 0.0016226628 0)
(0.18427221 0.00014105113 0)
(0.17955514 3.8671523e-06 0)
(0.17965463 2.9145463e-06 -3.3024385e-20)
(0.17605628 7.089003e-06 1.5313681e-20)
(0.17144418 7.641672e-06 0)
(0.16715851 6.8015718e-06 0)
(0.16345986 5.824945e-06 0)
(0.16025155 5.0375327e-06 0)
(0.15742428 4.4193139e-06 0)
(0.15490181 3.920811e-06 0)
(0.15262796 3.5397915e-06 0)
(0.15052441 3.2435098e-06 0)
(0.14857242 2.9804668e-06 0)
(0.14675538 2.7434716e-06 0)
(0.14506269 2.5273086e-06 0)
(0.14348359 2.3349598e-06 0)
(0.14200293 2.1665025e-06 0)
(0.14060906 2.0163861e-06 0)
(0.13929333 1.8831142e-06 6.7217519e-33)
(0.1380454 1.764456e-06 0)
(0.13685903 1.6568274e-06 0)
(0.13572832 1.5584199e-06 0)
(0.13464904 1.4680076e-06 0)
(0.13361672 1.386064e-06 0)
(0.13262618 1.3101767e-06 0)
(0.13167599 1.2398252e-06 0)
(0.13076156 1.1766716e-06 0)
(0.12987876 1.1176858e-06 0)
(0.12902717 1.0620877e-06 0)
(0.12820373 1.0116647e-06 0)
(0.12740512 9.645021e-07 0)
(0.12663101 9.1949927e-07 0)
(0.1258797 8.7835247e-07 0)
(0.12514799 8.4037228e-07 0)
(0.12443514 8.0367268e-07 0)
(0.12374093 7.6903378e-07 0)
(0.12306323 7.3741244e-07 0)
(0.12240007 7.0750644e-07 0)
(0.12175145 6.793726e-07 0)
(0.12111506 6.5358827e-07 0)
(0.12048978 6.288864e-07 0)
(0.11987566 6.0458806e-07 0)
(0.11927279 5.8086332e-07 0)
(0.11868083 5.5838198e-07 0)
(0.1180985 5.3741297e-07 0)
(0.11752488 5.1737273e-07 0)
(0.11695978 4.9797598e-07 0)
(0.11640277 4.7949036e-07 0)
(0.11585303 4.6199936e-07 0)
(0.11530994 4.4526649e-07 0)
(0.11477311 4.2917311e-07 0)
(0.1142421 4.1365741e-07 0)
(0.11371662 3.9877726e-07 0)
(0.11319606 3.8454509e-07 0)
(0.11268008 3.7079822e-07 0)
(0.11216836 3.5756207e-07 0)
(0.11166044 3.4486825e-07 0)
(0.11115588 3.3257074e-07 0)
(0.1106546 3.2064549e-07 0)
(0.1101562 3.0924922e-07 0)
(0.10966001 2.9826277e-07 0)
(0.10916594 2.87533e-07 0)
(0.10867381 2.7711911e-07 0)
(0.10818331 2.6707625e-07 0)
(0.10769398 2.5740834e-07 0)
(0.10720543 2.4802384e-07 0)
(0.1067175 2.3881754e-07 0)
(0.10623018 2.298863e-07 0)
(0.10574289 2.2136575e-07 0)
(0.10525495 2.1312591e-07 0)
(0.10476624 2.0498552e-07 0)
(0.10427689 1.9704299e-07 0)
(0.1037863 1.8954279e-07 0)
(0.10329328 1.8231544e-07 0)
(0.10279797 1.7507665e-07 0)
(0.10230064 1.6796749e-07 0)
(0.10180069 1.6117319e-07 0)
(0.10129722 1.5461835e-07 0)
(0.10078993 1.4813234e-07 0)
(0.10027897 1.4179118e-07 0)
(0.099763494 1.3574934e-07 0)
(0.099242412 1.2987721e-07 0)
(0.098715664 1.2405998e-07 0)
(0.098183005 1.1841936e-07 0)
(0.097643282 1.1299532e-07 0)
(0.097095705 1.0765147e-07 0)
(0.096540257 1.0240553e-07 0)
(0.095975865 9.7420723e-08 0)
(0.095413415 9.2688099e-08 0)
(0.094871581 8.8256732e-08 0)
(0.09435504 8.4386895e-08 0)
(0.0938596 8.0822478e-08 0)
(0.093385786 7.7308489e-08 0)
(0.092932465 7.4044296e-08 0)
(0.092497785 7.1080767e-08 0)
(0.092079995 6.8346728e-08 0)
(0.091678087 6.5753346e-08 0)
(0.091291384 6.3309081e-08 0)
(0.090918783 6.1068415e-08 0)
(0.090558948 5.901588e-08 0)
(0.090210956 5.7075209e-08 0)
(0.089874385 5.5217157e-08 0)
(0.08954867 5.3473765e-08 0)
(0.089233008 5.1901252e-08 0)
(0.088926154 5.0454051e-08 0)
(0.088627848 4.9266952e-08 0)
(0.088335241 4.7929274e-08 0)
(0.08805298 4.7860812e-08 0)
(0.087761263 4.5853155e-08 -3.668325e-23)
(0.08750326 5.6432386e-08 0)
(0.087083665 3.5064017e-08 0)
(1 3.9885415e-09 0)
(0.99998254 1.4524028e-08 0)
(0.99994189 2.648219e-08 0)
(0.99988766 3.7536989e-08 0)
(0.99982294 4.970537e-08 0)
(0.99974859 6.3781862e-08 0)
(0.99966536 8.0061348e-08 0)
(0.99957389 9.8999208e-08 0)
(0.99947446 1.2131654e-07 0)
(0.999367 1.4793017e-07 0)
(0.9992511 1.7996857e-07 0)
(0.99912607 2.1890414e-07 0)
(0.99899077 2.6673224e-07 0)
(0.99884357 3.2635616e-07 0)
(0.99868201 4.0178066e-07 0)
(0.99850268 5.0025818e-07 0)
(0.99829954 6.2960356e-07 0)
(0.99806619 8.1930794e-07 0)
(0.99778117 1.0663118e-06 0)
(0.99744376 1.5909951e-06 0)
(0.99691966 2.1008765e-06 0)
(0.99636519 6.2528391e-06 0)
(0.99388836 5.2613995e-06 0)
(0.99384802 0.001710812 -7.8099127e-54)
(0.369522 0.0018974508 1.1139869e-53)
(0.21938095 0.00019234559 -6.1490454e-19)
(0.21348209 5.6100069e-06 0)
(0.21341587 4.2099446e-06 -3.8082637e-20)
(0.20914494 1.0082691e-05 0)