/*--------------------------------*- C++ -*----------------------------------*\
  =========                 |
  \\      /  F ield         | OpenFOAM: The Open Source CFD Toolbox
   \\    /   O peration     | Website:  https://openfoam.org
    \\  /    A nd           | Version:  12
     \\/     M anipulation  |
\*---------------------------------------------------------------------------*/
FoamFile
{
    format      ascii;
    class       volVectorField;
    location    "1500";
    object      wallShearStress;
}
// * * * * * * * * * * * * * * * * * * * * * * * * * * * * * * * * * * * * * //

dimensions      [0 2 -2 0 0 0 0];

internalField   uniform (0 0 0);

boundaryField
{
    bottom
    {
        type            calculated;
        value           nonuniform List<vector> 
112
(
(-0.0052237298 -3.4939167e-05 0)
(-0.0025565524 -5.6715228e-07 7.1387829e-19)
(-0.0024925654 -6.9799509e-09 7.3909004e-19)
(-0.0024964354 -5.1794425e-09 -2.7905399e-19)
(-0.0024466235 -1.2866642e-08 0)
(-0.0023824944 -1.3918484e-08 0)
(-0.0023225247 -1.2421213e-08 0)
(-0.0022707765 -1.0629298e-08 0)
(-0.0022259644 -9.1842848e-09 0)
(-0.0021864991 -8.0563667e-09 -8.5862997e-19)
(-0.0021512886 -7.1481041e-09 0)
(-0.0021195532 -6.4529695e-09 -6.8771065e-19)
(-0.0020902015 -5.9123611e-09 6.3010227e-19)
(-0.0020629695 -5.4325641e-09 -5.7897463e-19)
(-0.0020376241 -5.0004537e-09 0)
(-0.0020140168 -4.606201e-09 4.9090384e-19)
(-0.0019919977 -4.2553712e-09 0)
(-0.0019713545 -3.9481473e-09 -2.1038905e-19)
(-0.0019519242 -3.6743752e-09 0)
(-0.0019335856 -3.4314117e-09 -3.6570874e-19)
(-0.0019161944 -3.2150077e-09 3.426528e-19)
(-0.001899663 -3.0188927e-09 0)
(-0.0018839081 -2.8394207e-09 0)
(-0.0018688729 -2.6745115e-09 0)
(-0.0018544924 -2.5253463e-09 -2.6914137e-19)
(-0.0018406946 -2.3868995e-09 0)
(-0.0018274616 -2.258562e-09 0)
(-0.0018147269 -2.1436675e-09 0)
(-0.0018024328 -2.0360626e-09 0)
(-0.0017905759 -1.9346158e-09 -2.0620035e-19)
(-0.0017791115 -1.8428843e-09 1.9641246e-19)
(-0.0017679925 -1.7569332e-09 0)
(-0.0017572162 -1.6747893e-09 0)
(-0.0017467585 -1.5998509e-09 0)
(-0.0017365733 -1.530781e-09 1.6314678e-19)
(-0.0017266508 -1.4638053e-09 0)
(-0.0017169898 -1.400577e-09 0)
(-0.0017075591 -1.3430709e-09 -1.4314739e-19)
(-0.00169833 -1.2886746e-09 0)
(-0.0016893037 -1.2373044e-09 0)
(-0.0016804494 -1.1902428e-09 0)
(-0.0016717499 -1.1453407e-09 1.2207311e-19)
(-0.0016632049 -1.1011428e-09 -5.8679309e-20)
(-0.0016548168 -1.0578413e-09 1.1274801e-19)
(-0.0016465821 -1.0168085e-09 0)
(-0.0016384819 -9.7867216e-10 0)
(-0.0016305022 -9.4222146e-10 -1.5063395e-19)
(-0.0016226411 -9.0685542e-10 0)
(-0.0016148937 -8.7311847e-10 9.3062854e-20)
(-0.0016072482 -8.4126751e-10 0)
(-0.0015996948 -8.1083794e-10 0)
(-0.0015922284 -7.8154549e-10 -4.1648917e-20)
(-0.0015848434 -7.5322806e-10 -4.0141431e-20)
(-0.0015775365 -7.2608775e-10 0)
(-0.001570298 -7.0021345e-10 -7.463152e-20)
(-0.0015631227 -6.7520039e-10 0)
(-0.0015560072 -6.5107005e-10 0)
(-0.0015489451 -6.2791697e-10 0)
(-0.0015419302 -6.0552727e-10 0)
(-0.0015349609 -5.8383477e-10 0)
(-0.0015280314 -5.6309223e-10 0)
(-0.0015211331 -5.4305242e-10 0)
(-0.001514265 -5.2348939e-10 0)
(-0.0015074241 -5.0455003e-10 0)
(-0.0015006056 -4.8627466e-10 -5.1828958e-20)
(-0.0014938037 -4.6865757e-10 0)
(-0.0014870131 -4.5154947e-10 -2.4064679e-20)
(-0.0014802315 -4.3478773e-10 0)
(-0.0014734583 -4.185375e-10 -2.2304892e-20)
(-0.0014666855 -4.0302519e-10 4.2956128e-20)
(-0.001459904 -3.8800496e-10 4.1356071e-20)
(-0.0014531124 -3.7317401e-10 -1.9887874e-20)
(-0.0014463121 -3.5872387e-10 0)
(-0.0014394945 -3.4507316e-10 0)
(-0.0014326434 -3.3190236e-10 3.5376264e-20)
(-0.0014257609 -3.187142e-10 -3.3971011e-20)
(-0.0014188506 -3.0577737e-10 0)
(-0.0014119038 -2.9341147e-10 0)
(-0.0014049083 -2.8146958e-10 -3.000087e-20)
(-0.0013978603 -2.6965454e-10 0)
(-0.0013907615 -2.581141e-10 0)
(-0.0013835999 -2.4711762e-10 0)
(-0.0013763606 -2.3642034e-10 0)
(-0.0013690432 -2.2582624e-10 0)
(-0.0013616438 -2.1556153e-10 0)
(-0.0013541463 -2.0568572e-10 0)
(-0.0013465402 -1.9595365e-10 0)
(-0.001338825 -1.8640414e-10 1.9868283e-20)
(-0.0013309857 -1.7732984e-10 -1.8900999e-20)
(-0.0013231737 -1.6871136e-10 0)
(-0.0013156483 -1.6064418e-10 0)
(-0.0013084744 -1.5360174e-10 0)
(-0.0013015936 -1.4711161e-10 0)
(-0.0012950134 -1.4071273e-10 0)
(-0.001288718 -1.3477168e-10 0)
(-0.0012826815 -1.2937818e-10 0)
(-0.0012768797 -1.2439973e-10 0)
(-0.0012712987 -1.1967738e-10 -1.2756154e-20)
(-0.001265929 -1.1522916e-10 0)
(-0.001260755 -1.1115186e-10 0)
(-0.0012557584 -1.0741568e-10 0)
(-0.0012509263 -1.0388158e-10 0)
(-0.001246253 -1.0049928e-10 0)
(-0.0012417305 -9.7328155e-11 0)
(-0.0012373474 -9.4467936e-11 0)
(-0.0012330866 -9.1835732e-11 0)
(-0.0012289445 -8.9678505e-11 0)
(-0.0012248808 -8.7250545e-11 0)
(-0.0012209619 -8.7146614e-11 0)
(-0.0012169061 -1.5034297e-10 0)
(-0.0012133242 -1.0224978e-10 -1.0981773e-20)
(-0.0012074991 -1.1557076e-10 0)
)
;
    }
    back
    {
        type            empty;
    }
    front
    {
        type            empty;
    }
    inlet
    {
        type            calculated;
        value           uniform (0 0 0);
    }
    outlet
    {
        type            calculated;
        value           uniform (0 0 0);
    }
    top
    {
        type            calculated;
        value           uniform (0 0 0);
    }
    slipsurface
    {
        type            calculated;
        value           uniform (0 0 0);
    }
}


// ************************************************************************* //
