#      distance             U_x             U_y             U_z wallShearStr... wallShearStr... wallShearStr...               p           omega               k             nut
  3.0219182e-06     0.018435748   2.6178579e-09  -3.4409499e-23               0               0               0   0.00023202718       5570601.7   3.9954682e-07   3.7378311e-13
  5.0865428e-06     0.031034418   6.6411667e-09  -1.4587474e-23               0               0               0    0.0002320274       1240850.2   1.8246417e-06    3.454733e-12
  7.2269684e-06     0.044094944   1.3078345e-08  -3.7581245e-23               0               0               0   0.00023202761       495682.09    5.754964e-06   1.9319119e-11
  9.4750924e-06      0.05780994     2.22905e-08  -5.6365839e-23               0               0               0   0.00023202783       256764.48   1.4412944e-05   7.8793193e-11
  1.1864417e-05     0.072377391   3.4787424e-08  -2.3369602e-23               0               0               0   0.00023202806       152802.21   3.1075924e-05   2.5981719e-10
  1.4430548e-05     0.087996697   5.1301009e-08   7.8738666e-23               0               0               0   0.00023202831       99057.915   6.0498483e-05   7.3634668e-10
  1.7211727e-05      0.10485664   7.2786154e-08   1.2726391e-22               0               0               0   0.00023202859       68139.541   0.00010936772   1.8605189e-09
  2.0249401e-05      0.12310912   1.0043387e-07   2.8715452e-23               0               0               0   0.00023202892       49052.309   0.00018650242   4.2800937e-09
  2.3588836e-05      0.14282355   1.3566343e-07  -3.0449572e-23               0               0               0    0.0002320293       36670.779   0.00030219399   9.0629454e-09
  2.7279799e-05      0.16392765   1.8005917e-07  -1.5224786e-23               0               0               0   0.00023202979       28321.285   0.00046589922   1.7750429e-08
  3.1377293e-05      0.18616238   2.3524945e-07               0               0               0               0   0.00023203041       22483.729   0.00068216502   3.2240094e-08
  3.5942381e-05       0.2090944   3.0279027e-07   7.1835551e-23               0               0               0   0.00023203123       18243.554   0.00094658461   5.4484755e-08
  4.1043091e-05      0.23220452   3.8414666e-07    1.077418e-22               0               0               0   0.00023203231       15039.264    0.0012450383   8.6165023e-08
  4.6755437e-05      0.25501216   4.8075756e-07   1.2130679e-22               0               0               0   0.00023203372       12529.744    0.0015576964   1.2855015e-07
  5.3164546e-05      0.27718079   5.9429017e-07   1.2808711e-22               0               0               0   0.00023203551        10510.09    0.0018653304   1.8201973e-07
  6.0365928e-05      0.29855055   7.2695714e-07  -1.9306924e-22               0               0               0   0.00023203774       8853.4611    0.0021541217    2.467947e-07
    6.84669e-05      0.31906553   8.8146025e-07  -4.1127738e-22               0               0               0   0.00023204052       7476.8827    0.0024164737   3.2489533e-07
  7.7588184e-05      0.33868877    1.060793e-06  -2.1488841e-22               0               0               0   0.00023204397       6324.5392    0.0026489196   4.1954381e-07
   8.786571e-05      0.35739563   1.2683025e-06   6.1167813e-23               0               0               0   0.00023204824       5357.5556    0.0028506897   5.3367738e-07
  9.9452634e-05      0.37519586   1.5078367e-06   2.7188176e-22               0               0               0   0.00023205345       4546.6518    0.0030232797   6.6982856e-07
  0.00011252163       0.3921416   1.7839031e-06   5.6597335e-23               0               0               0   0.00023205973       3867.6904    0.0031697247   8.2941498e-07
  0.00012726745       0.4083269   2.1019695e-06  -1.5256124e-22               0               0               0   0.00023206717       3299.3058    0.0032937636   1.0126377e-06
  0.00014390985      0.42386377   2.4685849e-06  -3.7811473e-23               0               0               0   0.00023207591       2822.4484     0.003399107   1.2214084e-06
  0.00016269684      0.43884633   2.8911352e-06   6.8212977e-23               0               0               0   0.00023208618       2421.0303    0.0034888642   1.4603613e-06
  0.00018390838      0.45334246   3.3778742e-06   5.4349354e-22               0               0               0   0.00023209823       2082.0234    0.0035654253   1.7342098e-06
  0.00020786057      0.46740731   3.9383328e-06   6.7874906e-22               0               0               0   0.00023211235       1794.8539    0.0036307291   2.0472832e-06
  0.00023491035      0.48109024   4.5835301e-06   2.0346849e-22               0               0               0   0.00023212884       1550.8609    0.0036864298   2.4044498e-06
  0.00026546084      0.49443521   5.3260962e-06               0               0               0               0   0.00023214804       1342.9398    0.0037339225   2.8111757e-06
   0.0002999673      0.50748128   6.1805222e-06               0               0               0               0   0.00023217037       1165.2519    0.0037743746   3.2735901e-06
  0.00033894396      0.52026324   7.1634479e-06  -1.8513615e-22               0               0               0   0.00023219626       1012.9869    0.0038087572   3.7985541e-06
  0.00038297165      0.53281206    8.293986e-06   -3.702723e-22               0               0               0   0.00023222624       882.17024    0.0038378736   4.3937344e-06
  0.00043270649      0.54515541   9.5940953e-06   7.9973127e-22               0               0               0   0.00023226089       769.50785    0.0038623849   5.0676793e-06
  0.00048888965      0.55731812   1.1089014e-05   1.5536197e-21               0               0               0   0.00023230089       672.26045    0.0038828302    5.829896e-06
  0.00055235838      0.56932258   1.2807766e-05   5.6875229e-22               0               0               0   0.00023234698        588.1423    0.0038996446   6.6909265e-06
   0.0006240585       0.5811891   1.4783747e-05               0               0               0               0   0.00023240003       515.23949    0.0039131733    7.662418e-06
  0.00070505852      0.59293626   1.7055417e-05   2.3907061e-22               0               0               0     0.000232461       451.94393     0.003923682   8.7571831e-06
  0.00079656552      0.60458123    1.966711e-05   4.7814123e-22               0               0               0   0.00023253099       396.89995    0.0039313663   9.9892417e-06
  0.00089994316      0.61614001   2.2669985e-05   2.3907061e-22               0               0               0   0.00023261122       348.96091    0.0039363579   1.1373835e-05
    0.001016732      0.62762776   2.6123168e-05               0               0               0               0   0.00023270308       307.15396    0.0039387287   1.2927395e-05
   0.0011486725      0.63905902   3.0095095e-05    1.040144e-21               0               0               0   0.00023280812       270.65119     0.003938494   1.4667456e-05
   0.0012977308        0.650448   3.4665137e-05  -7.8666027e-22               0               0               0   0.00023292804       238.74611    0.0039356132   1.6612477e-05
   0.0014661282      0.66180883   3.9925558e-05  -3.4858956e-21               0               0               0   0.00023306475       210.83421    0.0039299897    1.878154e-05
   0.0016563743      0.67315587   4.5983898e-05  -2.6948439e-21               0               0               0   0.00023322034       186.39701    0.0039214684   2.1193886e-05
   0.0018713042        0.684504   5.2965891e-05  -1.5853922e-21               0               0               0   0.00023339708       164.98886    0.0039098324   2.3868222e-05
   0.0021141207      0.69586899   6.1019082e-05  -5.4963954e-22               0               0               0   0.00023359743       146.22591     0.003894797   2.6821728e-05
   0.0023884425      0.70726791   7.0317335e-05  -4.0093325e-22               0               0               0   0.00023382399       129.77706    0.0038760021   3.0068661e-05
   0.0026983575       0.7187196   8.1066524e-05   1.2403376e-21               0               0               0   0.00023407948       115.35629    0.0038530014   3.3618436e-05
   0.0030484842      0.73024526   9.3511785e-05  -2.2333345e-21               0               0               0    0.0002343666       102.71633    0.0038252492   3.7473028e-05
   0.0034440402      0.74186918   0.00010794685  -5.6867292e-21               0               0               0   0.00023468798       91.643345    0.0037920814   4.1623511e-05
   0.0038909203      0.75361961   0.00012472618  -1.8121238e-21               0               0               0   0.00023504588        81.95252    0.0037526927   4.6045529e-05
    0.004395784      0.76552995   0.00014428113   3.1387908e-21               0               0               0   0.00023544198       73.484424    0.0037061055   5.0693457e-05
   0.0049661549      0.77764021   0.00016714192  -4.6675271e-21               0               0               0   0.00023587692       66.102044    0.0036511291   5.5493044e-05
   0.0056105328       0.7899989    0.0001939679  -1.3730065e-20               0               0               0    0.0002363496       59.688489    0.0035863075   6.0332374e-05
   0.0063385204      0.80266564    0.0002255858   5.3286173e-21               0               0               0   0.00023685519       54.145388    0.0035098508   6.5051148e-05
   0.0071609664      0.81571454   0.00026301882   1.8519415e-20               0               0               0   0.00023738103       49.392121      0.00341955   6.9428586e-05
   0.0080901272      0.82925072   0.00030763599   2.8533206e-20               0               0               0   0.00023791128       45.360986    0.0033123807   7.3036814e-05
   0.0091398493      0.84344565   0.00036143733   3.2822292e-20               0               0               0   0.00023843164       41.983456    0.0031835652   7.5196263e-05
    0.010325776      0.85854811   0.00042733986   1.5609978e-20               0               0               0   0.00023890689       39.176622    0.0030254575   7.5353448e-05
     0.01166558      0.87485907   0.00050929688   4.0538439e-21               0               0               0   0.00023926683       36.830781    0.0028261994   7.3169206e-05
    0.013179228      0.89271316   0.00061262015   1.7869201e-20               0               0               0   0.00023941909       34.786128    0.0025683816   6.8366841e-05
    0.014889277      0.91241432    0.0007442532   1.6514186e-20               0               0               0   0.00023921536       32.819657    0.0022303211   6.0970922e-05
    0.016821209      0.93396989   0.00090897515   5.0591632e-20               0               0               0   0.00023833426       30.700687    0.0017957001   5.1523238e-05
    0.019003816      0.95673234    0.0011105305   7.7246324e-20               0               0               0   0.00023658005       28.152602    0.0012655116   4.0213589e-05
    0.021469624      0.97878587    0.0013381166    4.371701e-20               0               0               0   0.00023379579       23.092906   0.00069007337   2.6318985e-05
    0.024255377      0.99524153    0.0015155143   2.3926966e-20               0               0               0   0.00022895487       14.353129   0.00023652949    1.216327e-05
    0.027402591        1.002464    0.0015834891   5.5095881e-21               0               0               0   0.00022216158       7.3223631   3.6908746e-05   3.1276456e-06
    0.030958166       1.0037771    0.0015875574               0               0               0               0   0.00021521836        5.327735   1.7876161e-06   3.2620523e-07
    0.034975088       1.0038194    0.0015787754               0               0               0               0   0.00020874574       5.2603615    6.559945e-07   1.2470553e-07
    0.039513219       1.0038169    0.0015686614   1.9670744e-20               0               0               0    0.0002023075       5.2618466   6.5391279e-07   1.2427311e-07
    0.044640187        1.003819    0.0015594729   2.9503031e-20               0               0               0   0.00019567418       5.2622615   6.5412451e-07   1.2430338e-07
    0.050432395       1.0038259    0.0015492059   9.8322519e-21               0               0               0   0.00018884244       5.2622395   6.5413654e-07    1.243062e-07
    0.056976161       1.0038317    0.0015374153               0               0               0               0   0.00018190889       5.2622318   6.5413331e-07   1.2430577e-07
    0.064369002       1.0038323    0.0015248665               0               0               0               0   0.00017504755       5.2622261   6.5413211e-07   1.2430567e-07
    0.072721087       1.0038293    0.0015111843               0               0               0               0   0.00016841185        5.262216    6.541305e-07   1.2430561e-07
    0.082156882        1.003824    0.0014965271               0               0               0               0   0.00016208936       5.2621985   6.5412795e-07   1.2430553e-07
    0.092817002       1.0038163     0.001480663               0               0               0               0   0.00015616007       5.2621714   6.5412416e-07   1.2430545e-07
