/*--------------------------------*- C++ -*----------------------------------*\
  =========                 |
  \\      /  F ield         | OpenFOAM: The Open Source CFD Toolbox
   \\    /   O peration     | Website:  https://openfoam.org
    \\  /    A nd           | Version:  12
     \\/     M anipulation  |
\*---------------------------------------------------------------------------*/
FoamFile
{
    format      ascii;
    class       volScalarField;
    location    "2000";
    object      epsilon;
}
// * * * * * * * * * * * * * * * * * * * * * * * * * * * * * * * * * * * * * //

dimensions      [0 2 -3 0 0 0 0];

internalField   nonuniform List<scalar> 
7480
(
0.016648
0.06800125
0.16539534
0.29557498
0.43384379
0.55775951
0.65400721
0.7188107
0.75503334
0.76860588
0.76591763
0.75247078
0.73246562
0.70886883
0.68366415
0.65813313
0.63311001
0.60916801
0.58668594
0.5659364
0.54713401
0.53045741
0.51604723
0.503994
0.49432486
0.48695303
0.48158054
0.47778588
0.47500786
0.47264903
0.4702237
0.46745219
0.4642644
0.46075041
0.45705077
0.45327645
0.44947437
0.44563933
0.44174793
0.43779084
0.43378664
0.42977277
0.42578775
0.42185622
0.4179865
0.41417856
0.41043191
0.40674795
0.40312828
0.39957353
0.39608288
0.39265443
0.38928624
0.38597705
0.38272572
0.37953043
0.37638918
0.37330055
0.3702638
0.36727703
0.36433847
0.36144655
0.35859978
0.35579695
0.35303704
0.35031898
0.34764172
0.34500426
0.34240553
0.33984454
0.33732031
0.33483189
0.33237836
0.32995881
0.32757241
0.32521833
0.32289576
0.32060392
0.31834205
0.31610942
0.31390531
0.31172905
0.30957995
0.30745737
0.30536066
0.30328918
0.30124233
0.29921944
0.29721994
0.29524302
0.29328825
0.29135412
0.28944124
0.28754451
0.2856707
0.28379722
0.28196226
0.28003937
0.27843624
0.27545573
0.00023075544
0.0010249476
0.0033424602
0.0078666551
0.014529078
0.0229164
0.032106789
0.04095265
0.048655548
0.05486728
0.059566751
0.063045909
0.065809612
0.068384809
0.071308788
0.075146892
0.08077889
0.088415407
0.09680231
0.10595055
0.11605688
0.12723091
0.13937852
0.15215345
0.16513936
0.17766891
0.1888781
0.19793211
0.20421742
0.20754588
0.20820902
0.20685105
0.20424959
0.20110679
0.19790652
0.19487472
0.19204363
0.18935573
0.18674823
0.18419741
0.1817192
0.17934382
0.1770896
0.17495754
0.17293224
0.17099467
0.16913057
0.1673311
0.1655896
0.16389975
0.16225591
0.16065365
0.15908954
0.1575606
0.15606421
0.1545982
0.15316087
0.15175094
0.15036703
0.14900859
0.14767458
0.14636403
0.14507619
0.14381043
0.14256623
0.14134306
0.14014037
0.13895763
0.13779433
0.13664998
0.13552412
0.1344163
0.13332609
0.13225307
0.13119684
0.13015699
0.12913313
0.1281249
0.1271319
0.12615377
0.12519017
0.12424073
0.12330512
0.122383
0.12147404
0.12057792
0.11969431
0.1188229
0.11796339
0.11711543
0.11627873
0.11545289
0.11463764
0.11383225
0.1130368
0.11224903
0.11147212
0.1106847
0.10998629
0.10879481
2.3981656e-05
5.9836434e-05
0.00012783182
0.00023344506
0.00037792695
0.00056256271
0.00078675967
0.0010461206
0.0013326895
0.0016358138
0.0019436444
0.0022457073
0.0025354163
0.0028117543
0.0030810125
0.0033570501
0.0036694805
0.0040583263
0.0045651501
0.0052418762
0.0061556434
0.0073911422
0.0090738908
0.011468756
0.014770375
0.019235191
0.025704931
0.033456517
0.042221589
0.051681492
0.061309843
0.070510007
0.078712208
0.085437385
0.090420114
0.093679833
0.095469359
0.096178473
0.096215178
0.095912207
0.095476328
0.094995723
0.094487057
0.093937302
0.093340596
0.092706769
0.092053398
0.091394839
0.090737281
0.090080809
0.089423924
0.088766155
0.088108047
0.087450219
0.086792978
0.086136488
0.085480974
0.084826768
0.084174145
0.083523437
0.082875162
0.082229824
0.081587865
0.080949704
0.08031574
0.079686331
0.07906178
0.078442349
0.077828271
0.07721975
0.07661697
0.076020094
0.075429265
0.074844604
0.07426621
0.073694161
0.073128516
0.072569315
0.072016585
0.071470336
0.070930565
0.070397258
0.069870386
0.069349914
0.068835792
0.068327968
0.067826378
0.067330954
0.066841617
0.066358286
0.065880857
0.06540925
0.064943282
0.064482945
0.06402777
0.063578078
0.063133255
0.062686855
0.06228929
0.061607559
1.0118492e-05
1.6016058e-05
2.5319348e-05
3.7873331e-05
5.3449451e-05
7.188582e-05
9.3045219e-05
0.00011673326
0.0001426641
0.000170464
0.00019968773
0.00022985855
0.00026052188
0.00029130951
0.00032200367
0.00035256062
0.00038329514
0.00041485811
0.00044847395
0.00048608155
0.00053016763
0.00058471837
0.00065508113
0.00075010262
0.00088359472
0.0010738651
0.0013673866
0.0018137594
0.0024820537
0.0034537924
0.0048954082
0.0069736923
0.0098311119
0.013929456
0.018850599
0.024331125
0.030016933
0.035552643
0.040593247
0.044857969
0.04820684
0.050659155
0.052360375
0.053516551
0.054324408
0.05492221
0.055381515
0.055727765
0.055969123
0.056115614
0.056183212
0.056188838
0.056145234
0.056060118
0.055938404
0.055784288
0.055601862
0.05539485
0.055166346
0.054918866
0.054654681
0.054375899
0.054084435
0.053781997
0.053470111
0.05315014
0.052823304
0.052490697
0.052153305
0.051812013
0.051467626
0.051120872
0.050772412
0.050422842
0.050072701
0.049722471
0.049372586
0.049023435
0.048675363
0.048328681
0.047983663
0.04764055
0.047299556
0.046960865
0.046624641
0.046291022
0.045960129
0.045632065
0.045306913
0.044984749
0.044665613
0.044349581
0.044036596
0.043726863
0.043419962
0.043116727
0.042816081
0.042515453
0.042248492
0.041786758
7.5962357e-06
9.2946512e-06
1.1924295e-05
1.5340297e-05
1.942468e-05
2.4097831e-05
2.930746e-05
3.5013515e-05
4.1177636e-05
4.775782e-05
5.470685e-05
6.1972701e-05
6.9500528e-05
7.7236126e-05
8.5130766e-05
9.3143841e-05
0.00010125228
0.00010945511
0.00011778364
0.00012632583
0.00013520333
0.0001446461
0.00015495661
0.00016658375
0.00018021932
0.00019671625
0.00021770758
0.00024543858
0.00028313371
0.00033531871
0.00040970447
0.00051898775
0.00068090731
0.00093725222
0.0013405235
0.001949154
0.0028963819
0.0042798734
0.0062309091
0.008906849
0.01209555
0.01559224
0.019167785
0.022593381
0.025667769
0.028269117
0.030368784
0.032020105
0.033321593
0.03437223
0.035242631
0.035970918
0.036575357
0.03706893
0.037466189
0.037782362
0.038030323
0.038219526
0.038357063
0.038448919
0.038500529
0.038516732
0.038501682
0.03845895
0.038391681
0.038302675
0.03819441
0.038069087
0.037928666
0.037774898
0.037609361
0.037433474
0.037248515
0.037055641
0.036855892
0.036650213
0.036439452
0.036224381
0.036005692
0.035784015
0.035559914
0.0353339
0.035106432
0.034877923
0.034648743
0.034419225
0.034189668
0.033960339
0.033731476
0.033503298
0.03327598
0.033049722
0.032824599
0.032600915
0.032378422
0.032157996
0.031938804
0.031719306
0.031525738
0.031186325
6.8862627e-06
7.4799705e-06
8.472149e-06
9.8074837e-06
1.1423594e-05
1.3273054e-05
1.5324112e-05
1.7555706e-05
1.9952756e-05
2.2502624e-05
2.5193981e-05
2.8015562e-05
3.0955786e-05
3.4002707e-05
3.7144448e-05
4.0369565e-05
4.3667946e-05
4.7031689e-05
5.0456163e-05
5.3943269e-05
5.7500828e-05
6.1148384e-05
6.4918002e-05
6.8857865e-05
7.3042621e-05
7.7570612e-05
8.25907e-05
8.8328264e-05
9.5083456e-05
0.00010326555
0.00011342671
0.00012645047
0.00014340289
0.00016627636
0.00019805106
0.00024275258
0.00030796094
0.00040489732
0.00055205277
0.00078524903
0.001147358
0.0017196431
0.0025845356
0.0038338924
0.0055580924
0.0076504939
0.0099782532
0.012396567
0.014753374
0.016919101
0.018815056
0.020422054
0.021769052
0.02290597
0.023878191
0.024715396
0.025434674
0.02604845
0.026569188
0.0270093
0.027379508
0.027688322
0.0279427
0.02814875
0.028311953
0.028437109
0.028528379
0.028589415
0.028623464
0.028633415
0.028621838
0.02859103
0.028543051
0.028479753
0.0284028
0.028313695
0.028213791
0.028104314
0.027986371
0.027860961
0.027728992
0.027591282
0.027448572
0.027301532
0.027150768
0.026996829
0.02684021
0.026681361
0.026520686
0.026358557
0.026195293
0.026031221
0.025866553
0.025701676
0.025536528
0.025371943
0.025207439
0.025041762
0.024896793
0.024637759
6.6463485e-06
6.8616491e-06
7.2663743e-06
7.85923e-06
8.6154618e-06
9.5075577e-06
1.0513419e-05
1.1617264e-05
1.2808143e-05
1.4078549e-05
1.5422481e-05
1.6834928e-05
1.8311437e-05
1.984782e-05
2.144001e-05
2.3084018e-05
2.477601e-05
2.6512442e-05
2.8290232e-05
3.0107314e-05
3.1962853e-05
3.3858027e-05
3.5796718e-05
3.7786094e-05
3.9838374e-05
4.1971627e-05
4.4211846e-05
4.6598118e-05
4.9183847e-05
5.2042867e-05
5.5264514e-05
5.8988157e-05
6.3363915e-05
6.8619025e-05
7.5083578e-05
8.3197393e-05
9.3613262e-05
0.0001072625
0.00012547195
0.00015050075
0.00018567145
0.00023696397
0.00031360352
0.00043064748
0.00061594533
0.00090287312
0.0013623305
0.0020492835
0.003066265
0.0043767513
0.0059239169
0.0076190605
0.0093585298
0.011040634
0.01258883
0.013965046
0.015168276
0.01621871
0.017139837
0.017948989
0.018657647
0.019275363
0.019811839
0.020276481
0.020677468
0.021021651
0.021314999
0.021562879
0.021770084
0.021940836
0.022078881
0.022187564
0.022269881
0.022328517
0.022365879
0.022384136
0.022385241
0.02237096
0.022342884
0.022302454
0.022250974
0.022189624
0.022119473
0.022041488
0.021956548
0.021865449
0.021768912
0.021667594
0.021562087
0.021452935
0.02134062
0.021225607
0.021108257
0.020989049
0.020868108
0.020746232
0.020623268
0.020498103
0.020389337
0.020189898
6.5490741e-06
6.627217e-06
6.7909538e-06
7.057941e-06
7.4275349e-06
7.889172e-06
8.4300587e-06
9.0389603e-06
9.7071541e-06
1.0428235e-05
1.1197425e-05
1.2011056e-05
1.2866192e-05
1.3760381e-05
1.469147e-05
1.5657489e-05
1.6656588e-05
1.7687019e-05
1.8747145e-05
1.9835536e-05
2.0951057e-05
2.2093024e-05
2.3261429e-05
2.4457131e-05
2.5682249e-05
2.694058e-05
2.8237953e-05
2.9583237e-05
3.0988957e-05
3.2472842e-05
3.4056796e-05
3.577049e-05
3.7659552e-05
3.9780901e-05
4.2200885e-05
4.5010616e-05
4.832668e-05
5.2308821e-05
5.7155009e-05
6.3151742e-05
7.069859e-05
8.0424225e-05
9.3242925e-05
0.00011049787
0.00013442984
0.00016831634
0.00021861404
0.00029421089
0.00041353035
0.00059981213
0.00089588619
0.0013498552
0.0020322513
0.0029394768
0.0040424334
0.005285266
0.0065956326
0.007898395
0.0091319018
0.010260911
0.01127651
0.012185316
0.012997625
0.01372182
0.014364634
0.014932832
0.015433503
0.01587337
0.016258375
0.016593808
0.016884497
0.017134826
0.017348734
0.017529767
0.017681122
0.01780569
0.017906082
0.017984655
0.018043547
0.018084689
0.018109833
0.018120567
0.01811833
0.018104429
0.01808005
0.018046269
0.018004066
0.017954329
0.017897866
0.017835415
0.017767638
0.01769516
0.017618503
0.017538259
0.017454734
0.017368728
0.017280362
0.017188711
0.017109468
0.016958433
6.4969305e-06
6.526053e-06
6.5903097e-06
6.7063275e-06
6.8830704e-06
7.1213876e-06
7.4171225e-06
7.7643077e-06
8.1570675e-06
8.5903964e-06
9.0602707e-06
9.5635169e-06
1.0097622e-05
1.066057e-05
1.1250697e-05
1.1866589e-05
1.2506999e-05
1.3170802e-05
1.3856964e-05
1.4564545e-05
1.5292716e-05
1.6040795e-05
1.6808314e-05
1.7595091e-05
1.8401352e-05
1.9227892e-05
2.0076207e-05
2.0948767e-05
2.184925e-05
2.2783032e-05
2.375717e-05
2.4780822e-05
2.586717e-05
2.7033892e-05
2.8301861e-05
2.9697891e-05
3.1254732e-05
3.3013111e-05
3.5027806e-05
3.7376261e-05
4.0144786e-05
4.3452829e-05
4.7469639e-05
5.2420524e-05
5.8616232e-05
6.6496432e-05
7.6818304e-05
9.0595714e-05
0.00010963324
0.00013653683
0.00017606828
0.00023533919
0.000328263
0.00047308681
0.0007026592
0.0010572698
0.0015839279
0.0022843957
0.0031375045
0.0041044403
0.0051311138
0.0061606976
0.0071475246
0.008065675
0.0089068776
0.0096721845
0.010365057
0.010989069
0.011548271
0.012047417
0.012491461
0.012885086
0.013232647
0.013538222
0.013805595
0.014038246
0.014239356
0.014411837
0.014558346
0.014681306
0.014782925
0.014865213
0.014930001
0.014978956
0.015013598
0.015035307
0.015045343
0.015044853
0.01503488
0.015016377
0.014990207
0.014957172
0.01491797
0.014873325
0.014823727
0.014770015
0.014712539
0.014650645
0.014597241
0.014488369
6.4566516e-06
6.4690888e-06
6.4944457e-06
6.5428366e-06
6.6233831e-06
6.7415693e-06
6.8989757e-06
7.09443e-06
7.3253646e-06
7.5888005e-06
7.8818829e-06
8.2021022e-06
8.5473372e-06
8.9158261e-06
9.3061058e-06
9.7169493e-06
1.014731e-05
1.0596275e-05
1.1063037e-05
1.1546872e-05
1.2047136e-05
1.2563266e-05
1.3094793e-05
1.3641374e-05
1.4202828e-05
1.4779207e-05
1.5370846e-05
1.5978463e-05
1.6603252e-05
1.7247054e-05
1.7912442e-05
1.8602814e-05
1.9322844e-05
2.0078959e-05
2.0879156e-05
2.1733536e-05
2.2654479e-05
2.3656937e-05
2.4759439e-05
2.5986943e-05
2.7368715e-05
2.8939332e-05
3.0746218e-05
3.2843223e-05
3.5323029e-05
3.8285099e-05
4.1879205e-05
4.6301013e-05
5.1854194e-05
5.8932138e-05
6.8199661e-05
8.0591599e-05
9.7738757e-05
0.00012204428
0.00015777867
0.00021173211
0.00029611091
0.00042696978
0.00063442023
0.00095481223
0.0014100049
0.002001105
0.0027103312
0.0035041333
0.0043387791
0.0051713934
0.0059708427
0.0067207114
0.0074150538
0.0080526914
0.0086341856
0.0091612632
0.0096366901
0.010063788
0.010445991
0.010786691
0.011089183
0.011356617
0.011591953
0.01179795
0.011977171
0.012131983
0.012264567
0.012376927
0.012470904
0.012548181
0.012610302
0.012658679
0.012694603
0.012719254
0.012733707
0.012738958
0.012735892
0.01272538
0.0127081
0.012684965
0.012656514
0.012622462
0.012592931
0.0125228
6.4173214e-06
6.4243093e-06
6.4355313e-06
6.4557728e-06
6.4910177e-06
6.5466855e-06
6.6264941e-06
6.7322191e-06
6.8640545e-06
7.0211721e-06
7.2022239e-06
7.4056913e-06
7.6300839e-06
7.8740363e-06
8.1363399e-06
8.4159406e-06
8.7119228e-06
9.0234869e-06
9.3499294e-06
9.6906277e-06
1.0045029e-05
1.0412644e-05
1.0793048e-05
1.1185886e-05
1.159089e-05
1.2007904e-05
1.2436909e-05
1.2878059e-05
1.3331725e-05
1.3798559e-05
1.4279547e-05
1.4776058e-05
1.5289969e-05
1.5823879e-05
1.638116e-05
1.6966126e-05
1.7584149e-05
1.8241769e-05
1.8946852e-05
1.9709436e-05
2.0541748e-05
2.1457739e-05
2.2475415e-05
2.361478e-05
2.4904965e-05
2.637996e-05
2.8083973e-05
3.0072115e-05
3.2417033e-05
3.5234035e-05
3.8669738e-05
4.2919278e-05
4.8283843e-05
5.5180551e-05
6.4262477e-05
7.652745e-05
9.3642764e-05
0.0001181401
0.00015446609
0.0002103745
0.00029712996
0.00043321266
0.00064609124
0.00096061856
0.0013867893
0.0019195197
0.002539545
0.0032151393
0.0039103623
0.0045953361
0.0052510799
0.0058679418
0.0064415988
0.0069703485
0.0074541778
0.0078943491
0.0082928914
0.0086521913
0.008974793
0.0092632905
0.0095202411
0.0097481111
0.0099492472
0.010125861
0.010280022
0.010413656
0.010528548
0.010626349
0.01070858
0.010776642
0.010831821
0.010875306
0.010908172
0.010931452
0.010946005
0.01095285
0.010952681
0.010945666
0.010939094
0.010906003
6.3756564e-06
6.380824e-06
6.3872251e-06
6.3966979e-06
6.4123107e-06
6.4376833e-06
6.4762272e-06
6.5305978e-06
6.6024726e-06
6.6926087e-06
6.8010529e-06
6.9273869e-06
7.0709324e-06
7.230899e-06
7.4064762e-06
7.5968843e-06
7.8013985e-06
8.0193574e-06
8.250162e-06
8.4932728e-06
8.7482052e-06
9.0145248e-06
9.291846e-06
9.579833e-06
9.8782047e-06
1.0186746e-05
1.0505317e-05
1.0833872e-05
1.1172473e-05
1.1521324e-05
1.188079e-05
1.2251429e-05
1.2634037e-05
1.3029732e-05
1.3440019e-05
1.386687e-05
1.4312795e-05
1.4780909e-05
1.5274978e-05
1.5799661e-05
1.6360699e-05
1.6964722e-05
1.7619915e-05
1.8335536e-05
1.9123488e-05
1.9998085e-05
2.0976936e-05
2.2081417e-05
2.3337245e-05
2.478115e-05
2.6460187e-05
2.8433156e-05
3.0778946e-05
3.3608972e-05
3.7088815e-05
4.1437652e-05
4.6984381e-05
5.4207356e-05
6.3832726e-05
7.7090882e-05
9.5862781e-05
0.0001232695
0.00016474713
0.00022882197
0.000328379
0.0004849243
0.00071935066
0.0010443873
0.0014613529
0.0019591665
0.0025144895
0.0030981633
0.0036839945
0.0042536336
0.0047962947
0.0053061107
0.0057800622
0.0062170414
0.0066173048
0.0069819646
0.007312621
0.0076111525
0.0078795785
0.0081199598
0.0083343356
0.0085246831
0.0086928935
0.0088407569
0.0089699554
0.0090820615
0.0091785371
0.0092607435
0.0093299308
0.0093872863
0.0094338448
0.0094707393
0.0094987978
0.0095187049
0.0095348368
0.0095381835
6.3308093e-06
6.3352519e-06
6.3400241e-06
6.3456683e-06
6.3534918e-06
6.3654121e-06
6.3836774e-06
6.4105266e-06
6.4478908e-06
6.4972171e-06
6.5594273e-06
6.6349773e-06
6.7239605e-06
6.8262179e-06
6.9414311e-06
7.0691933e-06
7.2090577e-06
7.3605688e-06
7.5232815e-06
7.6967722e-06
7.8806442e-06
8.0745311e-06
8.2780974e-06
8.4910415e-06
8.7130978e-06
8.9440429e-06
9.1837011e-06
9.4319504e-06
9.6887326e-06
9.9540646e-06
1.0228051e-05
1.0510899e-05
1.0802938e-05
1.1104657e-05
1.1416743e-05
1.1740128e-05
1.2076032e-05
1.2426007e-05
1.279197e-05
1.3176273e-05
1.3581826e-05
1.4012058e-05
1.447112e-05
1.4963797e-05
1.5495882e-05
1.6074308e-05
1.6707402e-05
1.7405131e-05
1.8179093e-05
1.9044275e-05
2.0019693e-05
2.1128678e-05
2.2400391e-05
2.3872383e-05
2.5597813e-05
2.7644067e-05
3.010223e-05
3.3097055e-05
3.6823051e-05
4.1552616e-05
4.7683215e-05
5.5816908e-05
6.6911785e-05
8.2507787e-05
0.00010504733
0.00013888188
0.00019081465
0.00027108768
0.00039722969
0.00058575284
0.00084928616
0.0011916028
0.0016055647
0.0020728841
0.0025697398
0.0030740024
0.0035693583
0.0040454173
0.0044959578
0.0049174526
0.005308261
0.0056680636
0.0059973945
0.0062973207
0.0065692381
0.0068147291
0.0070354623
0.0072331272
0.0074093896
0.0075658633
0.0077040913
0.0078255391
0.0079315811
0.0080235261
0.0081025551
0.0081699116
0.0082265209
0.008273637
0.0083126136
0.0083524923
6.2826398e-06
6.2866819e-06
6.290828e-06
6.2951453e-06
6.300102e-06
6.306552e-06
6.3156939e-06
6.3289614e-06
6.3478582e-06
6.3737885e-06
6.4079331e-06
6.451189e-06
6.5041639e-06
6.5672091e-06
6.640468e-06
6.7239277e-06
6.8174653e-06
6.9208854e-06
7.0339482e-06
7.1563915e-06
7.2879444e-06
7.4283384e-06
7.5773134e-06
7.7346243e-06
7.9000448e-06
8.0733728e-06
8.2544351e-06
8.4430907e-06
8.6392369e-06
8.8428146e-06
9.0538147e-06
9.2722852e-06
9.4983425e-06
9.7321879e-06
9.9741282e-06
1.0224604e-05
1.0484215e-05
1.0753751e-05
1.1034213e-05
1.1326846e-05
1.1633197e-05
1.1955127e-05
1.2294885e-05
1.2655105e-05
1.3038909e-05
1.3449998e-05
1.3892758e-05
1.4372398e-05
1.4894924e-05
1.5467627e-05
1.6099511e-05
1.6801499e-05
1.7586884e-05
1.8471572e-05
1.9477305e-05
2.0630541e-05
2.1965352e-05
2.3525551e-05
2.5372881e-05
2.7590993e-05
3.0292537e-05
3.3636009e-05
3.7873856e-05
4.3359249e-05
5.0616831e-05
6.0498865e-05
7.4352328e-05
9.4288688e-05
0.00012415185
0.00016966393
0.00024005141
0.00034952137
0.00051205639
0.00073864509
0.0010332702
0.0013900065
0.0017933573
0.0022234585
0.0026618823
0.0030947623
0.0035128471
0.0039102899
0.0042836207
0.0046310788
0.004952094
0.0052468862
0.0055161935
0.0057610848
0.0059828265
0.0061827904
0.0063623906
0.0065230415
0.0066661257
0.0067929905
0.0069048964
0.0070031611
0.0070887551
0.007163529
0.0072256728
0.0073025722
6.2311924e-06
6.2349429e-06
6.2387614e-06
6.2425707e-06
6.2465018e-06
6.2508821e-06
6.2562547e-06
6.2633784e-06
6.2731832e-06
6.2866879e-06
6.3049066e-06
6.328768e-06
6.3590602e-06
6.3964054e-06
6.4412579e-06
6.4939185e-06
6.5545576e-06
6.623241e-06
6.6999539e-06
6.7846231e-06
6.8771343e-06
6.9773468e-06
7.0851042e-06
7.2002433e-06
7.3226018e-06
7.4520241e-06
7.5883671e-06
7.7315037e-06
7.8813279e-06
8.0377581e-06
8.2007409e-06
8.3702558e-06
8.5463208e-06
8.7290012e-06
8.9184211e-06
9.1147794e-06
9.318366e-06
9.5295804e-06
9.748949e-06
9.9771422e-06
1.0215005e-05
1.0463575e-05
1.0724117e-05
1.0998136e-05
1.1287415e-05
1.1594059e-05
1.1920549e-05
1.2269815e-05
1.2645243e-05
1.3050812e-05
1.3491301e-05
1.3972428e-05
1.4501069e-05
1.5085184e-05
1.5735068e-05
1.6463177e-05
1.7284786e-05
1.8219131e-05
1.9290912e-05
2.0532808e-05
2.1987061e-05
2.3708623e-05
2.5777236e-05
2.8301659e-05
3.1428075e-05
3.5383465e-05
4.0514929e-05
4.7310947e-05
5.6595769e-05
6.9612019e-05
8.8396204e-05
0.00011649436
0.00015908376
0.00022527209
0.00032656266
0.00047525248
0.00068036419
0.00094472192
0.0012619738
0.0016181591
0.0019964211
0.0023815589
0.0027621193
0.0031302589
0.0034808789
0.0038108942
0.0041186813
0.0044036365
0.0046658505
0.0049058801
0.0051245859
0.0053230158
0.0055023256
0.0056637266
0.0058084257
0.0059377241
0.0060525493
0.0061553392
0.0062409501
0.0063554718
6.1765559e-06
6.180067e-06
6.183652e-06
6.1872021e-06
6.1907312e-06
6.1943459e-06
6.1982602e-06
6.2028197e-06
6.2085094e-06
6.2159371e-06
6.225794e-06
6.238806e-06
6.255683e-06
6.2770778e-06
6.3035573e-06
6.3355884e-06
6.3735347e-06
6.4176627e-06
6.4681523e-06
6.5251102e-06
6.5885833e-06
6.6585719e-06
6.7350402e-06
6.8179273e-06
6.9071548e-06
7.0026355e-06
7.1042785e-06
7.2119952e-06
7.3257033e-06
7.4453309e-06
7.5708197e-06
7.7021278e-06
7.8392343e-06
7.9821442e-06
8.1308952e-06
8.285567e-06
8.4462921e-06
8.6132665e-06
8.7867632e-06
8.9671425e-06
9.1548696e-06
9.35053e-06
9.5548483e-06
9.7687027e-06
9.9931432e-06
1.0229415e-05
1.0478987e-05
1.0743591e-05
1.1025238e-05
1.1326265e-05
1.1649421e-05
1.1997954e-05
1.2375733e-05
1.2787189e-05
1.323778e-05
1.373408e-05
1.4283922e-05
1.4896938e-05
1.5584926e-05
1.6362879e-05
1.7249783e-05
1.8269151e-05
1.9452855e-05
2.0842999e-05
2.2493537e-05
2.4479997e-05
2.6911981e-05
2.9936437e-05
3.3769809e-05
3.8763357e-05
4.541466e-05
5.4545482e-05
6.7380136e-05
8.6067716e-05
0.00011398915
0.00015644197
0.00022198372
0.0003210102
0.0004637586
0.00065742025
0.0009025551
0.0011917497
0.0015120049
0.0018489641
0.002190247
0.0025266061
0.0028516312
0.0031611171
0.0034525117
0.0037244626
0.0039764621
0.0042085867
0.0044213133
0.0046153824
0.0047916927
0.0049513464
0.005095073
0.0052258312
0.0053349449
0.0054874866
6.1188344e-06
6.1221413e-06
6.1255322e-06
6.1288993e-06
6.132221e-06
6.1355229e-06
6.1388785e-06
6.142426e-06
6.146386e-06
6.1510693e-06
6.1568736e-06
6.1642672e-06
6.1737644e-06
6.1858955e-06
6.2011793e-06
6.2200983e-06
6.243083e-06
6.2705014e-06
6.3026561e-06
6.3397855e-06
6.3820692e-06
6.429634e-06
6.482562e-06
6.5408983e-06
6.6046582e-06
6.6738349e-06
6.7484057e-06
6.8283373e-06
6.9135908e-06
7.0041258e-06
7.0999037e-06
7.2008907e-06
7.3070613e-06
7.4184021e-06
7.5349163e-06
7.6566294e-06
7.7835967e-06
7.91591e-06
8.0537067e-06
8.1971778e-06
8.3465781e-06
8.5022379e-06
8.664575e-06
8.8341064e-06
9.01146e-06
9.1973881e-06
9.3927846e-06
9.5987067e-06
9.8163902e-06
1.0047269e-05
1.0293015e-05
1.0555585e-05
1.0837287e-05
1.1140767e-05
1.1469174e-05
1.1826266e-05
1.2216453e-05
1.264504e-05
1.311837e-05
1.3644215e-05
1.4232226e-05
1.4893983e-05
1.5644561e-05
1.6503073e-05
1.749349e-05
1.8647102e-05
2.0006871e-05
2.1628878e-05
2.3588651e-05
2.5999442e-05
2.9016289e-05
3.2869531e-05
3.7902576e-05
4.4672843e-05
5.4029347e-05
6.7308324e-05
8.6756123e-05
0.00011583918
0.00016040136
0.00022849309
0.00032948614
0.00047193145
0.00066045502
0.00089300407
0.0011610493
0.0014525159
0.0017553426
0.0020596198
0.002358037
0.0026455272
0.0029187829
0.0031758159
0.0034156005
0.0036377895
0.0038425085
0.004030319
0.0042014803
0.0043593082
0.0044913633
0.0046817106
6.0581424e-06
6.0612727e-06
6.0644939e-06
6.0677064e-06
6.0708803e-06
6.0740142e-06
6.0771287e-06
6.080273e-06
6.0835359e-06
6.0870578e-06
6.0910377e-06
6.0957355e-06
6.1014673e-06
6.1085932e-06
6.1175019e-06
6.1285925e-06
6.1422575e-06
6.1588679e-06
6.1787631e-06
6.2022429e-06
6.229565e-06
6.260944e-06
6.2965533e-06
6.3365281e-06
6.3809704e-06
6.4299531e-06
6.4835256e-06
6.5417181e-06
6.6045459e-06
6.6720138e-06
6.7441192e-06
6.8208547e-06
6.9022122e-06
6.9881851e-06
7.0787727e-06
7.1739837e-06
7.2738416e-06
7.3783895e-06
7.4876963e-06
7.6018623e-06
7.7210265e-06
7.8453748e-06
7.9751484e-06
8.1106524e-06
8.2522646e-06
8.4004444e-06
8.5557438e-06
8.7188211e-06
8.8904516e-06
9.0715398e-06
9.2631397e-06
9.4664777e-06
9.6829921e-06
9.9143366e-06
1.0162443e-05
1.0429588e-05
1.0718427e-05
1.1032094e-05
1.1374287e-05
1.1749418e-05
1.2162857e-05
1.2620942e-05
1.3131612e-05
1.3704692e-05
1.4352253e-05
1.5089408e-05
1.5935831e-05
1.6916889e-05
1.8064832e-05
1.9424498e-05
2.1055867e-05
2.3041695e-05
2.5497273e-05
2.8595602e-05
3.2587628e-05
3.7847219e-05
4.4993716e-05
5.4950377e-05
6.927174e-05
9.0382603e-05
0.00012227906
0.0001710472
0.00024447993
0.00035091015
0.00049679916
0.00068372572
0.00090712862
0.0011577577
0.0014247471
0.0016982236
0.0019704184
0.0022356858
0.0024901609
0.0027313578
0.00295782
0.0031689622
0.0033641006
0.0035465862
0.003699932
0.0039266856
5.9946048e-06
5.9975806e-06
6.000651e-06
6.003725e-06
6.006772e-06
6.0097826e-06
6.0127594e-06
6.0157173e-06
6.0186888e-06
6.0217305e-06
6.0249311e-06
6.0284178e-06
6.0323601e-06
6.0369696e-06
6.042496e-06
6.0492189e-06
6.0574375e-06
6.06746e-06
6.079592e-06
6.0941277e-06
6.1113419e-06
6.131485e-06
6.1547796e-06
6.1814192e-06
6.2115684e-06
6.2453647e-06
6.2829204e-06
6.3243255e-06
6.3696508e-06
6.4189507e-06
6.4722659e-06
6.5296262e-06
6.5910533e-06
6.6565633e-06
6.7261699e-06
6.7998877e-06
6.8777356e-06
6.9597408e-06
7.045943e-06
7.1363989e-06
7.2311873e-06
7.3304147e-06
7.4342219e-06
7.5427905e-06
7.6563489e-06
7.7751796e-06
7.8996268e-06
8.0301048e-06
8.167107e-06
8.3112132e-06
8.4631022e-06
8.6235645e-06
8.7935239e-06
8.9740467e-06
9.166368e-06
9.3719307e-06
9.5924083e-06
9.8297552e-06
1.0086254e-05
1.0364582e-05
1.0667938e-05
1.1000064e-05
1.1365503e-05
1.1769772e-05
1.2219544e-05
1.2722951e-05
1.3290112e-05
1.3933962e-05
1.467027e-05
1.5519933e-05
1.6509992e-05
1.7676152e-05
1.9065622e-05
2.0744612e-05
2.2805023e-05
2.5374613e-05
2.8648552e-05
3.2907999e-05
3.8586895e-05
4.6393984e-05
5.7436436e-05
7.3508225e-05
9.7485843e-05
0.00013393646
0.00018912654
0.00027052845
0.00038506694
0.0005364198
0.00072303877
0.00093838388
0.0011732096
0.0014181971
0.0016655205
0.0019092347
0.0021451013
0.0023704143
0.0025827652
0.0027849676
0.002956118
0.0032158349
5.9283559e-06
5.9311952e-06
5.9341304e-06
5.9370777e-06
5.9400084e-06
5.9429111e-06
5.9457825e-06
5.9486256e-06
5.9514508e-06
5.954279e-06
5.9571461e-06
5.9601077e-06
5.9632449e-06
5.9666674e-06
5.970516e-06
5.9749616e-06
5.9802021e-06
5.986457e-06
5.9939615e-06
6.0029585e-06
6.0136921e-06
6.0264009e-06
6.0413123e-06
6.0586388e-06
6.078575e-06
6.1012959e-06
6.1269566e-06
6.1556922e-06
6.1876193e-06
6.2228368e-06
6.2614278e-06
6.3034609e-06
6.3489927e-06
6.3980695e-06
6.4507298e-06
6.5070067e-06
6.5669309e-06
6.6305335e-06
6.6978491e-06
6.7689192e-06
6.843796e-06
6.9225468e-06
7.0052588e-06
7.0920436e-06
7.1830427e-06
7.2784323e-06
7.3784295e-06
7.4832981e-06
7.5933552e-06
7.708977e-06
7.8306069e-06
7.9587635e-06
8.094053e-06
8.2371782e-06
8.3889512e-06
8.5503163e-06
8.7223651e-06
8.9063637e-06
9.1037819e-06
9.3163254e-06
9.5460022e-06
9.7951471e-06
1.0066531e-05
1.0363464e-05
1.0689899e-05
1.1050571e-05
1.145119e-05
1.1898911e-05
1.2402279e-05
1.2972252e-05
1.3622499e-05
1.4370562e-05
1.523883e-05
1.6257054e-05
1.7465029e-05
1.8915488e-05
2.0683355e-05
2.2872545e-05
2.5631193e-05
2.9185765e-05
3.3875609e-05
4.0223601e-05
4.9083023e-05
6.1817928e-05
8.0633273e-05
0.00010900568
0.00015196824
0.00021597251
0.00030770541
0.0004318563
0.00058892397
0.00077462707
0.0009814004
0.001200781
0.0014251721
0.0016487298
0.0018662701
0.0020791875
0.0022616877
0.0025475925
5.8595385e-06
5.8622559e-06
5.8650686e-06
5.8678993e-06
5.8707215e-06
5.8735235e-06
5.8763004e-06
5.8790511e-06
5.8817782e-06
5.8844885e-06
5.8871954e-06
5.8899211e-06
5.8927005e-06
5.8955848e-06
5.8986447e-06
5.9019728e-06
5.9056845e-06
5.9099179e-06
5.914831e-06
5.920599e-06
5.9274096e-06
5.9354583e-06
5.944944e-06
5.9560636e-06
5.9690086e-06
5.9839619e-06
6.0010951e-06
6.0205666e-06
6.0425211e-06
6.0670889e-06
6.0943857e-06
6.1245132e-06
6.1575602e-06
6.1936034e-06
6.2327089e-06
6.274934e-06
6.3203294e-06
6.3689409e-06
6.4208119e-06
6.4759861e-06
6.53451e-06
6.5964364e-06
6.6618278e-06
6.7307603e-06
6.8033274e-06
6.8796439e-06
6.9598508e-06
7.0441198e-06
7.1326581e-06
7.225713e-06
7.3235777e-06
7.4265975e-06
7.5351765e-06
7.6497852e-06
7.7709686e-06
7.8993586e-06
8.0356855e-06
8.1807933e-06
8.3356577e-06
8.5014048e-06
8.6793463e-06
8.8709998e-06
9.0781396e-06
9.3028568e-06
9.5476195e-06
9.8153497e-06
1.0109501e-05
1.0434304e-05
1.0794763e-05
1.1197094e-05
1.1648895e-05
1.2159644e-05
1.2741149e-05
1.3408481e-05
1.4181171e-05
1.5084258e-05
1.615138e-05
1.7427611e-05
1.8973725e-05
2.087656e-05
2.3260271e-05
2.6304435e-05
3.0283871e-05
3.562079e-05
4.2982731e-05
5.3450734e-05
6.8765098e-05
9.1673666e-05
0.00012628083
0.00017809288
0.00025326796
0.00035683223
0.00049054678
0.00065185045
0.00083466203
0.0010316754
0.0012348207
0.0014433256
0.001626141
0.001926218
5.7883025e-06
5.7909097e-06
5.7936107e-06
5.7963334e-06
5.7990535e-06
5.80176e-06
5.8044474e-06
5.8071133e-06
5.8097574e-06
5.8123814e-06
5.81499e-06
5.8175913e-06
5.8201991e-06
5.8228348e-06
5.8255306e-06
5.8283315e-06
5.8312977e-06
5.8345064e-06
5.8380522e-06
5.8420471e-06
5.8466188e-06
5.8519089e-06
5.8580699e-06
5.8652618e-06
5.8736492e-06
5.8833974e-06
5.8946699e-06
5.9076255e-06
5.9224162e-06
5.9391854e-06
5.9580666e-06
5.9791827e-06
6.0026455e-06
6.0285558e-06
6.0570039e-06
6.0880706e-06
6.1218279e-06
6.1583406e-06
6.1976675e-06
6.2398636e-06
6.2849817e-06
6.3330748e-06
6.3841992e-06
6.4384166e-06
6.4957975e-06
6.5564246e-06
6.6203958e-06
6.6878283e-06
6.7588623e-06
6.8336646e-06
6.9124329e-06
6.9954008e-06
7.0828421e-06
7.1750764e-06
7.2724751e-06
7.3754688e-06
7.4845555e-06
7.6003096e-06
7.7233941e-06
7.8545722e-06
7.9947266e-06
8.1448751e-06
8.3061963e-06
8.4800643e-06
8.6680856e-06
8.8721446e-06
9.0944412e-06
9.3376157e-06
9.6047701e-06
9.8996625e-06
1.0226818e-05
1.0591755e-05
1.1001215e-05
1.1463556e-05
1.1989319e-05
1.2591693e-05
1.3287679e-05
1.4099368e-05
1.5055428e-05
1.6194634e-05
1.757012e-05
1.9254968e-05
2.1354114e-05
2.4020334e-05
2.7481483e-05
3.2088453e-05
3.8392051e-05
4.7272305e-05
6.0146035e-05
7.926459e-05
0.00010804505
0.00015121274
0.00021432875
0.0003023919
0.00041781488
0.00055948713
0.00072149566
0.00090294939
0.0010688111
0.0013633013
5.7148035e-06
5.7173103e-06
5.7199085e-06
5.7225305e-06
5.7251542e-06
5.7277695e-06
5.7303708e-06
5.7329553e-06
5.7355215e-06
5.7380694e-06
5.7406001e-06
5.7431165e-06
5.7456235e-06
5.7481294e-06
5.7506472e-06
5.7531968e-06
5.7558065e-06
5.758515e-06
5.761373e-06
5.7644448e-06
5.7678081e-06
5.7715546e-06
5.7757889e-06
5.7806269e-06
5.7861943e-06
5.7926242e-06
5.8000545e-06
5.8086261e-06
5.8184795e-06
5.8297535e-06
5.8425827e-06
5.8570962e-06
5.8734161e-06
5.8916568e-06