/*--------------------------------*- C++ -*----------------------------------*\
  =========                 |
  \\      /  F ield         | OpenFOAM: The Open Source CFD Toolbox
   \\    /   O peration     | Website:  https://openfoam.org
    \\  /    A nd           | Version:  12
     \\/     M anipulation  |
\*---------------------------------------------------------------------------*/
FoamFile
{
    format      ascii;
    class       volScalarField;
    location    "2000";
    object      epsilon;
}
// * * * * * * * * * * * * * * * * * * * * * * * * * * * * * * * * * * * * * //

dimensions      [0 2 -3 0 0 0 0];

internalField   nonuniform List<scalar> 
13056
(
0.0012516053
0.0010168726
0.00082849309
0.00073327119
0.00068461764
0.00065489429
0.00063395817
0.00061820983
0.00060600508
0.00059636483
0.00058863301
0.00058235197
0.00057719487
0.00057292296
0.00056935792
0.00056636401
0.00056383491
0.00056169541
0.00055983753
0.00055844541
0.00055632697
0.00055852085
0.00054403929
0.0017238205
66.272991
82.069701
76.106364
70.101074
65.630954
61.997436
58.911451
56.274887
54.011142
52.04491
50.31534
48.77829
47.401929
46.159876
45.029162
43.992894
43.038227
42.153916
41.330872
40.561608
39.83986
39.16042
38.518688
37.910859
37.333707
36.784332
36.260405
35.759775
35.280337
34.820356
34.378296
33.952661
33.542143
33.145686
32.762298
32.390983
32.030916
31.681404
31.341749
31.011239
30.689285
30.375397
30.069075
29.769796
29.477105
29.190645
28.910074
28.634994
28.365019
28.099882
27.839332
27.583073
27.330804
27.082261
26.837253
26.595584
26.357006
26.121267
25.888192
25.657632
25.429402
25.203297
24.979113
24.756729
24.536017
24.316803
24.098899
23.882158
23.666466
23.451693
23.237659
23.024185
22.811159
22.59847
22.385948
22.17341
21.960735
21.747812
21.534466
21.320503
21.105775
20.890147
20.673422
20.45538
20.235856
20.014671
19.791576
19.566312
19.33871
19.113452
18.897595
18.693028
18.498804
18.314043
18.137975
17.969935
17.809315
17.655531
17.508058
17.36646
17.230329
17.099266
16.972897
16.850857
16.732872
16.618468
16.5076
16.398837
16.293808
16.185763
16.089655
15.934574
0.0012511717
0.0010165298
0.00082819903
0.00073298196
0.0006843258
0.0006546013
0.00063366524
0.00061791726
0.00060571286
0.00059607288
0.00058834125
0.00058206034
0.00057690332
0.00057263144
0.00056906638
0.00056607241
0.00056354321
0.00056140358
0.00055954554
0.00055815321
0.00055603457
0.0005582351
0.00054371752
0.0017162522
38.035507
44.374891
40.640834
37.214454
34.712143
32.698927
31.000402
29.556103
28.320658
27.250868
26.312272
25.480031
24.736314
24.066398
23.45751
22.900306
22.387687
21.913437
21.472557
21.060932
20.675123
20.312276
19.969873
19.645834
19.338397
19.045976
18.767304
18.501209
18.246545
18.002372
17.767857
17.542189
17.324658
17.114694
16.91176
16.715317
16.524919
16.340193
16.160761
15.98624
15.816313
15.650715
15.489179
15.331423
15.177201
15.026323
14.878605
14.733834
14.591803
14.452369
14.315398
14.180732
14.048209
13.917688
13.789069
13.662247
13.537089
13.41346
13.29127
13.170438
13.050867
12.932446
12.815069
12.698671
12.583186
12.46852
12.354575
12.241273
12.128556
12.016353
11.90457
11.793115
11.681928
11.570952
11.460096
11.349267
11.238401
11.12744
11.016294
10.904861
10.793065
10.680837
10.568074
10.454661
10.340516
10.225545
10.10962
9.9926065
9.8744195
9.7574898
9.6454776
9.5393578
9.438634
9.3428455
9.2515885
9.1645163
9.0813094
9.0016627
8.9253031
8.8520015
8.781545
8.7137253
8.648348
8.585222
8.524205
8.4650498
8.4077334
8.3515114
8.2972326
8.2413882
8.1917344
8.1116321
0.0012497531
0.0010154073
0.00082720754
0.00073199416
0.00068332534
0.00065359488
0.00063265702
0.00061690841
0.00060470355
0.00059506306
0.00058733087
0.00058104934
0.00057589163
0.000571619
0.00056805312
0.00056505826
0.00056252808
0.00056038739
0.0005585282
0.00055713445
0.00055501507
0.0005572245
0.00054264738
0.0017069196
35.238477
37.054043
33.167652
30.071258
27.878555
26.142231
24.691454
23.46583
22.422679
21.523082
20.736517
20.041172
19.421515
18.864755
18.359826
17.89871
17.475318
17.084307
16.721414
16.383132
16.066532
15.769192
15.488973
15.224118
14.973136
14.734682
14.507689
14.291171
14.084161
13.885875
13.695616
13.5127
13.336537
13.16665
13.002591
12.843908
12.69023
12.541248
12.396647
12.256107
12.119366
11.986205
11.856403
11.729724
11.605967
11.484976
11.366598
11.250656
11.13698
11.025454
10.915968
10.80839
10.702589
10.59845
10.49589
10.394824
10.295143
10.196737
10.099534
10.003468
9.9084589
9.8144185
9.7212604
9.6289327
9.537382
9.446533
9.3563065
9.2666404
9.1774885
9.0887948
9.0004842
8.9124826
8.8247441
8.7372234
8.6498489
8.5625463
8.475267
8.3879656
8.3005707
8.2130036
8.1252051
8.0371223
7.9486753
7.8597756
7.7703593
7.6803549
7.589664
7.4981838
7.4058498
7.314562
7.2271726
7.1444341
7.0659518
6.9913594
6.9203364
6.8526075
6.7879195
6.7260305
6.6667246
6.6098207
6.5551503
6.5025488
6.4518631
6.4029424
6.355675
6.309866
6.2654984
6.2219861
6.1800016
6.1367879
6.0984044
6.0365189
0.0012473113
0.0010134754
0.00082549385
0.00073028377
0.0006815921
0.00065185078
0.00063090925
0.00061515906
0.00060295295
0.00059331122
0.00058557772
0.00057929482
0.00057413567
0.0005698615
0.000566294
0.0005632974
0.00056076535
0.00055862265
0.00055676132
0.00055536493
0.00055324423
0.00055546371
0.00054080515
0.0016961302
35.694068
34.568748
30.365203
27.347233
25.264128
23.634393
22.28135
21.142333
20.175188
19.342611
18.615646
17.973717
17.402273
16.889333
16.424508
16.000334
15.611143
15.251942
14.918769
14.608366
14.318009
14.045449
13.788701
13.546138
13.316377
13.098169
12.890527
12.692541
12.503314
12.322124
12.148328
11.981294
11.820475
11.665436
11.51576
11.37103
11.230904
11.0951
10.963326
10.835287
10.710741
10.589489
10.471327
10.356037
10.243434
10.133375
10.025722
9.9203101
9.8169822
9.7156339
9.6161642
9.5184525
9.4223768
9.3278325
9.2347448
9.1430355
9.0526048
8.9633519
8.8752106
8.7881218
8.7020129
8.6168018
8.5324101
8.4487916
8.3658975
8.2836592
8.2020041
8.1208764
8.0402347
7.9600283
7.8801888
7.8006487
7.7213678
7.6423052
7.5633958
7.4845726
7.4057924
7.327015
7.2481758
7.169204
7.0900473
7.0106586
6.9309663
6.8508912
6.770377
6.6893605
6.6077534
6.5254647
6.442438
6.3603826
6.2818595
6.2075411
6.1370694
6.0701122
6.006379
5.9456202
5.8876065
5.8321186
5.7789611
5.7279702
5.6789936
5.631882
5.5864971
5.5427026
5.5003977
5.4594057
5.4197131
5.3807851
5.3432419
5.3045691
5.2702559
5.2149574
0.0012437873
0.0010106885
0.00082302008
0.00072781414
0.00067908917
0.00064933191
0.00062838488
0.00061263219
0.0006004241
0.00059078039
0.00058304486
0.00057675984
0.0005715985
0.00056732202
0.00056375207
0.00056075286
0.00055821803
0.00055607235
0.00055420784
0.00055280756
0.00055068495
0.00055291446
0.00053815344
0.0016830154
35.63416
32.817723
28.424126
25.487549
23.504503
21.968513
20.699518
19.633737
18.729971
17.952626
17.274275
16.67551
16.142677
15.664546
15.23135
14.836103
14.473517
14.138909
13.828576
13.539476
13.269064
13.015241
12.77615
12.550276
12.33633
12.133139
11.93979
11.755432
11.579227
11.410505
11.248669
11.093128
10.943372
10.798995
10.659613
10.524832
10.394336
10.267863
10.145141
10.025894
9.9098966
9.796966
9.6869102
9.5795273
9.4746435
9.3721276
9.2718506
9.1736587
9.0774049
8.9829931
8.89033
8.7993024
8.7097965
8.6217146
8.5349882
8.4495446
8.3652903
8.2821308
8.2000053
8.1188593
8.0386248
7.959225
7.8805866
7.8026674
7.7254222
7.6487864
7.5726924
7.4970885
7.4219363
7.3471889
7.2727818
7.1986523
7.1247635
7.0510775
6.9775331
6.9040676
6.8306415
6.7572174
6.6837349
6.6101277
6.5363476
6.462351
6.3880708
6.313433
6.238386
6.1628706
6.0868045
6.0101028
5.9327137
5.8562308
5.7830405
5.7137693
5.6480842
5.5856752
5.5262715
5.4696409
5.4155695
5.3638527
5.3143082
5.2667838
5.2211372
5.1772293
5.1349308
5.0941146
5.0546871
5.016482
4.9794891
4.9432009
4.9082132
4.8721379
4.8401566
4.788626
0.0012391031
0.0010069867
0.00081973691
0.00072453767
0.00067576869
0.00064599021
0.00062503582
0.00060927977
0.00059706902
0.00058742265
0.00057968438
0.00057339654
0.00056823223
0.00056395265
0.00056037942
0.00055737673
0.00055483816
0.0005526885
0.00055081975
0.00054941426
0.00054728913
0.00054952711
0.00053464352
0.0016664841
34.696484
31.158881
26.690604
23.849874
21.969023
20.525408
19.337916
18.342563
17.499405
16.774675
16.142503
15.584639
15.088305
14.643005
14.239591
13.87154
13.533922
13.222361
12.933404
12.664216
12.412423
12.176069
11.953423
11.743075
11.543825
11.354577
11.174482
11.00275
10.8386
10.681408
10.530621
10.385688
10.246133
10.111581
9.9816723
9.8560421
9.7343947
9.6164876
9.5020677
9.390877
9.2827076
9.1773887
9.0747424
8.9745798
8.8767391
8.781099
8.68754
8.5959181
8.506096
8.417985
8.3314989
8.2465319
8.1629773
8.0807444
7.9997699
7.9199865
7.8413063
7.7636411
7.6869347
7.6111366
7.5361833
7.4620028
7.3885265
7.3157155
7.2435281
7.1719036
7.1007783
7.0301043
6.9598462
6.88996
6.8203852
6.7510628
6.681959
6.6130383
6.5442431
6.4755144
6.4068157
6.3381121
6.2693464
6.2004567
6.1313978
6.062129
5.9925869
5.9227021
5.8524262
5.7817037
5.7104571
5.6386062
5.5661029
5.4944402
5.425854
5.3609326
5.2993652
5.240862
5.1851703
5.1320732
5.0813707
5.0328715
4.9864052
4.9418297
4.8990118
4.8578214
4.8181375
4.7798409
4.7428444
4.7069908
4.6722729
4.638207
4.6053672
4.5714746
4.5414485
4.4930713
0.0012331649
0.0010022978
0.00081558564
0.00072039811
0.00067157415
0.00064176899
0.00062080538
0.0006050452
0.00059283117
0.00058318152
0.00057543985
0.00056914845
0.00056398044
0.00055969696
0.00055611959
0.00055311251
0.00055056924
0.00054841455
0.00054654044
0.00054512839
0.00054300006
0.00054524329
0.00053021759
0.0016454114
33.069841
29.515429
25.054817
22.317006
20.537285
19.183137
18.073841
17.145766
16.360366
15.685702
15.09744
14.578451
14.116786
13.702655
13.327514
12.985276
12.671352
12.381662
12.112989
11.862694
11.628567
11.40879
11.20175
11.006137
10.820833
10.64482
10.477307
10.317561
10.164855
10.018612
9.8783176
9.7434591
9.613593
9.4883727
9.3674648
9.2505283
9.1372886
9.0275214
8.9209918
8.8174592
8.7167303
8.6186475
8.5230454
8.4297481
8.3386047
8.2495034
8.1623333
8.0769603
7.9932561
7.911139
7.8305291
7.7513279
7.6734359
7.5967685
7.5212674
7.4468702
7.3734948
7.3010587
7.2295101
7.1588021
7.0888756
7.0196633
6.9511009
6.8831528
6.8157801
6.7489261
6.6825312
6.6165507
6.5509519
6.4856936
6.4207193
6.3559736
6.2914251
6.2270411
6.162767
6.0985478
6.0343492
5.9701389
5.9058632
5.8414636
5.7768982
5.7121286
5.6470955
5.5817333
5.5159969
5.4498341
5.3831718
5.3159346
5.2480774
5.1809977
5.1167884
5.0560014
4.9983471
4.9435552
4.8913898
4.8416488
4.7941456
4.7487015
4.7051574
4.6633808
4.6232474
4.5846354
4.5474318
4.5115251
4.4768339
4.4432103
4.4106493
4.3786912
4.3478869
4.316068
4.2878945
4.2425029
0.001225865
0.00099653996
0.00081050075
0.00071533326
0.00066644322
0.00063660567
0.00061563104
0.00059986606
0.00058764826
0.00057799477
0.00057024907
0.00056395345
0.000558781
0.00055449281
0.00055091045
0.00054789804
0.00054534907
0.00054318827
0.00054130765
0.00053988762
0.00053775537
0.0005400009
0.00052480987
0.0016186689
30.96896
27.891398
23.497004
20.864123
19.182202
17.913461
16.878378
16.013994
15.283196
14.655831
14.109042
13.626768
13.19784
12.813139
12.4647
12.146842
11.855298
11.58627
11.336764
11.104326
10.886901
10.682797
10.490517
10.308842
10.136736
9.973249
9.8176481
9.6692539
9.52739
9.3915205
9.2611703
9.1358625
9.0151848
8.898816
8.7864472
8.6777611
8.5725026
8.4704644
8.3714285
8.275171
8.1815126
8.0903075
8.0014024
7.9146336
7.8298609
7.7469808
7.6658909
7.5864663
7.5085873
7.4321787
7.3571666
7.2834592
7.2109641
7.1396024
7.0693205
7.0000604
6.9317458
6.8642996
6.7976738
6.7318254
6.6666991
6.6022321
6.5383645
6.4750634
6.4122929
6.3499999
6.2881287
6.2266378
6.1654969
6.1046678
6.0440973
5.9837338
5.9235482
5.8635101
5.8035683
5.7436712
5.6837871
5.6238857
5.5639167
5.5038253
5.4435723
5.383122
5.3224185
5.2614003
5.2000252
5.1382444
5.0759891
5.0131884
4.9498002
4.8871299
4.827133
4.7703262
4.71644
4.6652228
4.6164548
4.5699479
4.5255284
4.4830297
4.4423034
4.4032262
4.3656824
4.3295582
4.2947482
4.2611482
4.2286826
4.1972124
4.1667346
4.1368138
4.1079758
4.0781658
4.0517829
4.0092759
0.0012170859
0.00098962413
0.00080441277
0.00070927805
0.0006603109
0.0006304351
0.00060944772
0.00059367744
0.0005814555
0.00057179773
0.00056404746
0.00055774699
0.00055256937
0.00054827569
0.00054468747
0.00054166879
0.00053911309
0.00053694506
0.00053505675
0.00053362726
0.00053149033
0.00053373549
0.00051835213
0.0015851432
28.556769
26.296676
22.012453
19.483661
17.895123
16.70731
15.742297
14.937957
14.258592
13.675764
13.168024
12.720324
12.322224
11.965236
11.641945
11.347056
11.076597
10.827041
10.595601
10.379999
10.178323
9.9890036
9.8106494
9.6421287
9.4824796
9.3308209
9.1864709
9.0488005
8.9171822
8.7911187
8.6701704
8.5538949
8.4419093
8.333916
8.2296289
8.1287536
8.0310532
7.9363357
7.8443995
7.7550366
7.6680806
7.5833967
7.500843
7.4202674
7.3415398
7.2645644
7.1892465
7.1154703
7.0431244
6.9721392
6.9024465
6.8339613
6.7665973
6.7002814
6.6349641
6.5705917
6.5070935
6.4443973
6.3824591
6.3212388
6.2606853
6.2007401
6.1413473
6.0824765
6.0240947
5.9661521
5.9085971
5.8513908
5.7945055
5.7379053
5.6815409
5.625364
5.5693476
5.5134635
5.457664
5.4019006
5.346144
5.2903659
5.2345193
5.178553
5.1224304
5.0661182
5.009564
4.9527103
4.8955177
4.8379404
4.779914
4.721372
4.6622752
4.6038404
4.5478914
4.4949106
4.4446477
4.3968688
4.3513696
4.3079754
4.2665246
4.2268621
4.18885
4.1523737
4.1173254
4.0835993
4.0510973
4.019722
3.9894034
3.9600112
3.9315438
3.9035908
3.8766512
3.8487857
3.8241329
3.7844121
0.0012067035
0.00098145752
0.00079725151
0.00070216799
0.00065311314
0.00062319315
0.00060219143
0.00058641557
0.00057418934
0.00056452699
0.0005567717
0.00055046581
0.00054528237
0.00054098244
0.00053738749
0.00053436161
0.00053179812
0.00052962174
0.00052772451
0.00052628403
0.00052414165
0.00052638407
0.00051077789
0.0015437765
25.952416
24.737117
20.598856
18.171731
16.671679
15.560243
14.661231
13.913403
13.282424
12.741487
12.270477
11.855302
11.486205
11.15529
10.855666
10.582395
10.331786
10.100564
9.8861397
9.6863957
9.4995594
9.3241731
9.158946
9.002828
8.8549272
8.7144262
8.5806921
8.4531425
8.3311963
8.2143921
8.1023233
7.9945804
7.8908082
7.7907306
7.6940835
7.6005938
7.5100417
7.4222497
7.3370312
7.2541936
7.1735825
7.0950732
7.0185347
6.9438259
6.8708261
6.7994466
6.7296003
6.6611795
6.594081
6.5282402
6.4635944
6.4000647
6.3375712
6.2760459
6.215443
6.1557131
6.0967904
6.0386081
5.9811252
5.9243048
5.8680994
5.8124548
5.757319
5.7026639
5.6484588
5.5946578
5.5412125
5.4880871
5.4352556
5.3826851
5.3303295
5.2781437
5.226103
5.174181
5.1223332
5.0705145
5.0186976
4.9668564
4.9149468
4.8629211
4.8107452
4.7583881
4.705801
4.6529299
4.5997384
4.5461835
4.492205
4.4377408
4.3827542
4.3283777
4.2763081
4.2269954
4.1802073
4.1357268
4.0933643
4.0529578
4.0143571
3.9774184
3.9420135
3.9080362
3.8753862
3.8439653
3.8136822
3.7844465
3.7561932
3.7288004
3.7022679
3.6762098
3.6510977
3.6251084
3.6021222
3.5650849
0.0011945914
0.00097194692
0.00078894957
0.00069394301
0.00064479079
0.00061482075
0.00059380332
0.00057802189
0.00056579146
0.00055612443
0.00054836385
0.00054205208
0.00053686222
0.00053255533
0.00052895284
0.00052591881
0.0005233465
0.00052116062
0.00051925324
0.00051780025
0.00051565159
0.00051788918
0.00050202719
0.0014936377
23.245721
23.214754
19.254171
16.92562
15.508962
14.469413
13.632482
12.937795
12.352307
11.850752
11.414277
11.029689
10.687869
10.381477
10.104118
9.8511893
9.6192611
9.4052974
9.2068921
9.0220817
8.8492221
8.6869614
8.5341036
8.3896746
8.2528484
8.122868
7.9991456
7.881143
7.7683224
7.6602564
7.5565689
7.4568817
7.3608654
7.2682643
7.1788344
7.0923233
7.0085271
6.9272815
6.8484145
6.7717477
6.6971381
6.6244703
6.5536235
6.4844672
6.4168896
6.3508084
6.2861434
6.2227953
6.1606681
6.099702
6.0398393
5.981007
5.9231312
5.8661489
5.8100176
5.7546919
5.7001108
5.6462124
5.5929586
5.5403155
5.4882392
5.4366794
5.3855877
5.3349382
5.2847027
5.2348384
5.1853006
5.1360559
5.0870804
5.0383436
4.9898026
4.9414156
4.8931596
4.8450101
4.796926
4.7488652
4.7008022
4.6527129
4.6045563
4.5562881
4.5078763
4.4592923
4.4104905
4.3614208
4.312049
4.2623353
4.2122234
4.1616555
4.1105974
4.0601004
4.0117408
3.9659368
3.9224736
3.8811499
3.8417903
3.8042445
3.7683737
3.7340444
3.7011378
3.6695554
3.6392045
3.6099939
3.5818389
3.5546555
3.5283836
3.5029096
3.4782342
3.4539959
3.4306386
3.406454
3.3850689
3.3506089
0.0011806255
0.00096100255
0.00077944609
0.00068455152
0.00063529382
0.00060526815
0.00058423399
0.00056844741
0.00055621323
0.00054654171
0.00053877574
0.0005324578
0.00052726105
0.00052294656
0.00051933576
0.0005162927
0.00051371056
0.00051151405
0.00050959532
0.00050812824
0.00050597251
0.00050820337
0.00049205195
0.0014340222
20.508682
21.728555
17.976426
15.743319
14.404899
13.432844
12.654226
12.009465
11.466719
11.002167
10.598145
10.242307
9.9261291
9.6427938
9.3863706
9.1525744
8.9382181
8.7404916
8.5571609
8.386406
8.2267039
8.0768018
7.9355928
7.8021741
7.6757816
7.5557149
7.4414287
7.3324259
7.22821
7.1283847
7.0326029
6.9405156
6.8518178
6.766273
6.6836559
6.6037337
6.5263172
6.4512547
6.3783876
6.3075513
6.2386131
6.1714666
6.1060005
6.0420943
5.9796444
5.9185748
5.8588115
5.800263
5.7428405
5.6864885
5.6311539
5.5767696
5.523267
5.4705878
5.4186927
5.36754
5.3170735
5.2672357
5.2179913
5.1693092
5.1211487
5.0734634
5.0262085
4.97936
4.9328917
4.8867644
4.8409364
4.7953768
4.7500635
4.7049684
4.6600517
4.6152747
4.5706159
4.526053
4.4815476
4.4370606
4.3925686
4.348049
4.3034639
4.2587721
4.2139439
4.1689528
4.1237565
4.0783081
4.0325762
3.9865236
3.9400981
3.8932457
3.8459345
3.7991391
3.75432
3.7118653
3.6715766
3.6332677
3.5967765
3.5619641
3.528702
3.4968668
3.4663486
3.4370564
3.4089043
3.3818079
3.3556889
3.3304694
3.306094
3.282457
3.2595596
3.2370646
3.2153877
3.1929345
3.1730835
3.1410927
0.0011646888
0.00094854215
0.00076869072
0.0006739546
0.00062458581
0.00059449954
0.00057344815
0.00055765736
0.00054542033
0.00053574485
0.00052797368
0.00052164949
0.00051644554
0.00051212296
0.00050850319
0.00050545028
0.00050285737
0.00050064915
0.0004987179
0.00049723522
0.00049507168
0.00049729387
0.00048082174
0.0013645737
17.803011
20.274982
16.763664
14.623343
13.358023
12.449163
11.725227
11.127313
10.624684
10.194866
9.8213147
9.4924756
9.2003816
8.9387032
8.70195
8.4861325
8.2882909
8.1058273
7.9366694
7.7791315
7.6318042
7.4935275
7.3632784
7.2402208
7.1236483
7.0129142
6.9075128
6.8069854
6.7108742
6.6188123
6.5304794
6.4455542
6.3637548
6.2848621
6.2086687
6.13496
6.063561
5.9943314
5.9271254
5.8617912
5.7982061
5.7362718
5.6758858
5.6169373
5.5593304
5.5029947
5.4478624
5.3938491
5.340873
5.2888824
5.2378285
5.1876498
5.1382828
5.0896736
5.041786
4.9945815
4.9480085
4.9020138
4.8565646
4.8116324
4.7671798
4.7231639
4.6795432
4.6362954
4.5933967
4.5508106
4.5084988
4.4664326
4.4245916
4.3829499
4.3414707
4.3001182
4.2588725
4.2177129
4.1766041
4.1355098
4.0944082
4.0532786
4.0120858
3.9707916
3.9293686
3.8877921
3.8460229
3.8040177
3.7617471
3.7191769
3.6762584
3.6329415
3.5891969
3.5459252
3.5044775
3.465213
3.4279484
3.3925123
3.3587549
3.3265479
3.2957731
3.2663163
3.238076
3.2109684
3.1849142
3.1598353
3.1356595
3.1123148
3.0897499
3.067867
3.0466677
3.0258384
3.0057669
2.98497
2.9665853
2.9369539
0.001146677
0.0009344952
0.00075664754
0.00066213036
0.00061264844
0.00058249761
0.0005614292
0.00054563584
0.00053339747
0.00052371905
0.00051594325
0.00050961301
0.00050440178
0.0005000708
0.00049644156
0.00049337813
0.00049077361
0.00048855272
0.00048660787
0.00048510813
0.00048293621
0.00048514736
0.00046833002
0.0012854137
15.181109
18.849624
15.613812
13.564559
12.367285
11.517411
10.844644
10.290616
9.8255833
9.4283251
9.0833417
8.7798228
8.5103191
8.2689566
8.0506583
7.8517123
7.6693706
7.5012345
7.3453829
7.2002562
7.0645511
6.9371946
6.8172424
6.7039208
6.5965775
6.494616
6.3975677
6.3050099
6.2165211
6.1317618
6.0504367
5.9722506
5.8969432
5.8243117
5.7541654
5.686307
5.6205747
5.5568387
5.4949653
5.4348148
5.3762738
5.3192514
5.2636536
5.2093787
5.156338
5.1044664
5.0537015
5.0039661
4.9551846
4.9073092
4.860295
4.8140854
4.7686222
4.7238555
4.6797518
4.6362758
4.5933801
4.5510157
4.5091523
4.4677634
4.4268149
4.3862672
4.346082
4.3062386
4.2667152
4.2274783
4.1884925
4.1497312
4.1111756
4.0728019
4.0345763
3.9964655
3.9584512
3.9205144
3.8826224
3.8447418
3.8068523
3.7689349
3.730957
3.6928834
3.6546885
3.6163498
3.577831
3.5390919
3.5001053
3.4608395
3.4212496
3.3812892
3.3409309
3.3010059
3.2627607
3.2265271
3.1921365
3.1594308
3.1282722
3.0985427
3.0701331
3.0429385
3.0168653
2.9918362
2.9677783
2.9446196
2.9222935
2.9007335
2.8798926
2.8596802
2.8400983
2.8208562
2.802314
2.7830973
2.7661101
2.738727
0.0011265034
0.00091880736
0.00074329888
0.00064907792
0.00059948584
0.00056926806
0.00054818386
0.00053239045
0.000520153
0.00051047328
0.00050269392
0.00049635825
0.00049114
0.00048680059
0.00048316159
0.00048008716
0.00047747037
0.00047523599
0.00047327663
0.00047175847
0.00046957788
0.00047177462
0.00045460023
0.0011972626
12.692174
17.444606
14.524456
12.566
11.431882
10.636878
10.011872
9.498869
9.0690059
8.7022125
8.3839653
8.1041493
7.8557973
7.6334584
7.432444
7.2493018
7.0814812
6.9267698
6.7833883
6.6498944
6.5250845
6.4079668
6.2976705
6.1934801
6.0947941
6.001063
5.911853
5.8267745
5.7454405
5.6675368
5.5927917
5.520934
5.4517239
5.3849739
5.3205088
5.2581476
5.1977406
5.1391681
5.0823074
5.0270305
4.9732324
4.9208294
4.8697353
4.8198568
4.771112
4.7234409
4.6767862
4.6310772
4.5862443
4.5422431
4.4990326
4.4565608
4.4147744
4.3736273
4.3330884
4.2931255
4.2536952
4.2147523
4.1762687
4.1382202
4.1005755
4.0632983
4.0263532
3.9897211
3.9533819
3.917305
3.8814577
3.8458154
3.8103609
3.7750723
3.7399186
3.7048691
3.6699067
3.635014
3.6001611
3.5653171
3.5304631
3.4955816
3.4606429
3.4256142
3.390472
3.3551955
3.3197512
3.2841021
3.248223
3.2120847
3.1756457
3.1388631
3.1017116
3.0649563
3.0297449
2.9963831
2.964716
2.9345984
2.9059035
2.8785228
2.8523563
2.8273072
2.8032897
2.7802326
2.7580689
2.7367324
2.7161619
2.6962962
2.677092
2.6584658
2.6404199
2.6226856
2.605596
2.587882
2.5722229
2.5469758
0.0011041054
0.00090144463
0.00072864871
0.0006348211
0.00058512846
0.00055484358
0.00053374617
0.00051795639
0.00050572311
0.00049604454
0.00048826334
0.00048192338
0.0004766988
0.00047235129
0.00046870259
0.00046561697
0.00046298751
0.00046073904
0.0004587645
0.00045722675
0.00045503763
0.00045721471
0.00043969156
0.001101523
10.378976
16.051857
13.492612
11.626665
10.551096
9.8069489
9.2263963
8.7516529
8.354615
8.0162653
7.7229866
7.465312
7.2367221
7.032159
6.8472966
6.678926
6.52468
6.3825198
6.2507988
6.1281842
6.0135652
5.9060257
5.8047637
5.7091183
5.6185345
5.5325077
5.4506358
5.3725605
5.2979268
5.2264442
5.1578626
5.0919339
5.028437
4.9671988
4.9080584
4.85085
4.7954355
4.7417045
4.6895446
4.6388386
4.5894894
4.54142
4.4945514
4.4487983
4.4040854
4.3603569
4.3175604
4.2756316
4.2345064
4.1941435
4.1545053
4.1155446
4.0772123
4.0394659
4.0022768
3.9656154
3.9294422
3.8937156
3.8584096
3.823502
3.7889641
3.7547628
3.7208654
3.6872542
3.6539108
3.6208073
3.5879136
3.5552071
3.5226718
3.4902878
3.4580265
3.4258598
3.3937718
3.3617466
3.3297568
3.2977738
3.2657804
3.2337603
3.2016864
3.1695284
3.1372647
3.104876
3.0723316
3.0395976
3.0066504
2.9734634
2.9399982
2.9062155
2.8720916
2.8383295
2.8059835
2.7753347
2.7462408
2.7185688
2.6922024
2.6670421
2.6429961
2.6199757
2.5979022
2.5767101
2.5563382
2.5367256
2.5178161
2.4995536
2.4818984
2.4647737
2.4481818
2.4318753
2.4161611
2.3998715
2.3854704
2.3622462
0.0010794491
0.00088239731
0.00071272531
0.00061941103
0.00056963605
0.00053928702
0.00051818075
0.00050239974
0.00049017511
0.00048050114
0.00047272066
0.00046637824
0.00046114862
0.00045679385
0.00045313592
0.0004500393
0.00044739712
0.0004451343
0.00044314422
0.00044158594
0.00043938915
0.00044153825
0.00042370358
0.0010003013
8.270606
14.667861
12.514403
10.745339
9.7241562
9.0269766
8.4876738
8.0485179
7.6820437
7.3701876
7.100171
6.8631301
6.6529603
6.4649672
6.2951626
6.1405652
5.9989778
5.8685233
5.7476789
5.6352134
5.5301025
5.431501
5.3386704
5.2510006
5.1679806
5.0891467
5.0141271
4.9425923
4.8742168
4.8087327
4.7459097
4.6855209
4.6273632
4.5712765
4.5171134
4.4647224
4.413976
4.3647723
4.3170087
4.270578
4.2253907
4.1813756
4.1384609
4.0965684
4.0556288
4.0155907
3.9764062
3.9380165
3.9003629
3.8634072
3.8271148
3.7914428
3.7563462
3.721786
3.6877357
3.6541682
3.6210476
3.5883358
3.5560086
3.5240456
3.4924209
3.461104
3.430065
3.3992873
3.3687543
3.3384405
3.3083183
3.2783669
3.2485714
3.2189136
3.1893677
3.1599077
3.1305188
3.1011866
3.0718859
3.0425907
3.0132848
2.9839534
2.9545716
2.9251117
2.8955538
2.8658801
2.8360625
2.8060698
2.7758803
2.7454696
2.7148024
2.6838426
2.6525683
2.6216237
2.5919754
2.5638811
2.5372107
2.5118422
2.4876694
2.4646011
2.4425533
2.4214448
2.4012035
2.3817697
2.363087
2.3450999
2.3277568
2.3110063
2.2948121
2.2791039
2.2638838
2.2489249
2.2345086
2.2195644
2.2063509
2.1850358
0.0010525346
0.00086168325
0.00069558293
0.00060292773
0.00055309936
0.00052269326
0.00050158474
0.00048581939
0.00047360939
0.00046394474
0.00045616857
0.00044982642
0.00044459377
0.00044023323
0.00043656713
0.00043346021
0.00043080573
0.00042852874
0.00042652319
0.00042494376
0.00042274113
0.00042484944
0.00040677916
0.00089635522
6.3898139
13.29012
11.584718
9.9204121
8.9501186
8.2961859
7.7950426
7.3889002
7.0508127
6.763573
6.515175
6.2973142
6.1042703
5.9316839
5.7758809
5.6340923
5.5042786
5.3847125
5.2739863
5.1709635
5.0747
4.9844162
4.8994329
4.8191872
4.7432087
4.6710721
4.6024334
4.5369898
4.4744436
4.4145472
4.3570893
4.3018624
4.2486803
4.1973948
4.147871
4.0999707
4.0535765
4.0085942
3.9649303
3.9224869
3.8811816
3.8409487
3.8017227
3.7634323
3.7260139
3.68942
3.6536066
3.6185206
3.5841081
3.5503336
3.5171654
3.4845646
3.4524901
3.4209061
3.3897879
3.359111
3.3288427
3.2989481
3.2694049
3.2401942
3.2112926
3.1826723
3.1543059
3.1261779
3.0982731
3.0705685
3.0430388
3.0156646
2.9884325
2.9613259
2.9343211
2.9073944
2.880532
2.8537207
2.8269379
2.8001593
2.7733702
2.7465571
2.7196971
2.692765
2.6657423
2.6386128
2.6113509
2.5839277
2.5563236
2.5285159
2.5004726
2.4721603
2.443559
2.4152579
2.3881409
2.362444
2.3380481
2.3148422
2.2927288
2.2716249
2.2514536
2.2321409
2.2136207
2.1958386
2.178743
2.1622833
2.1464122
2.1310829
2.1162621
2.1018855
2.0879551
2.0742635
2.0610677
2.0473899
2.0352936
2.0157742
0.0010233999
0.0008393502
0.00067730202
0.00058547989
0.00053564014
0.00050518925
0.00048408789
0.00046834723
0.00045615961
0.00044651052
0.00043874354
0.00043240543
0.00042717271
0.00042280868
0.00041913618
0.00041602032
0.00041335456
0.00041106413
0.00040904374
0.00040744293
0.00040523762
0.00040728612
0.00038910472
0.00079293804
4.753256
11.917235
10.697214
9.1497419
8.2277823
7.6136012
7.147658
6.7720618
6.4602742
6.1958508
5.9674939
5.7674169
5.5902549
5.4319566
5.2891385
5.1592302
5.0403376
4.9308719
4.8295328
4.7352711
4.6472171
4.5646521
4.486952
4.4135974
4.3441556
4.2782367
4.2155229
4.1557357
4.0986033
4.0438972
3.991423
3.9409918
3.8924325
3.8456086
3.8003963
3.7566698
3.7143211
3.6732633
3.633411
3.5946751
3.5569798
3.5202645
3.4844693
3.4495297
3.4153872
3.3819978
3.3493213
3.3173096
3.2859136
3.2551001
3.2248402
3.1950986
3.1658379
3.1370252
3.1086376
3.0806528
3.0530412
3.025771
2.9988214
2.9721751
2.945811
2.9197036
2.8938281
2.8681699
2.8427151
2.817443
2.7923304
2.7673596
2.7425181
2.7177909
2.6931564
2.6685929
2.6440877
2.6196288
2.5951955
2.5707658
2.5463259
2.5218636
2.4973581
2.4727862
2.4481311
2.4233778
2.398503
2.3734804
2.3482918
2.3229166
2.2973255
2.2714879
2.2453855
2.2195559
2.194806
2.1713512
2.149083
2.1279001
2.1077136
2.0884477
2.0700326
2.0524006
2.0354916
2.0192557
2.0036461
1.9886165
1.974124
1.9601257
1.9465912
1.9334621
1.92074
1.908236
1.8961837
1.8836936
1.8726447
1.8548079
0.00099212376
0.000815477
0.00065798788
0.00056720279
0.000517409
0.00048693201
0.00046585055
0.00045014603
0.00043799062
0.00042836506
0.00042061361
0.00041428462
0.00040905587
0.00040469161
0.00040101535
0.00039789268
0.0003952174
0.00039291493
0.000390881
0.00038925906
0.0003870559
0.0003890177
0.00037090759
0.00069352201
3.3720904
10.54762
9.8453109
8.430546
7.5556172
6.9780012
6.5444525
6.197054
5.9095783
5.6662542
5.4564316
5.2728035
5.1103331
4.9652519
4.8344446
4.7155259
4.6067364
4.5066148
4.4139603
4.3278047
4.2473472
4.1719251
4.1009652
4.0339886
3.9705973
3.9104343
3.8532059
3.7986561
3.7465369
3.6966375
3.6487792
3.6027899
3.5585132
3.5158226
3.4746051
3.4347462
3.3961466
3.358726
3.3224067
3.2871076
3.2527591
3.2193051
3.1866913
3.154859
3.1237547
3.0933375
3.0635709
3.0344112
3.0058138
2.9777478
2.9501866
2.9230985
2.8964493
2.870209
2.8443562
2.8188707
2.7937257
2.7688924
2.7443513
2.7200868
2.6960794
2.6723064
2.6487448
2.6253812
2.602203
2.5791913
2.5563251
2.533588
2.5109687
2.4884533
2.4660226
2.4436565
2.4213433
2.399072
2.376824
2.3545792
2.3323249
2.3100497
2.287735
2.2653597
2.242908
2.2203665
2.197714
2.1749265
2.1519871
2.1288772
2.1055701
2.0820378
2.0582634
2.0347366
2.0121926
1.9908276
1.9705426
1.9512456
1.9328557
1.9153039
1.8985265
1.8824621
1.8670558
1.8522624
1.8380392
1.8243441
1.8111379
1.7983817
1.7860479
1.7740831
1.7624889
1.7510939
1.7401094
1.728729
1.7186585
1.702393
0.00095882647
0.00079017341
0.00063776755
0.00054825405
0.00049858103
0.00046810423
0.00044705923
0.00043140503
0.00041929387
0.00040970173
0.00040197382
0.00039566043
0.00039044094
0.00038608082
0.00038240443
0.00037927802
0.0003765958
0.00037428348
0.0003722381
0.00037059584
0.00036840162
0.00037024048
0.00035245074
0.00060141987
2.2544593
9.1798718
9.0218267
7.7592694
6.9317063
6.3878905
5.9841175
5.6627016
5.3976577
5.1738064
4.9810884
4.8126403
4.6637288
4.5308448
4.4111196
4.3023408
4.2028735
4.1113735
4.0267324
3.9480565
3.8746086
3.8057781
3.7410385