/*--------------------------------*- C++ -*----------------------------------*\
  =========                 |
  \\      /  F ield         | OpenFOAM: The Open Source CFD Toolbox
   \\    /   O peration     | Website:  https://openfoam.org
    \\  /    A nd           | Version:  12
     \\/     M anipulation  |
\*---------------------------------------------------------------------------*/
FoamFile
{
    format      ascii;
    class       volScalarField;
    location    "2000";
    object      k;
}
// * * * * * * * * * * * * * * * * * * * * * * * * * * * * * * * * * * * * * //

dimensions      [0 2 -2 0 0 0 0];

internalField   nonuniform List<scalar> 
13056
(
0.00012026435
8.4632039e-05
6.8267282e-05
6.0506467e-05
5.607315e-05
5.3080196e-05
5.087931e-05
4.919419e-05
4.7871517e-05
4.6813183e-05
4.5952624e-05
4.5243179e-05
4.465125e-05
4.4152026e-05
4.3726796e-05
4.3361041e-05
4.3043689e-05
4.2764587e-05
4.2520513e-05
4.2289749e-05
4.2123701e-05
4.1822133e-05
4.1909448e-05
4.0419708e-05
0.00016645435
0.00020613013
0.00019115237
0.00017606922
0.00016484186
0.00015571576
0.00014796486
0.00014134274
0.00013565701
0.00013071853
0.00012637446
0.00012251393
0.000119057
0.0001159374
0.00011309744
0.0001104947
0.00010809691
0.00010587584
0.00010380864
0.00010187652
0.00010006374
9.8357227e-05
9.6745421e-05
9.521877e-05
9.3769166e-05
9.2389329e-05
9.1073407e-05
8.9816e-05
8.8611821e-05
8.745651e-05
8.634621e-05
8.5277163e-05
8.4246085e-05
8.3250326e-05
8.2287389e-05
8.1354777e-05
8.0450412e-05
7.9572563e-05
7.8719467e-05
7.7889343e-05
7.7080709e-05
7.6292331e-05
7.5522957e-05
7.4771276e-05
7.4036138e-05
7.3316651e-05
7.2611956e-05
7.1921053e-05
7.1242971e-05
7.057704e-05
6.9922631e-05
6.9279001e-05
6.8645391e-05
6.802114e-05
6.7405767e-05
6.679878e-05
6.6199559e-05
6.5607466e-05
6.5022067e-05
6.4442981e-05
6.3869752e-05
6.3301856e-05
6.2738789e-05
6.2180239e-05
6.1625891e-05
6.1075305e-05
6.0528011e-05
5.9983635e-05
5.9441897e-05
5.8902465e-05
5.8364889e-05
5.7828721e-05
5.7293678e-05
5.6759483e-05
5.6225704e-05
5.5691888e-05
5.5157728e-05
5.4622944e-05
5.4087098e-05
5.3549702e-05
5.3010383e-05
5.2468805e-05
5.1924473e-05
5.1376832e-05
5.082547e-05
5.0269934e-05
4.9709602e-05
4.9143823e-05
4.8572171e-05
4.8006405e-05
4.7464252e-05
4.6950455e-05
4.6462636e-05
4.5998585e-05
4.5556365e-05
4.5134312e-05
4.4730893e-05
4.4344642e-05
4.3974245e-05
4.3618602e-05
4.327669e-05
4.2947506e-05
4.2630113e-05
4.2323592e-05
4.2027257e-05
4.1739915e-05
4.1461454e-05
4.1188281e-05
4.0924486e-05
4.0653115e-05
4.0411726e-05
4.0022218e-05
0.00012027268
8.4644636e-05
6.8278233e-05
6.0515311e-05
5.6080562e-05
5.3086651e-05
5.0885058e-05
4.9199377e-05
4.7876245e-05
4.6817529e-05
4.5956646e-05
4.5246926e-05
4.465476e-05
4.4155329e-05
4.3729918e-05
4.3364002e-05
4.3046506e-05
4.2767273e-05
4.2523078e-05
4.2292199e-05
4.2126048e-05
4.1824367e-05
4.1911955e-05
4.0413608e-05
0.0018122308
0.0022317565
0.0020722971
0.001911626
0.0017917691
0.0016941662
0.0016111402
0.0015401075
0.0014790458
0.0014259535
0.0013792082
0.0013376319
0.0013003746
0.0012667304
0.0012360834
0.0012079806
0.0011820774
0.0011580716
0.0011357191
0.0011148184
0.001095201
0.0010767267
0.0010592717
0.0010427333
0.0010270246
0.0010120675
0.00099779906
0.0009841614
0.00097109758
0.00095856077
0.00094650946
0.00093490321
0.00092370663
0.00091289121
0.00090243009
0.00089229634
0.00088246756
0.00087292511
0.00086365
0.00085462299
0.00084582809
0.00083725202
0.00082888125
0.00082070162
0.0008127007
0.00080486888
0.00079719688
0.00078967388
0.00078228937
0.00077503611
0.00076790732
0.00076089494
0.00075399076
0.00074718761
0.0007404803
0.0007338635
0.00072733048
0.00072087432
0.00071449032
0.00070817436
0.00070192146
0.00069572596
0.00068958237
0.0006834873
0.00067743733
0.00067142768
0.00066545322
0.0006595099
0.00065359466
0.00064770388
0.00064183267
0.00063597612
0.00063013116
0.00062429475
0.0006184622
0.00061262853
0.00060679041
0.00060094476
0.00059508679
0.00058921116
0.00058331379
0.000577391
0.00057143734
0.00056544675
0.00055941471
0.00055333623
0.0005472045
0.00054101236
0.00053475513
0.00052856153
0.00052262568
0.0005169996
0.00051165736
0.00050657485
0.00050173095
0.00049710748
0.00049268773
0.00048845568
0.00048439698
0.00048049963
0.00047675245
0.00047314447
0.00046966547
0.0004663054
0.00046305675
0.00045990649
0.00045685339
0.00045385808
0.00045096541
0.00044798948
0.00044534218
0.00044107017
0.00012029832
8.4681339e-05
6.8308611e-05
6.0538809e-05
5.6099549e-05
5.3102631e-05
5.0898804e-05
4.9211347e-05
4.7886758e-05
4.6826828e-05
4.5964922e-05
4.5254328e-05
4.466141e-05
4.4161325e-05
4.3735339e-05
4.3368911e-05
4.3050956e-05
4.2771304e-05
4.2526724e-05
4.2295479e-05
4.2128996e-05
4.1826923e-05
4.1915016e-05
4.0400365e-05
0.0039011652
0.0047305825
0.0044080404
0.00408472
0.0038424489
0.0036442629
0.0034749541
0.0033295326
0.0032040842
0.003094667
0.0029980601
0.0029119181
0.0028345472
0.0027645331
0.0027006331
0.0026419332
0.0025877379
0.0025374347
0.0024905276
0.0024466071
0.00240533
0.0023664105
0.0023295951
0.0022946745
0.0022614705
0.0022298229
0.0021996031
0.0021706922
0.0021429727
0.0021163484
0.0020907337
0.0020660448
0.0020422087
0.0020191665
0.0019968625
0.001975241
0.0019542555
0.0019338673
0.0019140372
0.0018947249
0.0018758972
0.0018575265
0.0018395847
0.0018220421
0.0018048726
0.0017880564
0.001771574
0.0017554027
0.0017395203
0.0017239119
0.0017085631
0.0016934571
0.0016785764
0.001663906
0.0016494349
0.0016351519
0.0016210428
0.0016070928
0.001593292
0.0015796318
0.0015661014
0.0015526888
0.0015393823
0.0015261747
0.0015130587
0.001500024
0.0014870596
0.0014741568
0.0014613091
0.0014485085
0.0014357445
0.0014230066
0.001410288
0.0013975822
0.0013848788
0.0013721671
0.0013594398
0.0013466902
0.0013339076
0.0013210805
0.0013081998
0.0012952573
0.0012822412
0.0012691379
0.0012559376
0.0012426289
0.001229197
0.0012156258
0.001201905
0.0011883166
0.0011752872
0.0011629317
0.0011511943
0.0011400226
0.0011293709
0.0011192
0.0011094734
0.0011001565
0.0010912181
0.0010826321
0.0010743743
0.0010664207
0.0010587492
0.0010513377
0.00104417
0.0010372174
0.0010304774
0.0010238633
0.0010174742
0.0010108994
0.0010050494
0.00099560621
0.00012034206
8.4743398e-05
6.8359556e-05
6.057792e-05
5.6130943e-05
5.3128883e-05
5.0921231e-05
4.9230731e-05
4.7903648e-05
4.6841639e-05
4.5977979e-05
4.5265891e-05
4.4671684e-05
4.4170479e-05
4.3743506e-05
4.3376203e-05
4.3057459e-05
4.277709e-05
4.2531848e-05
4.2299976e-05
4.2132924e-05
4.1830168e-05
4.1919038e-05
4.0382188e-05
0.0057813967
0.0069358098
0.0064912431
0.0060482317
0.0057153734
0.0054420346
0.0052075772
0.0050054036
0.0048303606
0.0046771794
0.0045415216
0.0044202206
0.0043109892
0.0042119082
0.0041212787
0.0040378506
0.0039606737
0.0038889067
0.0038218673
0.0037589915
0.0036998058
0.0036439156
0.0035909699
0.0035406785
0.0034927949
0.0034470964
0.0034034046
0.0033615542
0.0033213814
0.0032827514
0.003245545
0.0032096447
0.0031749479
0.0031413722
0.0031088397
0.0030772716
0.0030466026
0.0030167787
0.0029877442
0.0029594424
0.0029318262
0.0029048568
0.0028784943
0.0028526965
0.0028274265
0.0028026559
0.0027783573
0.0027544982
0.0027310469
0.0027079819
0.002685283
0.0026629259
0.0026408855
0.00261914
0.0025976739
0.0025764711
0.0025555109
0.0025347718
0.0025142394
0.0024939011
0.0024737417
0.0024537433
0.0024338886
0.0024141672
0.0023945684
0.0023750771
0.0023556769
0.0023363549
0.0023171013
0.0022979045
0.0022787488
0.0022596181
0.0022405024
0.0022213918
0.0022022708
0.002183123
0.0021639372
0.0021447031
0.0021254047
0.0021060241
0.0020865473
0.0020669618
0.002047249
0.0020273883
0.0020073639
0.0019871586
0.0019667489
0.00194611
0.0019252251
0.0019045238
0.0018846567
0.0018658018
0.0018478757
0.0018308008
0.0018145088
0.0017989412
0.0017840439
0.0017697648
0.0017560573
0.0017428824
0.0017302036
0.0017179852
0.0017061936
0.0016947958
0.0016837672
0.0016730643
0.0016626838
0.0016524922
0.0016426429
0.0016325023
0.0016234757
0.001608897
0.00012040512
8.4832745e-05
6.843284e-05
6.0634141e-05
5.6176044e-05
5.3166573e-05
5.0953411e-05
4.9258527e-05
4.7927849e-05
4.6862844e-05
4.5996657e-05
4.5282413e-05
4.4686349e-05
4.4183527e-05
4.3755133e-05
4.3386566e-05
4.3066688e-05
4.2785283e-05
4.2539087e-05
4.2306309e-05
4.2138434e-05
4.1834692e-05
4.192467e-05
4.0360628e-05
0.0072332465
0.0086669984
0.0081382925
0.0076133989
0.0072191735
0.0068949665
0.0066162984
0.0063754608
0.0061664895
0.0059832506
0.005820672
0.0056750462
0.0055436961
0.0054243709
0.0053150687
0.0052143154
0.0051209918
0.0050341042
0.0049528457
0.0048765489
0.0048046527
0.0047366897
0.0046722432
0.0046109686
0.0045525733
0.0044967922
0.0044434137
0.0043922412
0.004343079
0.0042957665
0.0042501614
0.0042061232
0.0041635289
0.0041222803
0.0040822842
0.0040434459
0.0040056872
0.0039689434
0.0039331479
0.0038982322
0.0038641397
0.0038308238
0.0037982367
0.0037663272
0.0037350507
0.0037043731
0.0036742615
0.0036446763
0.003615579
0.0035869436
0.0035587458
0.0035309559
0.0035035434
0.0034764817
0.0034497519
0.0034233343
0.0033972037
0.0033713335
0.0033457062
0.0033203064
0.0032951151
0.0032701104
0.0032452709
0.0032205836
0.0031960354
0.0031716073
0.003147279
0.0031230343
0.003098861
0.0030747445
0.0030506649
0.0030266021
0.0030025434
0.0029784761
0.0029543806
0.002930236
0.002906028
0.0028817434
0.0028573616
0.0028328595
0.0028082193
0.0027834245
0.0027584513
0.0027332728
0.0027078686
0.002682216
0.0026562844
0.0026300414
0.002603465
0.0025771013
0.0025517803
0.002527731
0.00250485
0.0024830402
0.0024622166
0.002442306
0.0024232407
0.0024049557
0.0023873925
0.0023705021
0.002354239
0.0023385581
0.0023234172
0.0023087746
0.0022945995
0.0022808364
0.0022674818
0.002254364
0.0022416814
0.0022286174
0.0022169839
0.0021981847
0.00012048911
8.4951992e-05
6.8530879e-05
6.0709527e-05
5.6236646e-05
5.3217325e-05
5.099684e-05
4.9296129e-05
4.7960673e-05
4.6891686e-05
4.602214e-05
4.5305031e-05
4.4706498e-05
4.4201526e-05
4.3771242e-05
4.3400994e-05
4.3079605e-05
4.2796823e-05
4.2549357e-05
4.2315374e-05
4.2146406e-05
4.1841356e-05
4.1932855e-05
4.0337079e-05
0.0082909079
0.010018987
0.0094329912
0.0088490207
0.0084109757
0.0080505787
0.0077404687
0.0074721078
0.007238953
0.0070342646
0.0068524542
0.0066894323
0.0065422459
0.0064084115
0.0062857147
0.0061725218
0.0060675941
0.0059698309
0.0058783367
0.0057923707
0.0057113104
0.0056346361
0.005561885
0.0054926737
0.0054266768
0.0053635994
0.0053032062
0.0052452783
0.0051895975
0.0051359847
0.0050842812
0.0050343302
0.0049859942
0.0049391635
0.004893734
0.0048496
0.0048066739
0.0047648833
0.0047241539
0.0046844087
0.0046455843
0.0046076287
0.0045704881
0.0045341051
0.0044984295
0.0044634232
0.004429049
0.0043952626
0.0043620205
0.0043292933
0.0042970537
0.0042652684
0.0042339027
0.0042029266
0.0041723187
0.0041420569
0.0041121123
0.004082455
0.004053065
0.0040239247
0.0039950127
0.0039663038
0.0039377737
0.0039094075
0.0038811902
0.0038531002
0.0038251139
0.0037972128
0.0037693828
0.0037416073
0.0037138631
0.003686127
0.0036583842
0.00363062
0.0036028117
0.0035749349
0.0035469729
0.0035189101
0.0034907226
0.0034623834
0.0034338713
0.0034051671
0.0033762427
0.0033470664
0.0033176141
0.0032878589
0.0032577647
0.0032272931
0.0031964176
0.0031657724
0.0031363234
0.0031083388
0.0030817001
0.0030562963
0.0030320297
0.0030088167
0.0029865795
0.0029652433
0.002944741
0.0029250162
0.0029060166
0.0028876903
0.0028699887
0.0028528636
0.0028362794
0.0028201718
0.002804537
0.0027891745
0.0027743169
0.0027590071
0.0027453697
0.0027233239
0.00012059604
8.5104413e-05
6.865675e-05
6.0806722e-05
5.6315077e-05
5.3283256e-05
5.105348e-05
4.934538e-05
4.8003864e-05
4.6929826e-05
4.6056017e-05
4.5335271e-05
4.4733604e-05
4.4225904e-05
4.379322e-05
4.3420839e-05
4.3097531e-05
4.2813e-05
4.2563923e-05
4.232841e-05
4.2158052e-05
4.1851347e-05
4.1944901e-05
4.0313085e-05
0.0090279377
0.011095898
0.010474047
0.0098456763
0.0093747145
0.0089871574
0.0086534287
0.0083643628
0.008112989
0.0078921238
0.0076957975
0.0075196352
0.0073604767
0.0072156657
0.0070828307
0.0069602176
0.0068464977
0.0067404909
0.0066412348
0.0065479339
0.0064599191
0.0063766318
0.0062975743
0.006222334
0.0061505611
0.0060819382
0.0060162118
0.0059531464
0.005892507
0.0058341003
0.0057777554
0.0057233032
0.0056705951
0.0056195129
0.0055699443
0.0055217751
0.0054749106
0.0054292727
0.0053847811
0.0053413527
0.0052989188
0.005257423
0.0052168074
0.0051770098
0.0051379757
0.0050996638
0.0050620339
0.005025038
0.0049886287
0.0049527743
0.0049174452
0.004882605
0.0048482162
0.0048142459
0.004780671
0.0047474675
0.0047146038
0.0046820473
0.0046497761
0.0046177711
0.0045860088
0.0045544619
0.0045231034
0.0044919172
0.0044608867
0.0044299883
0.0043991961
0.0043684897
0.0043378536
0.0043072693
0.0042767114
0.0042461543
0.0042155815
0.0041849768
0.0041543149
0.0041235688
0.0040927201
0.0040617512
0.0040306355
0.003999343
0.0039678502
0.0039361354
0.0039041672
0.0038719103
0.0038393376
0.0038064188
0.0037731136
0.0037393789
0.0037051848
0.0036712333
0.0036385951
0.0036075692
0.0035780255
0.003549842
0.0035229119
0.003497143
0.0034724502
0.0034487511
0.0034259719
0.0034040509
0.0033829302
0.0033625528
0.0033428652
0.0033238141
0.0033053605
0.0032874331
0.003270028
0.0032529222
0.003236375
0.0032193204
0.0032041257
0.0031795552
0.00012072826
8.5293938e-05
6.8814203e-05
6.0928993e-05
5.6414243e-05
5.3367026e-05
5.1125818e-05
4.9408627e-05
4.8059655e-05
4.69794e-05
4.6100344e-05
4.5375121e-05
4.4769595e-05
4.4258535e-05
4.3822895e-05
4.3447886e-05
4.3122216e-05
4.283553e-05
4.2584466e-05
4.2347069e-05
4.2175e-05
4.1866261e-05
4.1962564e-05
4.0290552e-05
0.0095041282
0.011969834
0.011331133
0.010668982
0.010172557
0.0097639116
0.0094117788
0.0091065309
0.0088408819
0.0086073187
0.008399583
0.0082130808
0.0080444902
0.0078910225
0.0077501872
0.0076201351
0.0074994673
0.0073869429
0.0072815471
0.0071824413
0.0070889206
0.0070003957
0.0069163419
0.0068363235
0.0067599714
0.006686951
0.0066169943
0.0065498528
0.0064852785
0.0064230667
0.0063630368
0.0063050102
0.0062488298
0.0061943702
0.0061415129
0.0060901371
0.0060401424
0.0059914462
0.0059439635
0.0058976064
0.0058523019
0.0058079903
0.0057646103
0.005722096
0.0056803894
0.0056394468
0.0055992256
0.0055596749
0.0055207442
0.0054823999
0.0054446104
0.0054073373
0.0053705406
0.0053341852
0.0052982466
0.0052626991
0.0052275093
0.0051926423
0.0051580746
0.0051237861
0.0050897516
0.0050559418
0.005022328
0.0049888928
0.0049556187
0.0049224801
0.0048894495
0.0048565049
0.0048236297
0.004790804
0.0047580005
0.0047251916
0.0046923596
0.004659487
0.0046265466
0.0045935092
0.0045603549
0.0045270646
0.0044936097
0.0044599577
0.004426083
0.0043919621
0.004357561
0.0043228414
0.0042877738
0.0042523253
0.0042164521
0.0041801073
0.0041432582
0.0041066611
0.0040714708
0.0040380105
0.0040061412
0.0039757323
0.0039466692
0.0039188534
0.0038921937
0.0038666018
0.0038419984
0.0038183175
0.003795497
0.0037734757
0.0037521961
0.0037316011
0.0037116487
0.0036922622
0.0036734375
0.0036549337
0.0036370314
0.003618578
0.0036021338
0.0035755373
0.00012088846
8.5525133e-05
6.9007691e-05
6.1080276e-05
5.6537679e-05
5.3471905e-05
5.1216929e-05
4.9488793e-05
4.8130844e-05
4.7043102e-05
4.6157726e-05
4.542711e-05
4.4816934e-05
4.4301824e-05
4.3862622e-05
4.3484445e-05
4.3155926e-05
4.2866642e-05
4.2613183e-05
4.2373515e-05
4.2199381e-05
4.1888186e-05
4.1988149e-05
4.0271896e-05
0.0097619095
0.01268713
0.012050027
0.011362615
0.010846283
0.010420982
0.010054209
0.0097360229
0.0094589138
0.0092151271
0.0089981861
0.0088033269
0.008627099
0.0084666115
0.008319282
0.0081831853
0.0080568661
0.0079390362
0.007828639
0.0077248016
0.0076267901
0.0075339911
0.007445858
0.0073619367
0.0072818426
0.0072052275
0.0071318115
0.0070613357
0.0069935415
0.0069282152
0.0068651682
0.0068042143
0.0067451896
0.0066879627
0.0066324101
0.0065784058
0.0065258448
0.0064746407
0.0064247047
0.006375945
0.0063282853
0.006281663
0.0062360141
0.0061912697
0.0061473692
0.0061042664
0.0060619172
0.006020268
0.0059792662
0.0059388762
0.0058990652
0.0058597928
0.005821017
0.0057827013
0.0057448195
0.0057073449
0.0056702425
0.0056334755
0.0055970192
0.0055608524
0.0055249487
0.0054892773
0.0054538079
0.0054185222
0.0053834016
0.0053484194
0.0053135465
0.0052787595
0.0052440408
0.0052093696
0.005174717
0.0051400539
0.0051053612
0.0050706206
0.0050358033
0.0050008783
0.0049658243
0.0049306213
0.0048952387
0.004859642
0.0048238041
0.0047876997
0.0047512929
0.0047145429
0.004677418
0.0046398834
0.0046018921
0.0045633943
0.004524355
0.0044855752
0.004448279
0.0044128098
0.0043790211
0.0043467753
0.0043159515
0.0042864459
0.0042581623
0.0042310074
0.0042048977
0.0041797634
0.004155539
0.00413216
0.0041095655
0.0040876951
0.0040665045
0.0040459126
0.0040259151
0.0040062566
0.0039872345
0.0039676263
0.0039501498
0.0039218783
0.00012107957
8.5803185e-05
6.9242388e-05
6.1265221e-05
5.6689611e-05
5.3601833e-05
5.1330548e-05
4.9589454e-05
4.8220877e-05
4.712427e-05
4.6231407e-05
4.54944e-05
4.4878713e-05
4.4358802e-05
4.3915376e-05
4.3533443e-05
4.3201545e-05
4.2909182e-05
4.2652882e-05
4.2410522e-05
4.2233939e-05
4.1919805e-05
4.2024627e-05
4.026018e-05
0.0098308848
0.013276916
0.01266083
0.011955622
0.011423854
0.010985368
0.010606862
0.010278223
0.0099917987
0.009739665
0.0095151846
0.0093134629
0.0091309475
0.0089646678
0.0088119722
0.0086708733
0.0085398706
0.0084176392
0.0083030883
0.0081953176
0.00809357
0.0079972123
0.0079056806
0.0078185055
0.0077352898
0.0076556747
0.0075793701
0.0075061087
0.0074356237
0.0073676934
0.0073021228
0.0072387197
0.0071773143
0.0071177705
0.0070599606
0.0070037543
0.0069490429
0.0068957366
0.0068437438
0.0067929694
0.0067433343
0.0066947735
0.0066472206
0.0066006045
0.0065548622
0.0065099458
0.0064658094
0.0064223978
0.0063796561
0.0063375474
0.0062960375
0.0062550848
0.0062146456
0.0061746817
0.006135166
0.0060960708
0.0060573597
0.0060189945
0.0059809494
0.0059432021
0.0059057254
0.0058684872
0.005831456
0.0057946125
0.0057579373
0.0057214027
0.0056849782
0.0056486394
0.0056123681
0.0055761421
0.0055399317
0.005503706
0.0054674454
0.0054311305
0.005394731
0.0053582148
0.0053215593
0.0052847434
0.0052477351
0.0052104984
0.0051730045
0.0051352271
0.0050971281
0.0050586649
0.005019804
0.0049805087
0.0049407296
0.0049004144
0.0048595259
0.0048189031
0.0047798285
0.0047426627
0.0047072528
0.0046734552
0.004641144
0.0046102107
0.0045805549
0.0045520793
0.0045246966
0.0044983339
0.0044729229
0.0044483961
0.0044246901
0.0044017415
0.0043795042
0.0043578932
0.0043369041
0.0043162696
0.0042963006
0.0042757177
0.0042573683
0.0042276796
0.00012130478
8.6133872e-05
6.952421e-05
6.1489244e-05
5.6875017e-05
5.3761493e-05
5.1471152e-05
4.9714927e-05
4.8333938e-05
4.7226974e-05
4.6325363e-05
4.5580887e-05
4.4958756e-05
4.4433233e-05
4.3984867e-05
4.3598539e-05
4.326269e-05
4.2966724e-05
4.27071e-05
4.2461591e-05
4.2282144e-05
4.1964494e-05
4.2075765e-05
4.0259267e-05
0.0097322352
0.013756754
0.013183762
0.012467652
0.0119243
0.011475522
0.011087666
0.010750591
0.010456579
0.010197602
0.0099669106
0.0097595147
0.0095717814
0.0094006797
0.0092435071
0.0090982265
0.0089633004
0.0088373761
0.0087193354
0.0086082555
0.0085033613
0.0084040029
0.0083096031
0.0082196795
0.008133825
0.0080516721
0.0079729224
0.0078973015
0.0078245362
0.0077543979
0.0076866862
0.0076212042
0.0075577773
0.0074962652
0.0074365367
0.0073784585
0.0073219181
0.0072668234
0.00721308
0.0071605905
0.0071092732
0.007059061
0.0070098858
0.0069616745
0.0069143623
0.0068678994
0.0068222387
0.0067773234
0.0067330973
0.0066895218
0.0066465617
0.0066041742
0.0065623144
0.0065209429
0.0064800314
0.0064395514
0.0063994655
0.0063597343
0.0063203309
0.0062812324
0.0062424105
0.0062038322
0.006165465
0.0061272886
0.0060892832
0.0060514199
0.0060136674
0.0059760003
0.0059383995
0.0059008422
0.0058632975
0.0058257336
0.0057881297
0.0057504658
0.0057127107
0.0056748307
0.0056368025
0.005598604
0.005560202
0.005521559
0.0054826449
0.0054434323
0.0054038818
0.0053639487
0.0053235982
0.0052827918
0.0052414784
0.005199603
0.0051571269
0.0051149213
0.0050743194
0.0050356964
0.0049988938
0.0049637632
0.0049301739
0.0048980137
0.0048671786
0.0048375678
0.0048090909
0.0047816722
0.0047552412
0.0047297276
0.0047050658
0.0046811902
0.0046580528
0.0046355655
0.0046137236
0.0045922502
0.0045714668
0.0045500475
0.0045309475
0.0045000389
0.00012156745
8.6523524e-05
6.985983e-05
6.1758565e-05
5.7099687e-05
5.3956384e-05
5.1644036e-05
4.9870349e-05
4.8475036e-05
4.7356118e-05
4.6444407e-05
4.5691303e-05
4.5061729e-05
4.4529718e-05
4.4075643e-05
4.3684237e-05
4.334382e-05
4.3043688e-05
4.278022e-05
4.2531074e-05
4.2348314e-05
4.2026429e-05
4.2146262e-05
4.0273672e-05
0.0094818922
0.014136446
0.013632438
0.012912231
0.012360838
0.01190432
0.011509173
0.011165383
0.010865247
0.01060069
0.0103649
0.010152819
0.0099607549
0.0097856332
0.0096247166
0.0094759287
0.0093377026
0.0092086655
0.0090876773
0.0089737976
0.0088662365
0.0087643315
0.0086674944
0.0085752325
0.0084871305
0.0084028141
0.0083219781
0.0082443422
0.0081696281
0.0080976015
0.0080280573
0.007960795
0.007895636
0.0078324364
0.0077710621
0.0077113772
0.0076532666
0.0075966355
0.0075413876
0.0074874236
0.0074346595
0.0073830266
0.007332455
0.0072828703
0.0072342059
0.0071864108
0.0071394364
0.007093225
0.0070477188
0.0070028781
0.0069586669
0.0069150412
0.0068719552
0.0068293684
0.0067872515
0.0067455754
0.0067043017
0.00666339
0.0066228126
0.0065825458
0.0065425607
0.0065028235
0.0064633006
0.0064239711
0.0063848144
0.0063458012
0.006306899
0.0062680818
0.0062293297
0.0061906192
0.0061519187
0.0061131952
0.0060744274
0.0060355943
0.0059966639
0.0059576016
0.0059183829
0.0058789852
0.0058393742
0.0057995111
0.0057593647
0.0057189066
0.005678096
0.0056368868
0.0055952429
0.0055531242
0.005510478
0.0054672472
0.0054233916
0.0053798106
0.0053378811
0.0052979912
0.0052599777
0.0052236879
0.0051889871
0.0051557597
0.0051238987
0.0050933004
0.0050638714
0.0050355339
0.005008215
0.0049818426
0.0049563489
0.0049316664
0.0049077454
0.0048844954
0.0048619111
0.004839708
0.0048182154
0.0047960702
0.004776317
0.0047443453
0.00012187102
8.6978965e-05
7.025667e-05
6.2080244e-05
5.7370272e-05
5.4192878e-05
5.1855381e-05
5.0061758e-05
4.8650094e-05
4.7517527e-05
4.6594279e-05
4.5831318e-05
4.5193237e-05
4.4653812e-05
4.4193209e-05
4.3795995e-05
4.3450354e-05
4.3145459e-05
4.2877594e-05
4.262429e-05
4.2437739e-05
4.2110787e-05
4.224177e-05
4.0309424e-05
0.0090938966
0.01441957
0.014015975
0.013298773
0.012742808
0.012280923
0.011880351
0.011531387
0.011226422
0.010957396
0.010717476
0.010501569
0.010305941
0.010127489
0.0099634571
0.0098117382
0.0096707434
0.0095390866
0.0094156107
0.0092993619
0.0091895395
0.0090854707
0.008986559
0.0088923036
0.0088022824
0.0087161166
0.0086334948
0.0085541323
0.0084777466
0.0084040988
0.0083329797
0.0082641861
0.0081975361
0.0081328827
0.0080700896
0.0080090189
0.0079495529
0.0078915948
0.0078350469
0.0077798081
0.0077257926
0.0076729299
0.0076211493
0.0075703749
0.0075205389
0.0074715887
0.0074234749
0.0073761389
0.0073295219
0.0072835828
0.0072382848
0.0071935835
0.0071494318
0.0071057885
0.0070626234
0.0070199068
0.0069775996
0.0069356606
0.0068940611
0.006852777
0.0068117787
0.0067710318
0.0067305018
0.0066901671
0.0066500067
0.0066099907
0.0065700858
0.0065302651
0.0064905083
0.0064507914
0.0064110818
0.0063713459
0.0063315614
0.0062917069
0.0062517496
0.0062116541
0.0061713949
0.0061309488
0.0060902805
0.0060493503
0.006008126
0.005966578
0.0059246647
0.0058823386
0.0058395622
0.0057962945
0.0057524808
0.0057080628
0.0056629985
0.005618212
0.0055751188
0.0055341182
0.005495043
0.0054577365
0.0054220607
0.0053878972
0.0053551361
0.0053236712
0.0052934066
0.0052642626
0.0052361644
0.0052090381
0.0051828141
0.0051574231
0.0051328141
0.0051088945
0.0050856584
0.005062815
0.0050406996
0.0050179195
0.0049975929
0.0049646865
0.00012221898
8.7507435e-05
7.0722877e-05
6.2462195e-05
5.7694323e-05
5.4478269e-05
5.2112313e-05
5.0296159e-05
4.8866019e-05
4.7718026e-05
4.6781734e-05
4.6007627e-05
4.5359922e-05
4.4812107e-05
4.4344118e-05
4.394033e-05
4.3588776e-05
4.327849e-05
4.3005645e-05
4.2747639e-05
4.2556794e-05
4.2223872e-05
4.2368967e-05
4.0373269e-05
0.0085817189
0.014604964
0.014340282
0.013633824
0.013076883
0.012611947
0.012207724
0.011855024
0.011546425
0.011273945
0.011030775
0.010811816
0.010613311
0.010432145
0.010265555
0.010111415
0.0099681196
0.0098342764
0.009708716
0.0095904748
0.0094787446
0.0093728451
0.0092721741
0.009176224
0.0090845681
0.0089968242
0.0089126762
0.0088318356
0.0087540173
0.0086789779
0.0086065053
0.0085363941
0.0084684601
0.0084025533
0.0083385357
0.0082762679
0.0082156304
0.0081565244
0.0080988508
0.0080425075
0.0079874072
0.0079334779
0.0078806477
0.0078288401
0.0077779859
0.0077280314
0.0076789265
0.0076306117
0.0075830275
0.0075361316
0.0074898865
0.0074442473
0.0073991662
0.007354601
0.007310521
0.0072668957
0.0072236857
0.0071808491
0.0071383562
0.0070961825
0.007054298
0.0070126675
0.0069712561
0.0069300414
0.006889002
0.0068481074
0.0068073239
0.0067666238
0.0067259861
0.0066853865
0.0066447917
0.0066041674
0.0065634906
0.0065227394
0.0064818805
0.0064408774
0.0063997041
0.0063583366
0.0063167391
0.0062748707
0.0062326983
0.0061901918
0.0061473082
0.0061039992
0.006060226
0.0060159464
0.0059711047
0.0059256408
0.0058795115
0.0058336625
0.0057895435
0.0057475636
0.005707552
0.0056693487
0.0056328129
0.0055978233
0.0055642679
0.005532038
0.0055010359
0.0054711798
0.0054423935
0.0054146014
0.0053877323
0.0053617156
0.0053364989
0.0053119879
0.005288176
0.0052647679
0.0052421021
0.0052187642
0.0051979315
0.0051641982
0.00012261474
8.8116472e-05
7.1267264e-05
6.2913167e-05
5.8080285e-05
5.4820787e-05
5.2422928e-05
5.0581553e-05
4.9130741e-05
4.7965484e-05
4.7014593e-05
4.6228005e-05
4.5569523e-05
4.5012311e-05
4.4536046e-05
4.4124893e-05
4.3766712e-05
4.3450385e-05
4.3171957e-05
4.2908687e-05
4.2713021e-05
4.2373177e-05
4.2535608e-05
4.0473055e-05
0.0079586458
0.014687812
0.014608855
0.013921817
0.013367839
0.012902218
0.012496095
0.012141055
0.01182997
0.011554999
0.011309406
0.011088118
0.010887374
0.01070406
0.010535424
0.010379329
0.010234159
0.010098522
0.0099712414
0.0098513469
0.0097380265
0.0096305947
0.0095284458
0.0094310677
0.0093380301
0.0092489493
0.0091635052
0.0090814066
0.0090023667
0.0089261386
0.0088525077
0.0087812671
0.008712231
0.008645247
0.0085801754
0.0085168762
0.0084552282
0.0083951308
0.0083364842
0.0082791854
0.0082231457
0.0081682919
0.0081145513
0.0080618467
0.0080101081
0.0079592807
0.0079093135
0.0078601468
0.0078117202
0.0077639905
0.0077169195
0.0076704619
0.0076245694
0.0075791993
0.0075343198
0.0074899001
0.0074459004
0.0074022783
0.0073590034
0.0073160505
0.0072733895
0.0072309846
0.0071888003
0.0071468137
0.0071050029
0.0070633371
0.0070217819
0.0069803093
0.0069388975
0.0068975219
0.0068561487
0.006814743
0.0067732811
0.0067317405
0.0066900876
0.0066482853
0.0066063066
0.0065641271
0.0065217103
0.0064790146
0.0064360061
0.0063926536
0.0063489138
0.0063047369
0.0062600834
0.00621491
0.0061691599
0.0061227716
0.0060757005
0.0060289119
0.0059838854
0.0059410389
0.0059001985
0.0058612013
0.0058239038
0.0057881826
0.0057539235
0.0057210159
0.0056893602
0.0056588731
0.0056294768
0.0056010945
0.0055736536
0.0055470821
0.0055213266
0.0054962913
0.0054719689
0.0054480607
0.0054249068
0.0054010774
0.0053797965
0.0053453287
0.00012306153
8.8813769e-05
7.1899213e-05
6.3442688e-05
5.8537473e-05
5.5229576e-05
5.2796276e-05
5.0926936e-05
4.9453215e-05
4.8268828e-05
4.7301756e-05
4.6501331e-05
4.5830899e-05
4.5263265e-05
4.477782e-05
4.4358497e-05
4.3992965e-05
4.3669937e-05
4.3385313e-05
4.3116212e-05
4.2915183e-05
4.2567449e-05
4.275047e-05
4.0617569e-05
0.0072388545
0.014659911
0.014823172
0.014165527
0.013619034
0.013155246
0.012749024
0.012393052
0.012080619
0.011804102
0.011556889
0.011333968
0.011131596
0.010946675
0.010776477
0.010618865
0.01047222
0.010335155
0.010206492
0.010085258
0.0099706402
0.0098619505
0.0097585821
0.0096600197
0.0095658312
0.009475633
0.0093891019
0.0093059449
0.0092258745
0.0091486411
0.0090740279
0.0090018277
0.0089318531
0.00886395
0.0087979775
0.0087337953
0.008671281
0.0086103323
0.008550849
0.0084927276
0.0084358782
0.0083802265
0.0083256993
0.0082722191
0.0082197149
0.0081681311
0.008117416
0.0080675097
0.0080183514
0.0079698968
0.0079221071
0.0078749368
0.0078283374
0.0077822654
0.0077366883
0.007691575
0.0076468854
0.0076025768
0.0075586179
0.0075149832
0.0074716422
0.0074285588
0.0073856973
0.0073430338
0.0073005461
0.0072582032
0.0072159705
0.0071738192
0.007131727
0.007089669
0.007047611
0.0070055176
0.0069633644
0.0069211287
0.0068787761
0.0068362692
0.0067935804
0.0067506845
0.0067075447
0.0066641187
0.0066203716
0.0065762719
0.0065317752
0.0064868312
0.006441399
0.0063954348
0.0063488807
0.006301674
0.0062537689
0.0062061476
0.0061603166
0.0061167018
0.0060751264
0.006035425
0.0059974517
0.0059610812
0.0059261974
0.0058926881
0.0058604521
0.0058294044
0.0057994663
0.0057705595
0.0057426105
0.005715546
0.0056893117
0.0056638107
0.0056390345
0.0056146828
0.0055910949
0.0055668324
0.0055451537
0.0055100318
0.00012356225
8.9606983e-05
7.2628518e-05
6.4060955e-05
5.9075976e-05
5.5714616e-05
5.3242288e-05
5.1342227e-05
4.9843361e-05
4.8637981e-05
4.765315e-05
4.6837537e-05
4.6153987e-05
4.557491e-05
4.5079386e-05
4.4651093e-05
4.4277489e-05
4.3947104e-05
4.3655674e-05
4.3380181e-05
4.3173239e-05
4.2816687e-05
4.3023188e-05
4.0816441e-05
0.0064387164
0.014511001
0.014982158
0.014366288
0.013832703
0.013373533
0.012969127
0.012613687
0.012301075
0.012023971
0.011775944
0.011552083
0.011348685
0.011162686
0.010991397
0.010832691
0.010684956
0.010546814
0.010417091
0.010294816
0.010179178
0.010069489
0.0099651431
0.0098656249
0.0097705013
0.0096793901
0.0095919664
0.0095079361
0.0094270121
0.0093489428
0.0092735097
0.0092005057
0.0091297431
0.0090610659
0.0089943327
0.0089294032
0.0088661541
0.008804482