/*--------------------------------*- C++ -*----------------------------------*\
  =========                 |
  \\      /  F ield         | OpenFOAM: The Open Source CFD Toolbox
   \\    /   O peration     | Website:  https://openfoam.org
    \\  /    A nd           | Version:  12
     \\/     M anipulation  |
\*---------------------------------------------------------------------------*/
FoamFile
{
    format      ascii;
    class       volScalarField;
    location    "2000";
    object      nut;
}
// * * * * * * * * * * * * * * * * * * * * * * * * * * * * * * * * * * * * * //

dimensions      [0 2 -1 0 0 0 0];

internalField   nonuniform List<scalar> 
7480
(
2.2972549e-06
3.6722026e-06
4.9385005e-06
5.9929833e-06
6.8108013e-06
7.4057552e-06
7.809343e-06
8.0591977e-06
8.1923594e-06
8.2411569e-06
8.2315377e-06
8.1830806e-06
8.10991e-06
8.0218693e-06
7.925644e-06
7.8257303e-06
7.7252644e-06
7.6266296e-06
7.5316279e-06
7.4417687e-06
7.3584249e-06
7.2828907e-06
7.2163363e-06
7.1597094e-06
7.113627e-06
7.0780879e-06
7.051961e-06
7.0333899e-06
7.0197318e-06
7.0080928e-06
6.9960853e-06
6.9823131e-06
6.966405e-06
6.9487843e-06
6.9301356e-06
6.9110064e-06
6.8916289e-06
6.8719724e-06
6.8519115e-06
6.8313907e-06
6.8104993e-06
6.789428e-06
6.7683781e-06
6.7474815e-06
6.7267863e-06
6.7062964e-06
6.6860135e-06
6.6659491e-06
6.6461166e-06
6.6265239e-06
6.607171e-06
6.5880521e-06
6.5691605e-06
6.5504934e-06
6.5320484e-06
6.5138194e-06
6.4957986e-06
6.4779817e-06
6.460368e-06
6.44295e-06
6.4257207e-06
6.4086742e-06
6.3918048e-06
6.3751083e-06
6.3585817e-06
6.3422212e-06
6.3260233e-06
6.3099847e-06
6.2941016e-06
6.2783702e-06
6.2627871e-06
6.2473489e-06
6.232052e-06
6.216893e-06
6.201869e-06
6.1869768e-06
6.1722134e-06
6.1575757e-06
6.1430608e-06
6.128666e-06
6.1143885e-06
6.1002256e-06
6.0861747e-06
6.0722332e-06
6.0583984e-06
6.0446679e-06
6.0310389e-06
6.0175088e-06
6.004075e-06
5.9907336e-06
5.9774829e-06
5.9643141e-06
5.9512326e-06
5.9382044e-06
5.9252773e-06
5.9122958e-06
5.8995257e-06
5.8860842e-06
5.8748308e-06
5.8537932e-06
9.4867481e-06
2.7099392e-06
1.274514e-06
9.5342174e-07
9.6144088e-07
1.0792822e-06
1.2405016e-06
1.4229793e-06
1.6139316e-06
1.8058802e-06
1.9981084e-06
2.1922927e-06
2.3898329e-06
2.596174e-06
2.8221744e-06
3.0839359e-06
3.4093363e-06
3.821399e-06
4.2903e-06
4.813464e-06
5.3951248e-06
6.0383373e-06
6.7411881e-06
7.504586e-06
8.3123676e-06
9.1351996e-06
9.9389637e-06
1.0687507e-05
1.1347366e-05
1.1903184e-05
1.2360627e-05
1.2738715e-05
1.3060848e-05
1.3345909e-05
1.3604049e-05
1.383693e-05
1.4042151e-05
1.4218325e-05
1.4367791e-05
1.4496404e-05
1.4611085e-05
1.4717098e-05
1.4817318e-05
1.4911953e-05
1.5000532e-05
1.5083124e-05
1.5160467e-05
1.5233417e-05
1.5302489e-05
1.5367811e-05
1.5429377e-05
1.5487284e-05
1.5541748e-05
1.559296e-05
1.5641015e-05
1.5685976e-05
1.5727949e-05
1.5767063e-05
1.5803328e-05
1.5837001e-05
1.5868122e-05
1.589675e-05
1.5922985e-05
1.5946937e-05
1.5968706e-05
1.5988383e-05
1.6006057e-05
1.6021806e-05
1.6035705e-05
1.604783e-05
1.6058251e-05
1.6067039e-05
1.6074261e-05
1.6079982e-05
1.6084267e-05
1.6087176e-05
1.6088767e-05
1.6089097e-05
1.6088222e-05
1.6086192e-05
1.608306e-05
1.6078873e-05
1.6073679e-05
1.6067521e-05
1.6060445e-05
1.605249e-05
1.6043698e-05
1.6034107e-05
1.6023753e-05
1.6012675e-05
1.6000902e-05
1.598848e-05
1.5975415e-05
1.5961794e-05
1.5947517e-05
1.5932918e-05
1.5917422e-05
1.590185e-05
1.5887718e-05
1.5856809e-05
8.3222884e-05
3.3897639e-05
1.6200853e-05
9.0870044e-06
5.7682758e-06
3.9926233e-06
2.9453023e-06
2.285387e-06
1.8492062e-06
1.5504303e-06
1.3404533e-06
1.1902684e-06
1.0817316e-06
1.0032599e-06
9.4761905e-07
9.1028439e-07
8.9071624e-07
8.8404798e-07
9.2190623e-07
1.0147191e-06
1.1671875e-06
1.3852569e-06
1.6769899e-06
2.0306062e-06
2.4736909e-06
3.0450124e-06
3.8237773e-06
4.7843205e-06
5.8894881e-06
7.0972033e-06
8.3650722e-06
9.6406972e-06
1.0862158e-05
1.198043e-05
1.296853e-05
1.3825481e-05
1.457086e-05
1.5234329e-05
1.5843218e-05
1.641461e-05
1.6953773e-05
1.7458708e-05
1.7925878e-05
1.8356139e-05
1.8754435e-05
1.912717e-05
1.9479395e-05
1.9813655e-05
2.0130759e-05
2.0431274e-05
2.0716334e-05
2.0987427e-05
2.1245819e-05
2.1492314e-05
2.1727447e-05
2.1951748e-05
2.2165798e-05
2.2370139e-05
2.256518e-05
2.2751091e-05
2.2928361e-05
2.309743e-05
2.3258666e-05
2.3412394e-05
2.3558917e-05
2.3698513e-05
2.3831445e-05
2.3957957e-05
2.407828e-05
2.4192637e-05
2.4301239e-05
2.4404291e-05
2.450199e-05
2.4594526e-05
2.4682085e-05
2.4764844e-05
2.4842973e-05
2.491664e-05
2.4986005e-05
2.5051224e-05
2.5112448e-05
2.5169822e-05
2.5223489e-05
2.5273585e-05
2.5320242e-05
2.5363589e-05
2.5403749e-05
2.5440845e-05
2.5474994e-05
2.5506312e-05
2.5534903e-05
2.5560896e-05
2.558435e-05
2.5605495e-05
2.5624168e-05
2.5641103e-05
2.5654948e-05
2.566935e-05
2.5677406e-05
2.5688096e-05
0.00019570613
0.00012409709
7.8790677e-05
5.285209e-05
3.7560609e-05
2.7994666e-05
2.1664893e-05
1.7282004e-05
1.4135984e-05
1.1811259e-05
1.0051553e-05
8.6913705e-06
7.6194916e-06
6.7594317e-06
6.0562177e-06
5.4698253e-06
4.9695521e-06
4.5311072e-06
4.136524e-06
3.7760187e-06
3.4297858e-06
3.1161739e-06
2.8098063e-06
2.5189544e-06
2.2472546e-06
2.0083065e-06
1.8145176e-06
1.6870453e-06
1.7097425e-06
1.9158829e-06
2.2860369e-06
2.832556e-06
3.5963433e-06
4.6605065e-06
5.9617378e-06
7.4033911e-06
8.9264293e-06
1.0455739e-05
1.1915788e-05
1.3256612e-05
1.4460724e-05
1.5540317e-05
1.6524851e-05
1.7444851e-05
1.83202e-05
1.9156988e-05
1.9952737e-05
2.070425e-05
2.1412525e-05
2.2082575e-05
2.2720233e-05
2.3329433e-05
2.3911912e-05
2.4468598e-05
2.5000806e-05
2.5510287e-05
2.5998658e-05
2.6467106e-05
2.6916539e-05
2.7347745e-05
2.7761588e-05
2.8158897e-05
2.85404e-05
2.8906759e-05
2.9258592e-05
2.9596471e-05
2.9920922e-05
3.0232435e-05
3.0531467e-05
3.0818455e-05
3.1093809e-05
3.1357921e-05
3.1611167e-05
3.1853907e-05
3.2086485e-05
3.2309235e-05
3.2522476e-05
3.2726519e-05
3.2921664e-05
3.3108202e-05
3.3286415e-05
3.3456575e-05
3.3618949e-05
3.3773794e-05
3.392136e-05
3.406189e-05
3.4195621e-05
3.4322785e-05
3.4443605e-05
3.4558305e-05
3.4667089e-05
3.4770192e-05
3.486776e-05
3.4960143e-05
3.5047202e-05
3.5129997e-05
3.5206406e-05
3.5283583e-05
3.5341297e-05
3.5440932e-05
0.00026021187
0.00021301946
0.00016628598
0.00012940383
0.0001022763
8.2480709e-05
6.7825781e-05
5.6755124e-05
4.8222834e-05
4.1526576e-05
3.6186591e-05
3.1867877e-05
2.8330314e-05
2.5396624e-05
2.2935911e-05
2.0849252e-05
1.9059628e-05
1.7506212e-05
1.6140327e-05
1.492142e-05
1.3816435e-05
1.2797864e-05
1.1840608e-05
1.0922803e-05
1.0021074e-05
9.1263206e-06
8.2097853e-06
7.2931051e-06
6.3675307e-06
5.484988e-06
4.6696702e-06
3.9471651e-06
3.3579197e-06
2.9130456e-06
2.6747673e-06
2.7535702e-06
3.0785851e-06
3.6733352e-06
4.5832601e-06
5.8502211e-06
7.3488087e-06
8.9887136e-06
1.0683416e-05
1.2343044e-05
1.390694e-05
1.5350859e-05
1.6683131e-05
1.7929871e-05
1.9117168e-05
2.025932e-05
2.1358195e-05
2.2410337e-05
2.3414373e-05
2.4373356e-05
2.5292397e-05
2.6175514e-05
2.7024739e-05
2.7841257e-05
2.862654e-05
2.9382357e-05
3.0110315e-05
3.0811683e-05
3.1487562e-05
3.213903e-05
3.276712e-05
3.3372756e-05
3.3956775e-05
3.4519954e-05
3.5063027e-05
3.5586678e-05
3.6091547e-05
3.6578241e-05
3.7047338e-05
3.7499385e-05
3.7934909e-05
3.8354411e-05
3.8758374e-05
3.9147266e-05
3.9521536e-05
3.9881623e-05
4.0227949e-05
4.0560926e-05
4.0880954e-05
4.118842e-05
4.1483704e-05
4.1767176e-05
4.2039195e-05
4.2300115e-05
4.2550279e-05
4.2790028e-05
4.3019681e-05
4.323959e-05
4.3450003e-05
4.3651397e-05
4.3843676e-05
4.4028244e-05
4.4202014e-05
4.4376818e-05
4.4512981e-05
4.4752328e-05
0.00028681136
0.00026432976
0.00023357259
0.00020188474
0.00017338025
0.00014923884
0.00012925219
0.00011278754
9.9184075e-05
8.7875604e-05
7.8405001e-05
7.0412079e-05
6.3617058e-05
5.7799056e-05
5.2783032e-05
4.8429502e-05
4.4625956e-05
4.1280658e-05
3.8318044e-05
3.5674088e-05
3.3295363e-05
3.1134691e-05
2.9151444e-05
2.7308828e-05
2.5574048e-05
2.3920783e-05
2.2317348e-05
2.0736475e-05
1.9150929e-05
1.7553447e-05
1.5916029e-05
1.4280813e-05
1.2624388e-05
1.0974613e-05
9.3637479e-06
7.8817561e-06
6.5618403e-06
5.4514612e-06
4.5967218e-06
3.9937651e-06
3.795442e-06
3.9548188e-06
4.464307e-06
5.3624937e-06
6.6734551e-06
8.2428817e-06
9.9861764e-06
1.1798812e-05
1.3590625e-05
1.5303651e-05
1.6919295e-05
1.8448647e-05
1.9913594e-05
2.1329907e-05
2.2701577e-05
2.4025733e-05
2.5300345e-05
2.6527386e-05
2.7710897e-05
2.8854065e-05
2.9958542e-05
3.1025516e-05
3.20565e-05
3.3053169e-05
3.4016971e-05
3.4949109e-05
3.5850704e-05
3.6722846e-05
3.7566545e-05
3.8382727e-05
3.917226e-05
3.9935968e-05
4.0674625e-05
4.1388967e-05
4.2079692e-05
4.2747469e-05
4.3392937e-05
4.4016715e-05
4.4619398e-05
4.5201562e-05
4.5763766e-05
4.6306554e-05
4.6830453e-05
4.7335979e-05
4.7823635e-05
4.8293911e-05
4.874729e-05
4.9184245e-05
4.9605236e-05
5.0010722e-05
5.0401138e-05
5.0776948e-05
5.1138513e-05
5.1486433e-05
5.1820655e-05
5.2142972e-05
5.2449087e-05
5.2756762e-05
5.300083e-05
5.343135e-05
0.00029701679
0.0002879271
0.00027205232
0.00025161959
0.00022957176
0.00020803463
0.00018810807
0.00017018948
0.00015430213
0.00014029913
0.0001279802
0.00011713669
0.00010757391
9.9118341e-05
9.1618797e-05
8.4945138e-05
7.8985781e-05
7.3645024e-05
6.8840641e-05
6.45011e-05
6.0564245e-05
5.6975056e-05
5.3684616e-05
5.0648919e-05
4.782752e-05
4.5184216e-05
4.2684162e-05
4.0292807e-05
3.79759e-05
3.570333e-05
3.3446572e-05
3.1187902e-05
2.8912141e-05
2.661031e-05
2.4248894e-05
2.1887666e-05
1.9489218e-05
1.7108719e-05
1.4797165e-05
1.2584329e-05
1.0557778e-05
8.7669656e-06
7.2661377e-06
6.1134185e-06
5.3039599e-06
5.0302288e-06
5.1726843e-06
5.7585459e-06
6.8426401e-06
8.3021411e-06
1.0023757e-05
1.1902404e-05
1.3831998e-05
1.5732979e-05
1.7566642e-05
1.9329807e-05
2.103613e-05
2.2697115e-05
2.4314665e-05
2.5885282e-05
2.7406933e-05
2.8881144e-05
3.0310725e-05
3.1697603e-05
3.3042842e-05
3.4347541e-05
3.5613073e-05
3.6840777e-05
3.8031799e-05
3.9187198e-05
4.030801e-05
4.1395225e-05
4.2449764e-05
4.3472502e-05
4.4464277e-05
4.5425886e-05
4.6358099e-05
4.7261652e-05
4.8137261e-05
4.8985615e-05
4.9807385e-05
5.0603223e-05
5.1373765e-05
5.2119633e-05
5.2841434e-05
5.3539767e-05
5.4215218e-05
5.4868363e-05
5.5499769e-05
5.611e-05
5.6699593e-05
5.7269121e-05
5.7819041e-05
5.8350076e-05
5.88622e-05
5.9357641e-05
5.9830647e-05
6.0306089e-05
6.068771e-05
6.1360591e-05
0.00030131802
0.00029795192
0.00029090045
0.00027996754
0.00026606291
0.00025048944
0.00023438822
0.00021854868
0.00020343689
0.00018928646
0.00017618654
0.00016414176
0.00015311053
0.0001430281
0.00013382002
0.00012540995
0.00011772376
0.00011069161
0.00010424885
9.8335963e-05
9.2898442e-05
8.7886306e-05
8.3253557e-05
7.8957744e-05
7.4959216e-05
7.1220966e-05
6.7708091e-05
6.438677e-05
6.122372e-05
5.8186633e-05
5.5244799e-05
5.2372176e-05
4.9532033e-05
4.6695396e-05
4.3836124e-05
4.0951482e-05
3.8023505e-05
3.5048582e-05
3.2030414e-05
2.9002011e-05
2.5961715e-05
2.2948257e-05
2.0004035e-05
1.7188598e-05
1.4535803e-05
1.2166007e-05
1.0104218e-05
8.4416743e-06
7.1838319e-06
6.4920449e-06
6.342297e-06
6.7118577e-06
7.6485867e-06
9.0345892e-06
1.0752472e-05
1.2688848e-05
1.4727349e-05
1.6776807e-05
1.8788848e-05
2.0752635e-05
2.2674154e-05
2.455765e-05
2.6400438e-05
2.8197926e-05
2.9948437e-05
3.1652979e-05
3.3312859e-05
3.4928756e-05
3.6501263e-05
3.8031276e-05
3.9519801e-05
4.0967754e-05
4.237601e-05
4.3745451e-05
4.5076939e-05
4.6371306e-05
4.7629362e-05
4.8851897e-05
5.0039679e-05
5.1193457e-05
5.2313963e-05
5.3401913e-05
5.4458009e-05
5.5482941e-05
5.6477388e-05
5.7442022e-05
5.8377501e-05
5.9284483e-05
6.016361e-05
6.1015527e-05
6.1840856e-05
6.2640253e-05
6.3414258e-05
6.4163697e-05
6.4888554e-05
6.5591517e-05
6.6265172e-05
6.6942525e-05
6.7491171e-05
6.8456876e-05
0.00030364809
0.00030244355
0.00029960191
0.00029447573
0.00028693257
0.00027732076
0.00026623118
0.00025427475
0.00024196282
0.00022967374
0.00021766547
0.00020610187
0.00019507872
0.00018464445
0.00017481572
0.00016558837
0.00015694505
0.00014886038
0.00014130439
0.00013424471
0.00012764797
0.00012148077
0.00011571007
0.00011030358
0.00010522973
0.00010045771
9.5957524e-05
9.1699735e-05
8.765513e-05
8.3794604e-05
8.0089426e-05
7.6513134e-05
7.3035883e-05
6.9627705e-05
6.6259957e-05
6.2911454e-05
5.9562056e-05
5.6195548e-05
5.279279e-05
4.9339308e-05
4.5836009e-05
4.2270856e-05
3.8696233e-05
3.5078457e-05
3.1470708e-05
2.791939e-05
2.444464e-05
2.1116552e-05
1.7965015e-05
1.5105021e-05
1.2602335e-05
1.054896e-05
8.9676862e-06
8.0296583e-06
7.711903e-06
7.9993121e-06
8.9197243e-06
1.0320345e-05
1.2103467e-05
1.4138309e-05
1.6298244e-05
1.849053e-05
2.0668758e-05
2.2820481e-05
2.4944476e-05
2.703684e-05
2.9090935e-05
3.1102107e-05
3.3068929e-05
3.4991277e-05
3.6868961e-05
3.8701864e-05
4.0490248e-05
4.2234604e-05
4.3935467e-05
4.5593415e-05
4.7209086e-05
4.8783143e-05
5.0316263e-05
5.1809128e-05
5.3262428e-05
5.4676852e-05
5.605309e-05
5.7391831e-05
5.8693765e-05
5.9959578e-05
6.1189958e-05
6.2385589e-05
6.3547155e-05
6.4675343e-05
6.577082e-05
6.6834296e-05
6.7866366e-05
6.886793e-05
6.9838956e-05
7.0782608e-05
7.1689621e-05
7.2602022e-05
7.334668e-05
7.4654647e-05
0.00030547181
0.00030500312
0.00030389738
0.00030169406
0.00029803688
0.00029279904
0.00028608515
0.00027815203
0.00026931596
0.00025988551
0.00025012728
0.00024025521
0.00023043257
0.00022077911
0.00021137945
0.00020229083
0.00019354967
0.00018517679
0.00017718144
0.00016956432
0.00016231987
0.00015543796
0.0001489051
0.00014270536
0.00013682095
0.00013123266
0.00012592026
0.0001208627
0.00011603821
0.00011142425
0.00010699772
0.00010273593
9.8614982e-05
9.4609679e-05
9.0694223e-05
8.6844716e-05
8.3038742e-05
7.9256233e-05
7.547727e-05
7.1681281e-05
6.7855136e-05
6.3983514e-05
6.0075033e-05
5.6125576e-05
5.2111163e-05
4.805064e-05
4.395619e-05
3.9851356e-05
3.575534e-05
3.1726026e-05
2.7795474e-05
2.4037816e-05
2.0490476e-05
1.727771e-05
1.4478831e-05
1.2188369e-05
1.0446927e-05
9.4752999e-06
9.1577943e-06
9.5483696e-06
1.0580834e-05
1.2127299e-05
1.4066926e-05
1.6254393e-05
1.8562576e-05
2.0910596e-05
2.3262159e-05
2.5604003e-05
2.7927033e-05
3.0221398e-05
3.2479406e-05
3.4696967e-05
3.6872023e-05
3.9003086e-05
4.1089102e-05
4.3129569e-05
4.5124345e-05
4.7073476e-05
4.8977155e-05
5.0835704e-05
5.2649524e-05
5.441908e-05
5.6144888e-05
5.78275e-05
5.9467496e-05
6.1065484e-05
6.2622086e-05
6.4137945e-05
6.5613713e-05
6.7050058e-05
6.8447643e-05
6.9807179e-05
7.1129274e-05
7.2414859e-05
7.3663856e-05
7.487989e-05
7.6051692e-05
7.7231057e-05
7.8199963e-05
7.9898347e-05
0.00030729105
0.00030704619
0.00030657566
0.00030564704
0.00030399277
0.00030139168
0.00029772739
0.00029300123
0.0002873086
0.00028080096
0.0002736514
0.00026603053
0.0002580931
0.00024997214
0.0002417779
0.00023359928
0.00022550628
0.00021755287
0.00020977963
0.00020221613
0.00019488294
0.00018779331
0.00018095455
0.00017436913
0.0001680355
0.00016194876
0.0001561013
0.00015048321
0.00014508264
0.00013988606
0.00013487842
0.00013004378
0.000125365
0.00012082346
0.00011639911
0.00011207145
0.00010782001
0.00010362511
9.9467577e-05
9.5327515e-05
9.1187363e-05
8.7029881e-05
8.2845731e-05
7.8629376e-05
7.4363351e-05
7.004393e-05
6.5670491e-05
6.1248539e-05
5.6785854e-05
5.2274287e-05
4.7723199e-05
4.3178221e-05
3.8656697e-05
3.4215176e-05
2.9911614e-05
2.58192e-05
2.1986885e-05
1.8569696e-05
1.5642913e-05
1.3279502e-05
1.1647907e-05
1.0798696e-05
1.0713335e-05
1.1384232e-05
1.2683538e-05
1.4501087e-05
1.6678878e-05
1.9065244e-05
2.1552129e-05
2.4080951e-05
2.6624025e-05
2.9164211e-05
3.1687022e-05
3.4181462e-05
3.6640723e-05
3.9060607e-05
4.1438098e-05
4.3771053e-05
4.6058096e-05
4.8298373e-05
5.0491368e-05
5.2636836e-05
5.4734735e-05
5.6785177e-05
5.8788392e-05
6.0744701e-05
6.2654501e-05
6.4518247e-05
6.6336443e-05
6.8109637e-05
6.9838396e-05
7.1523354e-05
7.3165065e-05
7.4764431e-05
7.6321271e-05
7.7839647e-05
7.9306137e-05
8.078294e-05
8.2003312e-05
8.4138704e-05
0.00030926164
0.00030907555
0.00030881236
0.00030837638
0.00030762424
0.00030639188
0.00030453237
0.00030194662
0.00029859622
0.0002944993
0.00028971662
0.0002843353
0.00027845458
0.00027217543
0.00026559387
0.0002587973
0.00025186283
0.00024485694
0.0002378359
0.00023084653
0.00022392715
0.00021710856
0.00021041495
0.00020386476
0.00019747139
0.00019124381
0.00018518718
0.00017930334
0.00017359121
0.00016804722
0.00016266549
0.00015743836
0.00015235644
0.00014740855
0.00014258171
0.0001378614
0.00013323203
0.00012867745
0.00012418132
0.00011972657
0.00011529635
0.00011087389
0.00010644484
0.00010199884
9.7521911e-05
9.3003014e-05
8.843402e-05
8.3810402e-05
7.9133616e-05
7.4397127e-05
6.9595057e-05
6.4739501e-05
5.9840646e-05
5.4906123e-05
4.9954199e-05
4.5016018e-05
4.0122391e-05
3.534627e-05
3.0766404e-05
2.6434289e-05
2.2472308e-05
1.9006327e-05
1.612583e-05
1.396682e-05
1.2673881e-05
1.2202287e-05
1.2569005e-05
1.3665694e-05
1.5386148e-05
1.7559804e-05
2.0017582e-05
2.2632461e-05
2.5328525e-05
2.8064729e-05
3.0815107e-05
3.3559876e-05
3.6284635e-05
3.8979918e-05
4.1639368e-05
4.425839e-05
4.6833705e-05
4.9363038e-05
5.1844808e-05
5.4277932e-05
5.6661711e-05
5.8995735e-05
6.1279813e-05
6.351393e-05
6.5698206e-05
6.7832875e-05
6.9918252e-05
7.1954756e-05
7.3942775e-05
7.5883078e-05
7.7775304e-05
7.9623887e-05
8.1413106e-05
8.3216103e-05
8.4713833e-05
8.7330934e-05
0.00031143137
0.00031125564
0.00031105121
0.00031078485
0.00031039384
0.00030978817
0.00030886326
0.0003075184
0.00030567356
0.00030327932
0.00030031915
0.0002968057
0.00029277417
0.0002882749
0.00028336685
0.00027811238
0.00027257355
0.00026680962
0.00026087559
0.00025482132
0.00024869125
0.00024252433
0.00023635423
0.00023020958
0.0002241143
0.00021808796
0.00021214611
0.00020630069
0.00020056033
0.00019493071
0.00018941484
0.00018401336
0.00017872478
0.00017354551
0.00016846992
0.00016349037
0.00015859746
0.0001537804
0.00014902737
0.00014432551
0.00013966121
0.00013502027
0.00013038874
0.00012575461
0.00012110519
0.00011642825
0.00011171283
0.00010694973
0.00010213388
9.7258466e-05
9.231544e-05
8.7303306e-05
8.2225508e-05
7.7067956e-05
7.1874603e-05
6.6602253e-05
6.1293857e-05
5.5978118e-05
5.0657389e-05
4.5368392e-05
4.0171015e-05
3.5146502e-05
3.0378859e-05
2.5966166e-05
2.2064999e-05
1.8765278e-05
1.6216055e-05
1.4581881e-05
1.3837459e-05
1.3995282e-05
1.497519e-05
1.6661172e-05
1.8869394e-05
2.1418998e-05
2.4171299e-05
2.7038784e-05
2.9969865e-05
3.2930657e-05
3.5896456e-05
3.8849791e-05
4.1778816e-05
4.467523e-05
4.7533015e-05
5.0347834e-05
5.3116563e-05
5.5836944e-05
5.8507359e-05
6.1126673e-05
6.3694123e-05
6.6209232e-05
6.8671742e-05
7.1081605e-05
7.3438829e-05
7.5743875e-05
7.799606e-05
8.0200077e-05
8.2337731e-05
8.4493559e-05
8.629283e-05
8.9433999e-05
0.00031381516
0.00031363708
0.00031344496
0.00031322956
0.00031296744
0.00031261788
0.00031212345
0.00031141595
0.0003104254
0.00030908944
0.00030736025
0.00030520823
0.00030262235
0.00029960822
0.0002961849
0.00029238138
0.00028823327
0.00028377999
0.00027906253
0.00027412176
0.00026899722
0.00026372625
0.00025834348
0.00025288048
0.00024736559
0.00024182387
0.0002362771
0.00023074393
0.00022523998
0.00021977807
0.00021436837
0.0002090186
0.00020373421
0.00019851849
0.00019337256
0.00018829541
0.00018328401
0.00017833348
0.00017343736
0.00016858774
0.00016377548
0.00015899026
0.000154221
0.00014945692
0.00014468699
0.00013989998
0.00013508493
0.0001302314
0.00012533117
0.0001203764
0.00011535833
0.00011027001
0.00010510886
9.9864324e-05
9.4550041e-05
8.9151852e-05
8.3665637e-05
7.8132279e-05
7.2520221e-05
6.6861195e-05
6.1175852e-05
5.549758e-05
4.9841163e-05
4.4263079e-05
3.8856133e-05
3.3705103e-05
2.8921216e-05
2.4673577e-05
2.1052142e-05
1.824946e-05
1.6392544e-05
1.5501076e-05
1.557026e-05
1.6546764e-05
1.8285797e-05
2.0590041e-05
2.3271437e-05
2.61862e-05
2.9240822e-05
3.2376731e-05
3.5554175e-05
3.874477e-05
4.1928704e-05
4.5092214e-05
4.8225444e-05
5.1321219e-05
5.4374309e-05
5.7380868e-05
6.0338056e-05
6.3243793e-05
6.6096562e-05
6.8895309e-05
7.1639247e-05
7.4328192e-05
7.6960872e-05
7.9542024e-05
8.2050734e-05
8.4583288e-05
8.6706014e-05
9.0410622e-05
0.00031641837
0.0003162354
0.0003160427
0.00031583916
0.00031561726
0.00031536115
0.00031504446
0.00031463019
0.00031407325
0.00031332482
0.0003123375
0.00031107001
0.00030949036
0.00030757758
0.00030532183
0.00030272353
0.00029979189
0.00029654309
0.00029299854
0.00028918329
0.00028512456
0.00028085067
0.00027639001
0.00027177038
0.0002670184
0.00026215911
0.00025721566
0.00025220917
0.00024715859
0.00024208074
0.00023699027
0.00023189975
0.00022681973
0.00022175875
0.00021672339
0.00021171819
0.00020674571
0.00020180658
0.0001968996
0.00019202193
0.00018716918
0.00018233547
0.00017751364
0.00017269582
0.00016787355
0.00016303781
0.0001581792
0.00015328814
0.00014835584
0.00014337406
0.00013833418
0.00013322781
0.00012804895
0.00012278844
0.00011744652
0.00011201641
0.00010648947
0.00010087946
9.5175167e-05
8.9380145e-05
8.350493e-05
7.7560893e-05
7.1563075e-05
6.5524173e-05
5.9490244e-05
5.3493198e-05
4.7567824e-05
4.1823125e-05
3.6335771e-05
3.1257892e-05
2.6747766e-05
2.2914856e-05
1.9996973e-05
1.8052506e-05
1.7145717e-05
1.7272461e-05
1.8368479e-05
2.0256434e-05
2.2727357e-05
2.5590056e-05
2.8701218e-05
3.1966056e-05
3.5322386e-05
3.8727085e-05
4.2149735e-05
4.556909e-05
4.8970097e-05
5.234185e-05
5.5676365e-05
5.8967747e-05
6.2211605e-05
6.5404675e-05
6.8544467e-05
7.162945e-05
7.4657221e-05
7.7632153e-05
8.0530195e-05
8.3459605e-05
8.5924588e-05
9.0227994e-05
0.00031924401
0.00031905626
0.0003188601
0.00031865699
0.00031844496
0.00031821865
0.00031796754
0.00031767464
0.00031731596
0.00031686145
0.00031627705
0.0003155275
0.00031457924
0.00031340285
0.00031197484
0.00031027855
0.00030830437
0.00030604943
0.00030351689
0.00030071503
0.0002976563
0.00029435633
0.00029083304
0.00028710587
0.00028319503
0.00027912092
0.00027490369
0.0002705628
0.00026611678
0.00026158297
0.00025697743
0.00025231482
0.00024760835
0.00024286969
0.00023810896
0.00023333459
0.00022855332
0.00022377013
0.0002189883
0.00021420944
0.00020943354
0.00020465902
0.0001998828
0.00019510061
0.00019030714
0.00018549624
0.00018066098
0.00017579377
0.00017088691
0.00016593283
0.00016092372
0.00015585146
0.00015070894
0.00014548773
0.00014018299
0.00013478871
0.00012929611
0.00012370622
0.00011801325
0.00011221476
0.000106311
0.00010029406
9.4197701e-05
8.7995756e-05
8.1716855e-05
7.5381181e-05
6.8998862e-05
6.2619106e-05
5.6293398e-05
5.0050919e-05
4.4004215e-05
3.8241535e-05
3.2950702e-05
2.8266683e-05
2.4361259e-05
2.1442195e-05
1.955892e-05
1.8785946e-05
1.9131032e-05
2.0470553e-05
2.260386e-05
2.5312683e-05
2.8408068e-05
3.1752371e-05
3.525324e-05
3.8847955e-05
4.24926e-05
4.6156347e-05
4.9817449e-05
5.3460263e-05
5.7073365e-05
6.0648335e-05
6.4178845e-05
6.7660451e-05
7.1088444e-05
7.4465967e-05
7.7765059e-05
8.1105919e-05
8.3927459e-05
8.8859328e-05
0.00032229496
0.00032210308
0.00032190327
0.00032169778
0.00032148639
0.00032126752
0.00032103748
0.00032078947
0.00032051252
0.00032019104
0.00031980493
0.00031933051
0.00031874198
0.00031801312
0.00031711897
0.00031603728
0.00031474954
0.00031324167
0.00031150422
0.00030953237
0.00030732556
0.00030488708
0.00030222351
0.00029934416
0.00029626046
0.0002929854
0.00028953307
0.00028591818
0.00028215567
0.00027826041
0.00027424697
0.00027012935
0.00026592087
0.00026163401
0.00025728026
0.00025286996
0.00024841226
0.00024391493
0.00023938435
0.00023482547
0.00023024179
0.00022563531
0.00022100658
0.00021635479
0.00021167792
0.00020697283
0.00020223541
0.00019746058
0.00019264267
0.00018777562
0.00018285299
0.00017786784
0.00017281337
0.00016768206
0.00016246757
0.00015716368
0.00015176237
0.00014625945
0.00014064939
0.00013492703
0.00012908901
0.0001231279
0.00011705429
0.00011085736
0.00010454135
9.8118298e-05
9.1587873e-05
8.4975238e-05
7.8302641e-05
7.1585974e-05
6.4873273e-05
5.8217196e-05
5.1696678e-05
4.5390236e-05
3.9428534e-05
3.400085e-05
2.9254326e-05
2.542865e-05
2.2625166e-05
2.0965019e-05
2.0516501e-05
2.1226338e-05
2.2925427e-05
2.5390926e-05
2.8400943e-05
3.1775627e-05
3.5387255e-05
3.9148631e-05
4.2999234e-05
4.6896577e-05
5.0810724e-05
5.472028e-05
5.8609656e-05
6.2467688e-05
6.6284622e-05
7.0060422e-05
7.3761629e-05
7.7519807e-05
8.0705287e-05
8.6286705e-05
0.00032557448
0.00032537909
0.00032517599
0.00032496773
0.00032475459
0.00032453616
0.00032431131
0.00032407762
0.00032383073
0.00032356359
0.00032326601
0.00032292457
0.0003225229
0.00032204237
0.00032146308
0.00032076485
0.00031992835
0.00031893592
0.00031777235
0.00031642533
0.00031488569
0.00031314748
0.00031120789
0.00030906698
0.00030672741
0.00030419412
0.00030147388
0.00029857503
0.00029550702
0.00029228015
0.00028890529
0.0002853936
0.00028175633
0.00027800458
0.00027414917
0.0002702004
0.00026616793
0.00026206059
0.0002578863
0.00025365191
0.00024936316
0.0002450246
0.0002406395
0.00023620988
0.00023173654
0.00022721914
0.00022265625
0.0002180454
0.0002133832
0.00020866559
0.0002038879
0.0001990448
0.00019413064
0.00018913913
0.00018406414
0.00017889961
0.00017363842
0.00016827472
0.00016280252
0.00015721576
0.00015150925
0.00014567545
0.00013971491
0.00013362115
0.00012739201
0.00012102856
0.0001145211
0.00010789863
0.00010114634
9.4287975e-05
8.733586e-05
8.0315896e-05
7.3269187e-05
6.6236592e-05
5.9281908e-05
5.2512296e-05
4.5999838e-05
3.9931255e-05
3.4456886e-05
2.9810958e-05
2.6165733e-05
2.3661767e-05
2.2426726e-05
2.2473471e-05
2.36791e-05
2.5834812e-05
2.8701154e-05
3.2062417e-05
3.5754261e-05
3.9661424e-05
4.3703906e-05
4.7825639e-05
5.1987098e-05
5.6160466e-05
6.0324078e-05
6.4470012e-05
6.8555738e-05
7.2722314e-05
7.6267775e-05
8.2506096e-05
0.00032908616
0.00032888774
0.00032868175
0.0003284709
0.0003282556
0.00032803574
0.00032781101
0.00032758066
0.00032734316
0.0003270957
0.00032683376
0.00032655071
0.00032623758
0.00032588312
0.00032547408
0.00032499564
0.00032443208
0.00032376742
0.00032298616
0.00032207385
0.00032101759
0.00031980642
0.00031843157
0.00031688651
0.00031516703
0.00031327108
0.00031119868
0.00030895168
0.00030653356
0.00030394917
0.00030120453
0.00029830659
0.00029526301
0.00029208194
0.00028877188
0.00028534141
0.00028179905
0.00027815307
0.00027441133
0.00027058111
0.00026666905
0.00026268092
0.00025862162
0.00025449501
0.00025030397
0.0002460503
0.0002417348
0.00023735725
0.00023291645
0.00022841038
0.00022383624
0.00021919048
0.00021446896
0.00020966689
0.0002047791
0.00019980025
0.00019472426
0.00018954522
0.00018425715
0.00017885385
0.00017332948
0.00016767673
0.00016189175
0.00015596864
0.0001499021
0.00014368927
0.0001373226
0.00013080914
0.00012413408
0.0001173294
0.00011037179
0.00010328111
9.6076875e-05
8.8779214e-05
8.1416836e-05
7.4046777e-05
6.6710387e-05
5.9502143e-05
5.2526401e-05
4.5898116e-05
3.979699e-05
3.442945e-05
3.001505e-05
2.6729986e-05
2.4748165e-05
2.4136337e-05
2.4824576e-05
2.6631099e-05
2.9312671e-05
3.2626651e-05
3.6374307e-05
4.0410741e-05
4.4634292e-05
4.8974042e-05
5.3378338e-05
5.7819263e-05
6.2236576e-05
6.677563e-05
7.0657215e-05
7.7536318e-05
0.00033283384
0.00033263277
0.00033242421
0.00033221103
0.00033199363
0.00033177198
0.000331546
0.00033131546
0.00033107989
0.00033083832
0.00033058897
0.00033032893
0.00033005389
0.0003297579
0.00032943326
0.00032907065
0.00032865924
0.00032818707
0.00032764146
0.00032700944
0.00032627827
0.0003254358
0.00032447089
0.0003233737
0.00032213585
0.0003207506
0.00031921288
0.0003175193
0.00031566805
0.00031365885
0.00031149279
0.00030917222
0.00030670057
0.00030408222
0.0003013223
0.00029842656
0.00029540114
0.00029225244
0.00028898696
0.00028561112
0.00028213109
0.00027855269
0.0002748812
0.00027112127
0.00026727684
0.00026335106
0.00025934621
0.00025526374
0.00025110418
0.00024686725
0.00024255187
0.00023815616
0.00023367755
0.00022911276
0.00022445792
0.00021970876
0.00021486035
0.00020990747
0.00020484462
0.000199666
0.0001943658
0.00018893724
0.00018337479
0.00017767238
0.00017182366
0.00016582358
0.00015966453
0.00015334561
0.00014685734
0.00014020802
0.00013338782
0.00012639919
0.00011925004
0.00011194821
0.00010450503
9.694783e-05
8.9299437e-05
8.1604665e-05
7.3925014e-05
6.6324051e-05
5.8900682e-05
5.1790632e-05
4.5139297e-05
3.9145828e-05
3.403671e-05
3.0040941e-05
2.7366545e-05
2.6126836e-05
2.6303616e-05
2.7748574e-05
3.0224674e-05
3.3471126e-05
3.7259048e-05
4.1414724e-05
4.5812177e-05
5.0372548e-05
5.4996119e-05
5.981847e-05
6.3974883e-05
7.1435737e-05
0.00033682157
0.00033661813
0.00033640727
0.00033619195
0.00033597261
0.00033574921
0.00033552169
0.00033528999
0.00033505396
0.00033481332
0.00033456745
0.00033431522
0.00033405477
0.0003337833
0.00033349687
0.00033319027
0.00033285698
0.00033248922
0.00033207808
0.00033161376
0.00033108582
0.00033048353
0.00032979619
0.00032901341
0.00032812542
0.00032712327
0.00032599905
0.00032474599
0.00032335856
0.00032183248
0.00032016476
0.00031835363
0.0003163985
0.00031429989
0.00031205929
0.00030967908
0.00030716241
0.00030451301
0.00030173509
0.00029883321
0.00029581209
0.00029267648
0.00028943102
0.00028608009
0.00028262772
0.00027907745
0.00027543224
0.00027169444
0.0002678657
0.00026394694
0.00025993839
0.00025583953
0.00025164915
0.00024736534
0.00024298554
0.00023850662
0.00023392485
0.00022923598
0.00022443534
0.00021951781
0.00021447806
0.00020931002
0.00020400783
0.00019856542
0.00019297627
0.00018723433
0.00018133211
0.00017526504
0.00016902473
0.00016261041
0.00015601565
0.00014923593
0.00014227004
0.00013511956
0.00012778746
0.00012028326
0.00011261768
0.00010481
9.6892516e-05
8.8900254e-05
8.0883677e-05
7.291928e-05
6.5093473e-05
5.7526336e-05
5.0372709e-05
4.3820127e-05
3.8101723e-05
3.347386e-05
3.0172383e-05
2.8354647e-05
2.8050109e-05
2.9145651e-05
3.141636e-05
3.4590871e-05
3.8413234e-05
4.2691743e-05
4.7237817e-05
5.214115e-05
5.6435669e-05
6.4334885e-05
0.00034105358
0.00034084797
0.000340635
0.00034041772
0.00034019657
0.00033997151
0.00033974248
0.00033950942
0.00033927228
0.00033903098
0.00033878534
0.00033853497
0.00033827915