/*--------------------------------*- C++ -*----------------------------------*\
  =========                 |
  \\      /  F ield         | OpenFOAM: The Open Source CFD Toolbox
   \\    /   O peration     | Website:  https://openfoam.org
    \\  /    A nd           | Version:  12
     \\/     M anipulation  |
\*---------------------------------------------------------------------------*/
FoamFile
{
    format      ascii;
    class       volScalarField;
    location    "2000";
    object      p;
}
// * * * * * * * * * * * * * * * * * * * * * * * * * * * * * * * * * * * * * //

dimensions      [0 2 -2 0 0 0 0];

internalField   nonuniform List<scalar> 
7480
(
0.0087656157
0.0080271837
0.006906619
0.0063284413
0.0060137064
0.0057277937
0.0054587555
0.0052293049
0.0050295518
0.0048493659
0.0046821348
0.0045256693
0.0043802299
0.004240613
0.0041070467
0.0039779618
0.003853182
0.003735392
0.003625648
0.0035234146
0.0034294149
0.0033444531
0.0032693008
0.0032047578
0.003151222
0.003107631
0.0030738632
0.0030482613
0.0030264937
0.0030054459
0.002982562
0.0029567355
0.0029278813
0.0028978704
0.0028675756
0.0028359776
0.0028030788
0.0027686975
0.0027329963
0.0026969823
0.0026608442
0.0026241151
0.0025870161
0.00254982
0.002513053
0.0024765442
0.0024397991
0.0024028313
0.0023661874
0.0023298951
0.0022933821
0.0022566697
0.0022201274
0.002183753
0.0021471197
0.002110285
0.0020734844
0.0020366378
0.001999448
0.0019621041
0.001924646
0.0018868557
0.0018487761
0.0018104787
0.0017718317
0.0017328166
0.0016934992
0.0016537659
0.0016136203
0.0015730862
0.0015320691
0.0014905935
0.0014486298
0.0014061591
0.0013631772
0.0013196345
0.0012755369
0.0012308644
0.0011856053
0.0011397505
0.0010932925
0.0010462273
0.00099855547
0.00095028301
0.00090142475
0.00085200243
0.00080206004
0.00075164098
0.00070086425
0.00064977341
0.0005987485
0.00054759722
0.00049786303
0.00044753252
0.00040406889
0.00035438333
0.00033705633
0.00025386091
0.00056395881
-0.00047431846
0.0082866921
0.007624284
0.0067922549
0.0063280462
0.0060644818
0.0058105851
0.0055593616
0.0053354195
0.0051373695
0.0049537409
0.0047811358
0.004618394
0.0044667872
0.0043213698
0.0041825916
0.0040493932
0.0039213266
0.0037993976
0.0036849221
0.0035785647
0.0034807114
0.0033918574
0.0033127099
0.0032439361
0.0031855904
0.003136422
0.0030966707
0.0030654299
0.003038882
0.0030142298
0.0029891723
0.00296251
0.0029337655
0.0029044088
0.0028748655
0.002843747
0.0028109925
0.0027765202
0.0027406332
0.0027044319
0.0026681153
0.0026312072
0.0025939239
0.0025565245
0.0025195383
0.0024828002
0.0024458243
0.002408629
0.0023717612
0.0023352456
0.0022985104
0.0022615817
0.002224831
0.0021882552
0.0021514259
0.0021144029
0.002077422
0.0020404021
0.0020030458
0.0019655435
0.0019279336
0.0018899976
0.0018517791
0.0018133492
0.0017745756
0.0017354395
0.0016960066
0.001656163
0.0016159121
0.0015752776
0.0015341646
0.0014925975
0.0014505466
0.0014079927
0.0013649314
0.001321313
0.0012771431
0.0012324017
0.0011870768
0.0011411593
0.0010946414
0.001047519
0.00099979262
0.00095146808
0.00090256012
0.00085309036
0.00080310269
0.00075264042
0.00070182248
0.00065069232
0.00059963004
0.00054844305
0.00049867539
0.00044831252
0.00040482046
0.00035510639
0.00033774054
0.00025465065
0.00056479933
-0.00047366151
0.0080009801
0.0075320182
0.0068556865
0.0063768012
0.0060707906
0.0057899761
0.0055213181
0.0052850927
0.0050795718
0.0048924136
0.0047195455
0.0045593857
0.0044103843
0.0042699389
0.0041366608
0.0040096619
0.0038883809
0.0037731018
0.0036652939
0.0035660799
0.0034756625
0.0033943508
0.0033226265
0.0032609021
0.0032091327
0.0031662309
0.0031305693
0.0031004164
0.0030733023
0.0030464776
0.0030180205
0.002987159
0.0029536652
0.002919603
0.0028861435
0.002852228
0.0028177324
0.0027824226
0.0027463578
0.0027103739
0.0026743448
0.0026375656
0.0026002235
0.002562643
0.0025254359
0.0024884714
0.0024512787
0.002413883
0.0023768276
0.0023401265
0.002303207
0.0022661039
0.0022291883
0.0021924531
0.0021554661
0.0021182905
0.0020811631
0.0020440011
0.0020065055
0.00196887
0.0019311314
0.0018930706
0.0018547323
0.0018161872
0.0017773021
0.0017380589
0.0016985231
0.0016585801
0.0016182338
0.0015775076
0.0015363063
0.0014946545
0.0014525222
0.0014098902
0.0013667538
0.0013230634
0.0012788244
0.0012340167
0.0011886282
0.0011426496
0.0010960731
0.0010488946
0.0010011144
0.00095273819
0.00090378071
0.00085426345
0.00080423026
0.00075372436
0.00070286462
0.0006516944
0.0006005939
0.00054937014
0.00049956801
0.00044917118
0.00040564988
0.00035590268
0.00033851909
0.00025551158
0.00056568765
-0.00047301667
0.0077503152
0.00736439
0.0067736487
0.006319522
0.0060222602
0.005760938
0.0055121398
0.005291999
0.0050982686
0.0049199962
0.0047531914
0.0045973221
0.0044490963
0.0043094319
0.004175568
0.0040471442
0.0039238067
0.0038058504
0.0036948137
0.0035918267
0.0034971485
0.0034112082
0.0033346438
0.0032681509
0.0032121717
0.0031663341
0.0031284855
0.0030970837
0.0030707664
0.0030464718
0.0030217969
0.0029954388
0.002966989
0.0029365735
0.0029044276
0.0028706038
0.0028350035
0.0027975931
0.0027587941
0.0027201032
0.00268193
0.0026437537
0.0026056601
0.0025678293
0.0025306888
0.0024938575
0.002456697
0.0024192167
0.0023820188
0.0023451472
0.0023080451
0.0022707693
0.0022336901
0.0021967922
0.0021596422
0.0021223112
0.0020850365
0.0020477317
0.0020100953
0.0019723251
0.0019344566
0.0018962695
0.0018578098
0.0018191479
0.0017801494
0.0017407967
0.0017011557
0.0016611106
0.0016206661
0.0015798453
0.0015385525
0.0014968129
0.0014545959
0.0014118824
0.0013686678
0.0013249019
0.0012805905
0.0012357131
0.0011902578
0.0011442149
0.0010975768
0.001050339
0.0010025019
0.00095407115
0.00090506129
0.00085549378
0.00080541239
0.00075486025
0.00070395621
0.00065274348
0.00060160234
0.00055033949
0.00050050042
0.00045006732
0.00040651374
0.00035673021
0.00033933056
0.00025626702
0.00056656536
-0.00047243968
0.0075203083
0.0071874732
0.0066885281
0.0062858717
0.0060037809
0.0057526729
0.0055094343
0.005290751
0.005095408
0.0049149922
0.004746037
0.0045880592
0.0044386846
0.0042984457
0.0041646352
0.0040368533
0.0039147555
0.0037985338
0.0036894593
0.0035884853
0.0034959062
0.0034121476
0.0033377278
0.0032731508
0.0032186488
0.0031736233
0.0031358296
0.0031037635
0.0030759925
0.0030495319
0.0030223374
0.0029937148
0.0029640507
0.0029329773
0.0029009358
0.002868794
0.0028359764
0.0028020899
0.0027670091
0.0027307979
0.0026935572
0.0026554089
0.0026164299
0.0025770386
0.0025382232
0.0025000182
0.0024619457
0.0024239571
0.0023865994
0.0023497473
0.0023126536
0.0022753277
0.0022381581
0.0022011428
0.0021638589
0.0021263975
0.0020889956
0.0020515615
0.0020137938
0.0019758985
0.0019379083
0.0018996011
0.0018610252
0.0018222508
0.001783142
0.0017436824
0.001703938
0.0016637917
0.0016232494
0.0015823338
0.0015409488
0.0014991202
0.0014568168
0.0014140199
0.0013707246
0.0013268807
0.001282494
0.001237544
0.0011920186
0.0011459082
0.0010992049
0.0010519045
0.001004007
0.00095551812
0.00090645234
0.00085683104
0.00080669792
0.00075609605
0.00070514421
0.00065388555
0.00060270033
0.00055139503
0.00050151544
0.0004510428
0.00040745258
0.00035762907
0.0003402062
0.00025705079
0.00056747366
-0.00047175953
0.0073170622
0.0070310131
0.006608405
0.0062470691
0.005974495
0.0057295876
0.0054938228
0.005280293
0.0050884091
0.0049111875
0.0047452709
0.0045899906
0.0044432508
0.0043049434
0.0041729022
0.0040466389
0.0039258845
0.0038108157
0.0037025323
0.0036019227
0.003509379
0.0034254061
0.0033504871
0.0032850515
0.0032292689
0.0031826185
0.0031432339
0.0031096625
0.0030805005
0.0030530621
0.0030254121
0.0029968051
0.0029671738
0.002935888
0.0029033719
0.0028703172
0.0028361958
0.0028010962
0.002765317
0.0027287184
0.0026918437
0.0026552399
0.0026186527
0.0025819473
0.0025449974
0.0025076193
0.0024697425
0.0024312339
0.0023929308
0.0023551459
0.0023173201
0.0022795003
0.0022421033
0.0022050339
0.0021677252
0.0021302209
0.0020927557
0.00205524
0.0020173783
0.0019793911
0.0019413063
0.0019028998
0.0018642257
0.0018253549
0.0017861497
0.0017465953
0.0017067582
0.0016665201
0.001625888
0.0015848849
0.0015434137
0.0015015012
0.0014591158
0.001416239
0.001372866
0.0013289463
0.0012844861
0.0012394645
0.0011938697
0.0011476921
0.0011009237
0.0010535601
0.0010056016
0.00095705373
0.00090793092
0.00085825453
0.00080806823
0.00075741503
0.00070641369
0.00065510725
0.00060387598
0.00055252622
0.00050260376
0.00045208942
0.00040845912
0.00035859275
0.00034114092
0.00025789453
0.00056839066
-0.00047092538
0.0071354337
0.0068914476
0.006530741
0.0062035806
0.0059413749
0.0057042783
0.0054772549
0.0052697437
0.0050817517
0.0049074798
0.0047439912
0.0045905202
0.0044452624
0.0043079134
0.0041767998
0.0040513831
0.0039314698
0.0038172369
0.0037096461
0.0036095544
0.0035173908
0.0034336287
0.003358719
0.0032930656
0.0032367715
0.0031893932
0.0031492992
0.0031149614
0.003084942
0.0030567867
0.0030286073
0.0029995308
0.0029693985
0.0029377468
0.0029049919
0.002871746
0.0028376103
0.0028026541
0.0027669399
0.0027302427
0.0026930875
0.0026559225
0.0026186772
0.0025814653
0.002544099
0.0025068927
0.0024701144
0.0024334884
0.0023968308
0.0023599554
0.0023226832
0.0022848582
0.0022470335
0.0022094266
0.0021716288
0.0021337607
0.0020961084
0.0020585259
0.0020206271
0.0019826036
0.0019444705
0.0019060033
0.0018672658
0.0018283289
0.0017890523
0.0017494242
0.0017095131
0.0016691994
0.0016284922
0.0015874143
0.0015458682
0.0015038819
0.0014614235
0.0014184746
0.0013750308
0.0013310413
0.0012865128
0.0012414242
0.0011957639
0.0011495222
0.0011026913
0.0010552668
0.001007249
0.00095864346
0.00090946459
0.00085973378
0.00080949466
0.00075879025
0.00070773925
0.00065638472
0.0006051068
0.00055371185
0.00050374532
0.00045318823
0.00040951532
0.00035960407
0.00034211914
0.00025877805
0.00056927985
-0.00046992601
0.0069700713
0.0067622981
0.006454066
0.0061582551
0.0059079652
0.0056792496
0.0054604628
0.0052586162
0.0050742597
0.0049027582
0.0047415273
0.0045898084
0.0044460707
0.0043098996
0.004179931
0.0040556034
0.0039367622
0.0038235787
0.0037168918
0.0036175066
0.0035258627
0.0034424117
0.0033675903
0.0033017705
0.003245031
0.0031969433
0.0031560033
0.0031207139
0.0030896564
0.0030605897
0.0030317097
0.0030020882
0.0029715421
0.0029396624
0.0029067694
0.0028733987
0.0028391966
0.0028041651
0.0027683447
0.0027315997
0.0026944205
0.0026572254
0.0026199837
0.0025827175
0.0025452409
0.0025078588
0.0024707491
0.0024338386
0.0023967354
0.0023595751
0.0023228042
0.0022861858
0.0022495389
0.0022126848
0.0021754299
0.0021377105
0.0020998945
0.0020620141
0.0020238097
0.0019855591
0.001947309
0.0019087871
0.0018700189
0.0018310519
0.0017917376
0.0017520675
0.0017121116
0.0016717475
0.0016309867
0.001589853
0.0015482488
0.0015062036
0.0014636851
0.001420676
0.0013771718
0.0013331218
0.0012885332
0.0012433849
0.0011976655
0.0011513655
0.001104477
0.0010569959
0.0010089225
0.00096026242
0.00091103015
0.00086124712
0.00081095699
0.0007602028
0.00070910325
0.00065770142
0.00060637729
0.00055493741
0.00050492649
0.00045432642
0.00041060899
0.00036065148
0.0003431298
0.00025968608
0.00057011188
-0.00046874102
0.0068181744
0.006640924
0.0063775089
0.0061110396
0.0058738043
0.0056538861
0.0054430858
0.0052468577
0.0050662018
0.0048975429
0.0047386454
0.0045887864
0.004446664
0.0043117907
0.0041830333
0.0040598483
0.0039421084
0.0038299821
0.0037242042
0.0036255245
0.00353439
0.0034512408
0.0033764974
0.0033104994
0.003253303
0.0032044875
0.0031626775
0.0031264366
0.0030943865
0.003064441
0.0030348631
0.003004722
0.0029737889
0.0029416582
0.0029085784
0.0028750276
0.0028406833
0.0028055286
0.0027696251
0.0027328722
0.0026957011
0.0026585069
0.0026212648
0.002583979
0.0025465096
0.0025091141
0.0024719529
0.0024349323
0.0023977044
0.0023604665
0.0023235567
0.0022867847
0.002249785
0.0022126411
0.0021757034
0.0021388007
0.0021017789
0.0020644584
0.0020266783
0.001988576
0.0019502697
0.0019115745
0.0018726215
0.0018335286
0.0017941486
0.0017544467
0.001714469
0.0016740807
0.0016332935
0.00159213
0.0015504911
0.0015084077
0.0014658475
0.0014227943
0.0013792442
0.0013351465
0.0012905092
0.0012453114
0.0011995421
0.0011531918
0.0011062531
0.0010587218
0.0010105984
0.00096188875
0.00091260743
0.00086277595
0.00081243806
0.00076163687
0.00071049108
0.00065904385
0.00060767499
0.00055619137
0.00050613655
0.00045549405
0.00041173078
0.00036172625
0.00034416443
0.00026060978
0.00057085982
-0.00046734169
0.0066781376
0.0065261926
0.0063006772
0.0060613701
0.0058380319
0.0056275316
0.0054248568
0.0052344504
0.0050577127
0.0048920381
0.0047355642
0.0045876359
0.0044471605
0.004313625
0.0041860897
0.0040640524
0.0039474074
0.0038363222
0.0037314442
0.0036334693
0.0035428473
0.0034600066
0.0033853484
0.003319183
0.0032615452
0.0032120261
0.0031693719
0.0031322074
0.0030991915
0.0030683761
0.0030381
0.0030074334
0.0029760955
0.0029436945
0.0029104121
0.0028766648
0.0028421743
0.0028069116
0.0027709392
0.0027341704
0.0026969886
0.0026597662
0.0026224874
0.0025851645
0.002547684
0.0025102736
0.0024730898
0.0024360428
0.0023988271
0.0023616014
0.0023246428
0.0022877527
0.0022506336
0.0022134357
0.0021764333
0.0021394108
0.0021021029
0.0020646251
0.0020271958
0.0019896482
0.0019518373
0.0019135894
0.0018749343
0.0018359525
0.0017965248
0.0017567116
0.0017166332
0.0016761831
0.0016353664
0.0015941865
0.0015525323
0.0015104331
0.0014678537
0.0014247774
0.0013812002
0.0013370717
0.0012924008
0.0012471671
0.0012013598
0.00115497
0.0011079906
0.0010604178
0.0010122523
0.00096349994
0.0009141757
0.0008643012
0.00081392031
0.00076307628
0.00071188786
0.00066039836
0.00060898732
0.00055746213
0.00050736482
0.00045668128
0.00041287148
0.00036281977
0.00034521481
0.00026154091
0.00057149583
-0.00046569555
0.0065484224
0.0064173794
0.0062236743
0.0060091941
0.0058002349
0.0055997396
0.0054054407
0.0052211474
0.0050486175
0.0048861279
0.0047322081
0.004586306
0.0044475319
0.0043153898
0.0041891072
0.0040682359
0.003952691
0.0038426409
0.0037386602
0.0036413938
0.0035512895
0.0034687629
0.0033941961
0.0033278724
0.0032698089
0.00321961
0.0031761301
0.0031380568
0.003104088
0.0030724055
0.0030414257
0.003010221
0.0029784654
0.0029457799
0.0029122858
0.0028783401
0.0028437026
0.0028083311
0.0027722828
0.0027354857
0.0026982839
0.0026610273
0.0026237127
0.0025863563
0.00254886
0.0025114295
0.0024742133
0.0024371304
0.0023998963
0.0023626468
0.0023256491
0.0022887262
0.0022516187
0.0022144326
0.002177379
0.002140251
0.0021028544
0.0020653465
0.002027894
0.0019901721
0.001952126
0.0019139496
0.0018756244
0.0018370251
0.0017979717
0.0017584871
0.0017186014
0.001678188
0.0016373224
0.0015960767
0.0015543749
0.0015122526
0.0014696618
0.0014265775
0.0013829918
0.0013388518
0.0012941658
0.0012489128
0.0012030828
0.0011566673
0.0011096595
0.0010620562
0.0010138583
0.00096507222
0.00091571305
0.00086580267
0.00081538516
0.00076450396
0.00071327789
0.00066175048
0.00061030099
0.00055873749
0.00050860003
0.00045787771
0.00041402139
0.00036392299
0.00034627237
0.00026247035
0.00057199047
-0.00046376657
0.0064276889
0.0063139563
0.0061468529
0.0059548189
0.0057603204
0.0055702244
0.0053845209
0.0052066446
0.0050386512
0.0048796013
0.0047284203
0.004584688
0.0044477136
0.004317052
0.0041920787
0.0040724093
0.0039579826
0.0038489704
0.0037458881
0.0036493336
0.0035597495
0.0034775393
0.0034030661
0.0033365892
0.0032781114
0.0032272511
0.0031829595
0.0031439891
0.0031090804
0.0030765355
0.0030448475
0.0030130945
0.0029809119
0.002947929
0.0029142129
0.0028800645
0.0028452738
0.0028097878
0.0027736581
0.0027368268
0.0026996022
0.0026623111
0.0026249609
0.0025875692
0.0025500526
0.002512597
0.0024753408
0.0024382128
0.0024009532
0.0023636819
0.0023266488
0.0022896953
0.0022525748
0.0022153633
0.0021782649
0.0021411086
0.0021037235
0.0020662184
0.0020286979
0.0019908877
0.0019528037
0.0019146262
0.0018762053
0.001837412
0.0017983259
0.0017590187
0.0017193965
0.0016792906
0.001638732
0.001597699
0.0015560756
0.0015139431
0.0014713143
0.0014282005
0.0013846007
0.0013404551
0.0012957667
0.0012505104
0.0012046743
0.001158249
0.0011112277
0.0010636073
0.0010153894
0.00096658053
0.00091719634
0.00086725902
0.00081681292
0.00076590175
0.00071464444
0.00066308484
0.00061160184
0.00056000441
0.00050983017
0.00045907228
0.00041517018
0.00036502625
0.00034732802
0.00026338813
0.00057230452
-0.0004615149
0.0063148233
0.006215488
0.0060706007
0.0058986828
0.0057183894
0.0055388744
0.0053619045
0.0051907114
0.0050275797
0.0048722458
0.0047240214
0.0045826375
0.0044475961
0.0043185279
0.004194944
0.004076531
0.0039632554
0.0038552958
0.0037531206
0.0036572859
0.0035682276
0.0034863373
0.0034119608
0.0033453361
0.0032864549
0.0032349505
0.0031898619
0.0031500074
0.003114173
0.0030807722
0.0030483728
0.0030160628
0.0029834442
0.0029501507
0.0029162016
0.0028818444
0.0028468937
0.0028112882
0.002775073
0.0027382026
0.0027009519
0.0026636247
0.0026262372
0.0025888085
0.0025512691
0.0025137863
0.0024764887
0.0024393142
0.002402027
0.0023647317
0.0023276575
0.0022906612
0.0022535109
0.0022162734
0.0021791427
0.0021419631
0.0021045681
0.0020670385
0.002029474
0.0019916498
0.001953579
0.0019153759
0.001876887
0.001838046
0.0017989671
0.0017595898
0.0017198092
0.0016796647
0.0016391952
0.0015983364
0.0015569809
0.001515123
0.0014726887
0.0014296616
0.0013860723
0.0013419089
0.001297206
0.0012519443
0.0012061086
0.001159685
0.001112664
0.0010650411
0.001016817
0.00096799841
0.0009186011
0.00086864763
0.00081818268
0.00076725033
0.00071596967
0.00066438496
0.00061287468
0.00056124889
0.00051104233
0.00046025306
0.00041630676
0.00036611915
0.000348372
0.00026428387
0.00057239916
-0.00045889833
0.006208887
0.0061215806
0.0059952512
0.0058412409
0.005674652
0.0055057165
0.005337526
0.0051732164
0.0050152344
0.0048638843
0.0047188428
0.0045800024
0.0044470487
0.0043197061
0.0041976115
0.0040805272
0.0039684515
0.0038615734
0.003760325
0.0036652265
0.003576706
0.0034951444
0.0034208718
0.0033541075
0.003294836
0.0032427061
0.003196837
0.0031561132
0.0031193683
0.0030851191
0.0030520066
0.0030191319
0.0029860682
0.0029524516
0.0029182585
0.0028836862
0.0028485691
0.0028128391
0.0027765344
0.0027396192
0.0027023383
0.0026649727
0.0026275459
0.002590079
0.0025525144
0.002515003
0.0024776636
0.0024404423
0.0024031256
0.0023658037
0.0023286861
0.0022916438
0.0022544612
0.0022171969
0.0021800289
0.0021428132
0.0021053904
0.0020678333
0.0020302408
0.0019924043
0.001954323
0.0019160921
0.0018775774
0.0018387339
0.0017996483
0.0017602288
0.0017204082
0.0016802712
0.0016397253
0.0015987331
0.0015573491
0.0015155449
0.0014732542
0.0014304615
0.0013871105
0.0013431114
0.0012984837
0.0012532388
0.0012073994
0.0011609728
0.0011139537
0.0010663353
0.0010181158
0.00096929993
0.00091990221
0.0008699448
0.00081947237
0.00076852922
0.00071723462
0.00066563328
0.00061410326
0.00056245589
0.00051222258
0.00046140716
0.0004174191
0.00036719037
0.00034939374
0.00026514552
0.00057223602
-0.00045586796
0.0061090797
0.0060318677
0.0059210645
0.0057829163
0.0056293652
0.0054708604
0.0053114095
0.005154111
0.0050015151
0.00485439
0.0047127488
0.004576648
0.0044459464
0.0043204725
0.0041999807
0.0040843112
0.0039734982
0.0038677438
0.0037674533
0.0036731168
0.0035851541
0.0035039368
0.0034297809
0.0033628904
0.0033032449
0.0032505108
0.0032038804
0.0031623043
0.0031246654
0.0030895771
0.0030557514
0.0030223053
0.0029887883
0.0029548368
0.002920389
0.0028855952
0.0028503054
0.0028144457
0.0027780469
0.0027410813
0.0027037657
0.0026663592
0.0026288914
0.0025913848
0.0025537929
0.0025162511
0.0024788692
0.0024416005
0.0024042524
0.0023669019
0.0023297401
0.0022926512
0.0022554354
0.002218142
0.0021809335
0.0021436775
0.0021062241
0.0020686382
0.0020310119
0.0019931488
0.0019550422
0.0019167841
0.0018782531
0.0018394007
0.0018002997
0.001760864
0.0017210335
0.0016808838
0.0016403144
0.0015993051
0.0015579049
0.0015160152
0.0014736373
0.0014308116
0.0013875003
0.0013436531
0.0012992352
0.0012541844
0.0012084741
0.0011621081
0.0011151079
0.0010674945
0.0010192795
0.00097047028
0.00092107995
0.0008711288
0.00082066008
0.00076971733
0.00071841939
0.00066681123
0.00061527031
0.00056360936
0.00051335601
0.0004625207
0.00041849423
0.00036822761
0.0003503818
0.00026595951
0.00057177451
-0.00045236918
0.0060147169
0.005946011
0.0058482304
0.0057240813
0.005582795
0.0054344565
0.0052836326
0.0051334051
0.0049863773
0.0048436846
0.0047056423
0.0045724686
0.0044441832
0.0043207238
0.0042019555
0.004087796
0.0039783183
0.0038737405
0.0037744493
0.0036809092
0.0035935324
0.003512682
0.0034386621
0.0033716641
0.0033116658
0.0032583521
0.0032109829
0.0031685742
0.00313006
0.0030941439
0.0030596068
0.0030255845
0.0029916069
0.0029573096
0.0029225969
0.0028875753
0.0028521066
0.0028161121
0.0027796146
0.0027425928
0.002705238
0.002667788
0.0026302771
0.0025927293
0.0025551077
0.0025175338
0.0024801084
0.0024427918
0.0024054102
0.0023680296
0.0023308229
0.0022936867
0.0022564361
0.0022191117
0.0021818613
0.0021445642
0.0021070793
0.0020694626
0.0020317986
0.0019939045
0.0019557701
0.0019174818
0.0018789259
0.0018400515
0.0018009262
0.0017614733
0.001721633
0.0016814696
0.0016408964
0.0015998826
0.0015584636
0.0015165575
0.0014741817
0.0014313093
0.0013879061
0.0013439976
0.0012995636
0.0012545814
0.0012090196
0.001162834
0.0011159885
0.0010684728
0.0010203041
0.00097151328
0.00092213257
0.00087219038
0.00082173096
0.00077079676
0.00071950508
0.00066790009
0.00061635791
0.00056469241
0.00051442682
0.00046357888
0.00041951826
0.00036921762
0.00035132386
0.00026671172
0.00057096988
-0.000448346
0.0059252118
0.0058637
0.0057768789
0.0056650534
0.0055351988
0.0053966726
0.0052543021
0.0051111458
0.0049698162
0.0048317279
0.0046974606
0.0045673875
0.004441676
0.0043203744
0.0042034513
0.0040909012
0.0039828378
0.0038794971
0.0037812537
0.0036885518
0.0036017959
0.003521342
0.0034474839
0.0033804029
0.0033200778
0.0032662132
0.0032181316
0.0031749133
0.0031355448
0.0030988146
0.0030635701
0.0030289685
0.0029945244
0.0029598715
0.0029248845
0.002889629
0.0028539754
0.002817841
0.0027812403
0.0027441566
0.0027067581
0.0026692618
0.0026317059
0.0025941153
0.0025564616
0.0025188537
0.002481384
0.0024440186
0.0024066019
0.0023691893
0.002331937
0.0022947527
0.0022574657
0.0022201086
0.0021828155
0.0021454765
0.0021079584
0.0020703092
0.0020326061
0.0019946798
0.0019565166
0.0019181958
0.0018796106
0.0018407103
0.0018015577
0.0017620811
0.001722221
0.0016820368
0.0016414484
0.001600423
0.001558993
0.001517087
0.0014747118
0.0014318277
0.0013884119
0.0013444781
0.0012999872
0.0012549435
0.0012093398
0.001163166
0.0011164064
0.0010690335
0.0010210172
0.00097234505
0.00092303471
0.00087312666
0.00082268417
0.00077176177
0.00072048066
0.00066888531
0.00061734984
0.00056568847
0.00051541885
0.00046456623
0.00042047658
0.00037014626
0.00035220684
0.00026738654
0.00056976639
-0.00044373826
0.0058400598
0.0057846524
0.0057070911
0.0056060975
0.0054868172
0.0053576816
0.0052235399
0.0050874023
0.0049518529
0.0048185066
0.004688167
0.0045613516
0.0044383625
0.0043193558
0.0042043979
0.0040935574
0.0039869899
0.0038849515
0.0037878099
0.0036959932
0.0036098989
0.0035298766
0.0034562116
0.0033890778
0.0033284568
0.0032740741
0.0032253103
0.0031813089
0.00314111
0.0031035817
0.0030676363
0.0030324543
0.0029975389
0.0029625222
0.0029272522
0.0028917572
0.0028559133
0.0028196341
0.0027829256
0.0027457747
0.0027083281
0.0026707827
0.0026331797
0.0025955446
0.0025578565
0.0025202128
0.0024826978
0.0024452831
0.0024078295
0.0023703831
0.0023330844
0.0022958513
0.0022585264
0.002221135
0.0021837985
0.0021464164
0.0021088637
0.0020711805
0.0020334375
0.0019954777
0.0019572843
0.0019189294
0.0018803134
0.001841386
0.0018022045
0.001762701
0.0017228174
0.0016826084
0.0016419982
0.0016009539
0.0015595066
0.0015175881
0.0014752004
0.0014323096
0.001388895
0.0013449594
0.0013004626
0.0012554023
0.0012097632
0.0011635399
0.0011167326
0.0010693412
0.0010213639
0.00097279224
0.00092361494
0.00087383008
0.00082347369
0.00077259958
0.00072134318
0.00066976265
0.00061823773
0.00056658561
0.00051631817
0.00046546795
0.00042135451
0.00037099882
0.00035301713
0.00026796692
0.00056810944
-0.0004384827
0.0057588247
0.0057086127
0.0056389094
0.0055474308
0.0054378705
0.0053176553
0.0051914751
0.0050622575
0.0049325259
0.0048040258
0.0046777431
0.0045543258
0.0044341966
0.0043176146
0.0042047377
0.0040957056
0.0039907166
0.003890048
0.0037940654
0.0037031844
0.0036177964
0.0035382455
0.0034648099
0.003397658
0.0033367766
0.0032819123
0.0032325004
0.003187746
0.0031467431
0.0031084356
0.0030717982
0.0030360368
0.0030006473
0.0029652596
0.002929699
0.0028939594
0.0028579203
0.0028214916
0.0027846714
0.002747448
0.0027099489
0.0026723519
0.0026346999
0.0025970187
0.002559294
0.0025216126
0.0024840514
0.0024465867
0.0024090945
0.0023716127
0.0023342669
0.0022969842
0.0022596198
0.0022221928
0.0021848119
0.0021473857
0.002109797
0.0020720787
0.0020342947
0.0019963002
0.0019580751
0.001919685
0.001881037
0.0018420814
0.0018028695
0.0017633376
0.001723429
0.0016831935
0.0016425592
0.0016014932
0.001560024
0.001518086
0.0014756799
0.0014327749
0.0013893497
0.0013454056
0.0013009057
0.0012558442
0.0012102029
0.0011639715
0.0011171426
0.0010697145
0.0010216939
0.00097309173
0.00092392371
0.00087420322
0.00082395405
0.00077319585
0.00072203185
0.00067050931
0.00061901484
0.00056737956
0.00051711798
0.00046627396
0.00042213988
0.00037176145
0.00035374136
0.00026843474
0.000565945
-0.00043251565
0.0056811277
0.0056353502
0.0055723466
0.0054892279
0.0053885573
0.0052767601
0.0051582395
0.0050358031
0.0049118855
0.0047883033
0.0046661836
0.0045462875
0.0044291443
0.0043151087
0.0042044237
0.0040972964
0.0039939679
0.0038947377
0.003799973
0.0037100807
0.0036254466
0.0035464102
0.0034732439
0.0034061129
0.0033450101
0.0032897044
0.003239682
0.0031942078
0.0031524304
0.0031133651
0.0030760471
0.0030397094
0.0030038444
0.0029680804
0.0029322226
0.002896234
0.0028599952
0.0028234131
0.0027864771
0.0027491766
0.002711621
0.0026739698
0.0026362669
0.0025985381
0.0025607747
0.002523054
0.0024854457
0.0024479304
0.0024103981
0.0023728792
0.0023354856
0.0022981526
0.0022607475
0.0022232834
0.0021858572
0.002148386
0.00211076
0.0020730053
0.0020351795
0.0019971489
0.001958891
0.0019204647
0.0018817835
0.0018427983
0.0018035549
0.0017639935
0.0017240586
0.0016837952
0.0016431355
0.0016020462
0.0015605532
0.0015185936
0.0014761668
0.0014332431
0.0013898007
0.001345841
0.001301329
0.0012562585
0.001210612
0.0011643783
0.0011175482
0.0010701162
0.0010220829
0.0009734549
0.00092425091
0.00087449751
0.0008242409
0.0007735202
0.00072243805
0.00067101761
0.00061961321
0.00056803963
0.00051780747
0.00046697891
0.00042282675
0.00037242468
0.00035436902
0.00026877242
0.00056322143
-0.00042577686
0.0056066382
0.0055646577
0.0055073938
0.0054316268
0.0053390539
0.0052351549
0.0051239648
0.005008136
0.0048899908
0.0047713671
0.0046534929
0.0045372237
0.0044231803
0.0043118042
0.0042034165
0.0040982875
0.0039967003
0.0038989774
0.0038054908
0.0037166413
0.0036328106
0.0035543342
0.0034814804
0.0034144122
0.0033531304
0.0032974264
0.0032468342
0.0032006767
0.0031581565
0.0031183573
0.0030803727
0.0030434643
0.0030071243
0.00297098
0.0029348196
0.0028985782
0.002862136
0.0028253966
0.0027883415
0.0027509594
0.0027133435
0.002675636
0.0026378805
0.0026001029
0.0025622989
0.0025245374
0.0024868813
0.0024493149
0.0024117409
0.0023741835
0.0023367414
0.0022993575
0.0022619103
0.0022244076
0.0021869354
0.0021494184
0.0021117537
0.0020739614
0.002036093
0.0019980253
0.0019597333
0.0019212699
0.0018825544
0.0018435384
0.0018042624
0.0017646704
0.0017247081
0.0016844157
0.0016437293
0.0016026155
0.0015610974
0.0015191149
0.0014766659
0.0014337214
0.0013902597
0.0013462814
0.0013017527
0.001256667
0.0012110078
0.0011647641
0.0011179274
0.0010704922
0.0010224574
0.0009738271
0.00092461532
0.0008748439
0.00082455861
0.00077380664
0.00072270828
0.00067130644
0.00061996114
0.00056847256
0.00051831831
0.00046754731
0.00042340109
0.00037298111
0.00035489477
0.00026896612
0.00055989755
-0.00041821682
0.0055350664
0.0054963482
0.0054440257
0.0053747335
0.0052895149
0.0051929895
0.0050887808
0.0049793568
0.004866908
0.0047532529
0.0046396833
0.0045271287
0.0044162863
0.0043076736
0.0042016825
0.0040986419
0.0039988752
0.0039027283
0.0038105802
0.0037228288
0.0036398524
0.0035619837
0.0034894876
0.0034225269
0.0033611112
0.0033050544
0.003253936
0.0032071341
0.0031639057
0.0031233989
0.003084764
0.0030472926
0.0030104798
0.0029739529
0.0029374857
0.0029009886
0.0028643398
0.00282744
0.0027902626
0.002752795
0.0027151154
0.0026773494
0.00263954
0.0026017124
0.0025638662
0.0025260625
0.0024883581
0.0024507402
0.0024131234
0.002375526
0.0023380348
0.0023005994
0.0022631089
0.0022255664
0.0021880475
0.0021504837
0.0021127791
0.0020749482
0.0020370363
0.0019989303
0.0019606032
0.0019221017
0.0018833509
0.001844303
0.0018049936
0.0017653699
0.001725379
0.0016850566
0.0016443425
0.001603203
0.0015616587
0.0015196522
0.0014771797
0.0014342132
0.0013907308
0.0013467324
0.001302185
0.0012570816
0.0012114061
0.0011651476
0.0011182981
0.0010708524
0.0010228099
0.00097417509
0.00092496112
0.0008751878
0.00082489719
0.00077413201
0.00072301029
0.00067157946
0.0006202125
0.00056872831
0.00051860985
0.00046790288
0.00042379927
0.00037339292
0.00035530334
0.00026899885
0.00055596024
-0.00040981024
0.005466157
0.0054302535
0.0053822061
0.0053186276
0.0052400736
0.0051504028
0.0050528135
0.0049495674
0.0048427087
0.0047340037
0.0046247743
0.0045160035
0.0044084493
0.0043026942
0.0041991924
0.0040983263
0.0040004574
0.0039059547
0.003815206
0.0037286086
0.0036465385
0.0035693264
0.0034972353
0.003430429
0.0033689267
0.0033125651
0.0032609661
0.0032135615
0.0031696615
0.0031284758
0.0030892093
0.0030511847
0.0030139032
0.0029769929
0.002940216
0.002903461
0.0028666031
0.0028295401
0.0027922377
0.0027546811
0.0027169347
0.0026791084
0.0026412438
0.0026033653
0.0025654756
0.0025276287