/*--------------------------------*- C++ -*----------------------------------*\
  =========                 |
  \\      /  F ield         | OpenFOAM: The Open Source CFD Toolbox
   \\    /   O peration     | Website:  https://openfoam.org
    \\  /    A nd           | Version:  12
     \\/     M anipulation  |
\*---------------------------------------------------------------------------*/
FoamFile
{
    format      ascii;
    class       volVectorField;
    location    "2000";
    object      U;
}
// * * * * * * * * * * * * * * * * * * * * * * * * * * * * * * * * * * * * * //

dimensions      [0 1 -1 0 0 0 0];

internalField   nonuniform List<vector> 
13056
(
(1 4.531088e-10 1.9722127e-24)
(0.99996593 1.5376989e-09 0)
(0.99989405 2.6523533e-09 0)
(0.99980249 3.6572911e-09 0)
(0.9996949 4.7738967e-09 0)
(0.999573 6.0546049e-09 0)
(0.99943796 7.5476049e-09 0)
(0.99929018 9.316494e-09 0)
(0.99912951 1.1434254e-08 0)
(0.99895542 1.3988051e-08 0)
(0.99876696 1.7086629e-08 0)
(0.99856277 2.087538e-08 0)
(0.9983408 2.5539361e-08 0)
(0.99809843 3.1368281e-08 0)
(0.99783134 3.8680064e-08 0)
(0.99753496 4.8268892e-08 0)
(0.99719778 6.0411955e-08 0)
(0.99681561 7.8706118e-08 0)
(0.99634295 9.9814347e-08 0)
(0.99581408 1.4808781e-07 0)
(0.99496672 1.8516886e-07 0)
(0.99417881 4.81585e-07 0)
(0.99095634 3.9104673e-07 -1.2697445e-20)
(0.9909527 0.00012019617 1.8351614e-16)
(0.038869281 0.00012390062 0)
(0.029730476 1.1541517e-07 -3.7020169e-20)
(0.027391737 4.3285394e-08 0)
(0.025849382 3.5553245e-08 0)
(0.024749328 2.7557018e-08 0)
(0.023864862 2.3050259e-08 0)
(0.023112494 1.9827921e-08 0)
(0.022464609 1.7138187e-08 0)
(0.021902907 1.4923927e-08 0)
(0.021409805 1.3141829e-08 0)
(0.020971353 1.1691093e-08 0)
(0.020577723 1.0474633e-08 0)
(0.020222128 9.4407587e-09 0)
(0.019898536 8.5757933e-09 0)
(0.019601344 7.8435157e-09 0)
(0.019326832 7.2050917e-09 0)
(0.019072118 6.6504736e-09 0)
(0.018834443 6.1653243e-09 0)
(0.018611719 5.7359544e-09 0)
(0.018402185 5.3546497e-09 0)
(0.018204344 5.0128636e-09 0)
(0.01801697 4.7057097e-09 0)
(0.017838934 4.4282592e-09 0)
(0.017669348 4.1751532e-09 0)
(0.017507433 3.9447066e-09 0)
(0.017352453 3.7328752e-09 0)
(0.017203882 3.5366913e-09 0)
(0.017061196 3.3565788e-09 0)
(0.016923849 3.1902632e-09 0)
(0.016791442 3.0354563e-09 0)
(0.016663603 2.8920896e-09 0)
(0.016539934 2.7592389e-09 0)
(0.016420107 2.6348881e-09 0)
(0.016303879 2.5180029e-09 0)
(0.016190996 2.4088512e-09 0)
(0.016081188 2.3065196e-09 0)
(0.015974253 2.2096701e-09 0)
(0.015870032 2.1180828e-09 0)
(0.015768337 2.031985e-09 0)
(0.015668972 1.95075e-09 0)
(0.015571794 1.8734362e-09 0)
(0.015476685 1.7998993e-09 0)
(0.015383513 1.7303159e-09 0)
(0.015292129 1.6644377e-09 0)
(0.015202414 1.6015062e-09 0)
(0.015114284 1.5411984e-09 0)
(0.015027653 1.4837643e-09 0)
(0.014942401 1.4292952e-09 0)
(0.014858417 1.3771485e-09 0)
(0.014775645 1.3268893e-09 0)
(0.014694019 1.2787704e-09 0)
(0.014613449 1.2328356e-09 0)
(0.014533848 1.1889177e-09 0)
(0.014455142 1.1465898e-09 0)
(0.014377288 1.1056963e-09 0)
(0.01430023 1.0664279e-09 0)
(0.014223889 1.0288788e-09 0)
(0.014148187 9.9272574e-10 0)
(0.014073084 9.5767402e-10 0)
(0.013998537 9.2382212e-10 0)
(0.013924488 8.9124562e-10 0)
(0.013850871 8.5994367e-10 0)
(0.013777621 8.2962872e-10 0)
(0.01370471 8.0012908e-10 0)
(0.013632099 7.7159795e-10 0)
(0.013559727 7.4409974e-10 0)
(0.013487531 7.1751302e-10 0)
(0.013415467 6.9164415e-10 0)
(0.013343501 6.664768e-10 0)
(0.013271588 6.4211557e-10 0)
(0.013199664 6.1859352e-10 0)
(0.013127667 5.9572674e-10 0)
(0.013055562 5.7339263e-10 0)
(0.012983311 5.5169878e-10 0)
(0.012910847 5.3070396e-10 0)
(0.012838105 5.1027101e-10 0)
(0.012765044 4.9028488e-10 0)
(0.01269162 4.7081974e-10 0)
(0.012617766 4.5193906e-10 0)
(0.012543406 4.3355659e-10 0)
(0.012468485 4.1557534e-10 0)
(0.01239295 3.9804063e-10 0)
(0.012316719 3.810084e-10 0)
(0.012239703 3.6439095e-10 0)
(0.012161839 3.4812441e-10 0)
(0.012083049 3.3226854e-10 0)
(0.012003227 3.1684215e-10 0)
(0.011922265 3.0174203e-10 0)
(0.011840091 2.8706902e-10 0)
(0.01175839 2.7318892e-10 0)
(0.011679737 2.6028792e-10 0)
(0.011604866 2.4835904e-10 0)
(0.011533479 2.3736608e-10 0)
(0.011465291 2.2723057e-10 0)
(0.011400056 2.1783594e-10 0)
(0.01133756 2.0910478e-10 0)
(0.011277606 2.0101195e-10 0)
(0.01122 1.9351703e-10 0)
(0.011164568 1.8653368e-10 0)
(0.011111169 1.8000281e-10 0)
(0.011059666 1.7391793e-10 0)
(0.011009924 1.6826466e-10 0)
(0.010961817 1.6303196e-10 0)
(0.010915215 1.5815756e-10 0)
(0.010870032 1.5373621e-10 0)
(0.01082608 1.4960917e-10 0)
(0.010783376 1.4649633e-10 0)
(0.010741289 1.4316692e-10 0)
(0.010700627 1.4347695e-10 0)
(0.010658333 6.8673344e-10 0)
(0.010620898 1.6663299e-10 2.36918e-22)
(0.0105604 5.266901e-10 0)
(1 1.3660095e-09 0)
(0.99996593 4.6371161e-09 0)
(0.99989402 7.9991715e-09 0)
(0.99980242 1.1030646e-08 0)
(0.99969476 1.4398886e-08 0)
(0.99957278 1.8261977e-08 0)
(0.99943765 2.2765238e-08 0)
(0.99928977 2.8100443e-08 0)
(0.999129 3.4487657e-08 0)
(0.9989548 4.2189701e-08 0)
(0.99876622 5.1534459e-08 0)
(0.99856191 6.2960302e-08 0)
(0.99833982 7.7025199e-08 0)
(0.99809734 9.4602643e-08 0)
(0.99783012 1.1665119e-07 0)
(0.99753362 1.4556533e-07 0)
(0.99719631 1.8218083e-07 0)
(0.99681402 2.3734203e-07 0)
(0.99634123 3.009886e-07 0)
(0.99581224 4.4653337e-07 0)
(0.99496474 5.5833464e-07 0)
(0.99417674 1.451968e-06 0)
(0.99095419 1.1798151e-06 4.5319127e-20)
(0.99095035 0.00035343605 -7.6742938e-20)
(0.11333082 0.00035878849 0)
(0.088156076 5.5723171e-06 0)
(0.081301415 1.9445603e-06 0)
(0.076808511 1.3265444e-06 0)
(0.073601171 9.898334e-07 0)
(0.071020099 8.098608e-07 0)
(0.068822138 6.8676366e-07 0)
(0.066927225 5.8776248e-07 0)
(0.065282635 5.076216e-07 0)
(0.063837581 4.4384237e-07 0)
(0.062551648 3.9238321e-07 0)
(0.061396318 3.4959353e-07 0)
(0.060351904 3.134898e-07 0)
(0.059400899 2.8335862e-07 0)
(0.058527018 2.5799028e-07 0)
(0.057719403 2.3603802e-07 0)
(0.056969676 2.1699104e-07 0)
(0.056269794 2.0041437e-07 0)
(0.055613667 1.858096e-07 0)
(0.05499616 1.7287237e-07 0)
(0.054412898 1.6132724e-07 0)
(0.053860303 1.5098182e-07 0)
(0.053335078 1.4166395e-07 0)
(0.052834623 1.3320038e-07 0)
(0.052356667 1.2550711e-07 0)
(0.051899053 1.1846158e-07 0)
(0.051460243 1.1196186e-07 0)
(0.051038706 1.0600087e-07 0)
(0.050632842 1.0051445e-07 0)
(0.05024148 9.5423599e-08 0)
(0.049863533 9.0715642e-08 0)
(0.049497836 8.6362943e-08 0)
(0.049143422 8.2300137e-08 0)
(0.048799581 7.8491561e-08 0)
(0.048465571 7.4939198e-08 0)
(0.048140595 7.1617024e-08 0)
(0.047824063 6.848148e-08 0)
(0.047515504 6.5522096e-08 0)
(0.047214371 6.274415e-08 0)
(0.046920089 6.0128601e-08 0)
(0.046632231 5.7645759e-08 0)
(0.046350459 5.5288186e-08 0)
(0.046074378 5.3060983e-08 0)
(0.045803553 5.0955749e-08 0)
(0.04553763 4.894961e-08 0)
(0.045276369 4.7030779e-08 0)
(0.045019511 4.520612e-08 0)
(0.044766704 4.3477803e-08 0)
(0.044517624 4.1826827e-08 0)
(0.044272102 4.023931e-08 0)
(0.044029944 3.8720768e-08 0)
(0.043790889 3.7273943e-08 0)
(0.043554675 3.5892424e-08 0)
(0.043321088 3.4563857e-08 0)
(0.043089995 3.3282511e-08 0)
(0.042861236 3.2053796e-08 0)
(0.042634578 3.0880351e-08 0)
(0.04240979 2.9752545e-08 0)
(0.04218675 2.8661436e-08 0)
(0.041965334 2.7608819e-08 0)
(0.04174537 2.6597663e-08 0)
(0.041526662 2.5627141e-08 0)
(0.041309021 2.4689068e-08 0)
(0.041092358 2.3777974e-08 0)
(0.04087656 2.2897823e-08 0)
(0.040661446 2.2050863e-08 0)
(0.040446833 2.123317e-08 0)
(0.040232585 2.0439111e-08 0)
(0.040018605 1.966775e-08 0)
(0.039804757 1.892223e-08 0)
(0.039590849 1.8203302e-08 0)
(0.039376699 1.7505685e-08 0)
(0.039162205 1.6825584e-08 0)
(0.038947251 1.6165893e-08 0)
(0.038731639 1.5528379e-08 0)
(0.038515173 1.4909018e-08 0)
(0.038297731 1.430437e-08 0)
(0.038079187 1.3716371e-08 0)
(0.037859334 1.3146894e-08 0)
(0.037637949 1.2593411e-08 0)
(0.037414868 1.2053046e-08 0)
(0.037189932 1.1526976e-08 0)
(0.036962897 1.1016777e-08 0)
(0.036733498 1.0519938e-08 0)
(0.036501542 1.0034555e-08 0)
(0.036266798 9.5622036e-09 0)
(0.036028952 9.1034875e-09 0)
(0.035787679 8.655343e-09 0)
(0.035542763 8.2205974e-09 0)
(0.035299224 7.8099174e-09 0)
(0.035064745 7.4290872e-09 0)
(0.034841512 7.0778115e-09 0)
(0.034628643 6.7546517e-09 0)
(0.034425294 6.4572013e-09 0)
(0.034230729 6.1819654e-09 0)
(0.034044318 5.926574e-09 0)
(0.033865472 5.6901729e-09 0)
(0.033693612 5.4715008e-09 0)
(0.033528225 5.2680323e-09 0)
(0.033368891 5.0779948e-09 0)
(0.033215204 4.9011026e-09 0)
(0.033066761 4.7369062e-09 0)
(0.032923184 4.5850258e-09 0)
(0.032784092 4.4436215e-09 0)
(0.032649222 4.3154367e-09 0)
(0.032518023 4.1955075e-09 0)
(0.03239054 4.105195e-09 0)
(0.032264893 4.0066922e-09 0)
(0.032143491 4.015951e-09 0)
(0.032017222 3.878935e-09 0)
(0.031905439 4.7307803e-09 -3.5865559e-22)
(0.031724776 2.9604092e-09 2.7505093e-23)
(1 2.299521e-09 0)
(0.99996592 7.8068799e-09 0)
(0.99989399 1.346829e-08 0)
(0.99980232 1.857365e-08 0)
(0.99969458 2.4246027e-08 0)
(0.99957251 3.0751497e-08 0)
(0.99943726 3.833471e-08 0)
(0.99928925 4.7318518e-08 0)
(0.99912835 5.8073374e-08 0)
(0.99895401 7.1041703e-08 0)
(0.99876529 8.6775433e-08 0)
(0.99856083 1.0601248e-07 0)
(0.99833859 1.2969207e-07 0)
(0.99809595 1.5928454e-07 0)
(0.99782858 1.964034e-07 0)
(0.99753193 2.4507921e-07 0)
(0.99719447 3.067188e-07 0)
(0.99681202 3.9957559e-07 0)
(0.99633907 5.0671694e-07 0)
(0.99580992 7.5170552e-07 0)
(0.99496224 9.3990916e-07 0)
(0.99417414 2.4439933e-06 0)
(0.99095151 1.9871252e-06 -2.3963705e-20)
(0.99094747 0.00057055517 8.0646951e-54)
(0.1807969 0.00058320622 -9.5409043e-54)
(0.14097538 1.630451e-05 0)
(0.13018677 5.6813622e-06 0)
(0.12328856 3.821876e-06 0)
(0.11837328 2.8479767e-06 0)
(0.11441631 2.3300695e-06 0)
(0.1110421 1.9770289e-06 0)
(0.10812783 1.6934017e-06 0)
(0.1055939 1.463684e-06 0)
(0.10336356 1.2807439e-06 0)
(0.10137559 1.1330445e-06 0)
(0.099586826 1.0101314e-06 0)
(0.097967549 9.0633629e-07 0)
(0.096491223 8.196472e-07 0)
(0.095132994 7.4662673e-07 0)
(0.093876348 6.8340701e-07 0)
(0.092708553 6.2851673e-07 0)
(0.091617316 5.8072626e-07 0)
(0.09059334 5.386026e-07 0)
(0.089628777 5.0127062e-07 0)
(0.088716933 4.6794344e-07 0)
(0.087852332 4.3806763e-07 0)
(0.087029918 4.1114927e-07 0)
(0.086245707 3.8669108e-07 0)
(0.085496217 3.6445049e-07 0)
(0.08477813 3.4407665e-07 0)
(0.084089093 3.2527525e-07 0)
(0.083426756 3.0802599e-07 0)
(0.082788648 2.9214619e-07 0)
(0.082172971 2.774071e-07 0)
(0.081578054 2.637724e-07 0)
(0.081002096 2.5116387e-07 0)
(0.080443602 2.3939239e-07 0)
(0.07990148 2.2835467e-07 0)
(0.079374585 2.1805685e-07 0)
(0.078861681 2.084246e-07 0)
(0.078361855 1.9933147e-07 0)
(0.077874385 1.9074708e-07 0)
(0.077398421 1.8268733e-07 0)
(0.076933069 1.7509747e-07 0)
(0.076477669 1.6789132e-07 0)
(0.076031698 1.6104716e-07 0)
(0.075594544 1.5458032e-07 0)
(0.075165528 1.4846666e-07 0)
(0.074744099 1.4263984e-07 0)
(0.074329886 1.3706544e-07 0)
(0.073922486 1.3176366e-07 0)
(0.073521351 1.267411e-07 0)
(0.073125971 1.2194263e-07 0)
(0.072736085 1.173278e-07 0)
(0.072351392 1.1291258e-07 0)
(0.071971484 1.087054e-07 0)
(0.071595948 1.0468756e-07 0)
(0.071224447 1.0082318e-07 0)
(0.070856778 9.70955e-08 0)
(0.070492687 9.352039e-08 0)
(0.070131808 9.0105688e-08 0)
(0.069773778 8.6823398e-08 0)
(0.069418402 8.3647458e-08 0)
(0.069065488 8.0583026e-08 0)
(0.068714764 7.7638984e-08 0)
(0.068365918 7.4812902e-08 0)
(0.068018651 7.208099e-08 0)
(0.067672824 6.942726e-08 0)
(0.067328257 6.6863274e-08 0)
(0.066984664 6.4395726e-08 0)
(0.066641749 6.201317e-08 0)
(0.066299298 5.969919e-08 0)
(0.065957157 5.7451032e-08 0)
(0.065615108 5.5277935e-08 0)
(0.065272845 5.3182121e-08 0)
(0.064930074 5.1148209e-08 0)
(0.064586632 4.9165101e-08 0)
(0.064242334 4.7241262e-08 0)
(0.06389686 4.5381903e-08 0)
(0.063549896 4.3575294e-08 0)
(0.063201243 4.1811378e-08 0)
(0.062850699 4.0095811e-08 0)
(0.062497928 3.8434113e-08 0)
(0.062142571 3.6818904e-08 0)
(0.061784361 3.524179e-08 0)
(0.061423041 3.3706211e-08 0)
(0.061058214 3.2216795e-08 0)
(0.060689449 3.0766224e-08 0)
(0.060316432 2.934893e-08 0)
(0.059938788 2.7969522e-08 0)
(0.059556006 2.6629794e-08 0)
(0.059167556 2.5320782e-08 0)
(0.058773082 2.4050731e-08 0)
(0.058380671 2.2850842e-08 0)
(0.058002707 2.173809e-08 0)
(0.057642738 2.071161e-08 0)
(0.057299358 1.9767184e-08 0)
(0.056971221 1.8897818e-08 0)
(0.056657156 1.8093306e-08 0)
(0.05635616 1.7346733e-08 0)
(0.056067291 1.665562e-08 0)
(0.055789626 1.6016294e-08 0)
(0.055522347 1.5421379e-08 0)
(0.055264779 1.4865698e-08 0)
(0.055016277 1.4348423e-08 0)
(0.054776193 1.3868251e-08 0)
(0.054543924 1.342408e-08 0)
(0.054318859 1.3010526e-08 0)
(0.054100576 1.2635651e-08 0)
(0.053888186 1.2284853e-08 0)
(0.05368177 1.2020892e-08 0)
(0.053478279 1.1732545e-08 0)
(0.053281629 1.176065e-08 0)
(0.053077037 1.1286761e-08 0)
(0.052895889 1.3866359e-08 0)
(0.05260306 8.5973871e-09 0)
(1 3.2674607e-09 4.0527102e-24)
(0.99996591 1.1094143e-08 0)
(0.99989394 1.9141435e-08 0)
(0.9998022 2.6399415e-08 0)
(0.99969436 3.4463294e-08 0)
(0.99957217 4.3711056e-08 0)
(0.99943678 5.4490362e-08 0)
(0.99928862 6.7259984e-08 0)
(0.99912756 8.2546311e-08 0)
(0.99895304 1.0097797e-07 0)
(0.99876415 1.2333919e-07 0)
(0.99855951 1.5067842e-07 0)
(0.99833708 1.8433013e-07 0)
(0.99809426 2.2638343e-07 0)
(0.9978267 2.7913078e-07 0)
(0.99752986 3.4829896e-07 0)
(0.99719221 4.3588658e-07 0)
(0.99680957 5.6782857e-07 0)
(0.99633643 7.2006609e-07 0)
(0.99580709 1.0681548e-06 0)
(0.99495919 1.3355957e-06 0)
(0.99417095 3.4724113e-06 0)
(0.99094827 2.824295e-06 0)
(0.990944 0.000778314 -4.1962676e-54)
(0.23876228 0.000804251 4.2385128e-54)
(0.18491638 3.228778e-05 0)
(0.17079404 1.1110773e-05 0)
(0.16209873 7.3754892e-06 0)
(0.15594579 5.4884186e-06 0)
(0.15100463 4.4913311e-06 0)
(0.14679314 3.8143251e-06 0)
(0.14315356 3.2709903e-06 0)
(0.13998604 2.8306375e-06 0)
(0.13719512 2.4796754e-06 0)
(0.13470481 2.1960809e-06 0)
(0.13246166 1.959814e-06 0)
(0.13042906 1.7600579e-06 0)
(0.12857418 1.5930815e-06 0)
(0.12686608 1.4523412e-06 0)
(0.12528433 1.3303835e-06 0)
(0.1238132 1.2244054e-06 0)
(0.1224374 1.1320793e-06 0)
(0.12114538 1.0506447e-06 0)
(0.11992741 9.7842536e-07 0)
(0.11877517 9.1391442e-07 0)
(0.11768186 8.5605018e-07 0)
(0.11664118 8.038844e-07 0)
(0.11564817 7.564589e-07 0)
(0.11469852 7.133108e-07 0)
(0.11378807 6.7376402e-07 0)
(0.11291392 6.3724784e-07 0)
(0.11207313 6.0372967e-07 0)
(0.11126262 5.7285883e-07 0)
(0.11048015 5.4418992e-07 0)
(0.10972365 5.1765704e-07 0)
(0.10899085 4.9311241e-07 0)
(0.10827988 4.7018678e-07 0)
(0.10758939 4.486797e-07 0)
(0.10691795 4.2860669e-07 0)
(0.10626401 4.0982459e-07 0)
(0.10562641 3.9208555e-07 0)
(0.10500428 3.7533142e-07 0)
(0.10439653 3.5959607e-07 0)
(0.10380204 3.447732e-07 0)
(0.10322 3.3069364e-07 0)
(0.10264973 3.1731566e-07 0)
(0.10209049 3.0467128e-07 0)
(0.10154141 2.9271399e-07 0)
(0.10100179 2.8131334e-07 0)
(0.10047117 2.7040188e-07 0)
(0.099949053 2.6002072e-07 0)
(0.099434738 2.501839e-07 0)
(0.098927581 2.4078279e-07 0)
(0.098427254 2.3173765e-07 0)
(0.097933383 2.2308077e-07 0)
(0.097445446 2.1482978e-07 0)
(0.09696292 2.0694788e-07 0)
(0.096485377 1.9936437e-07 0)
(0.096012561 1.9204627e-07 0)
(0.095544153 1.8502565e-07 0)
(0.095079685 1.7831849e-07 0)
(0.094618689 1.7186947e-07 0)
(0.094160922 1.6562707e-07 0)
(0.09370614 1.5960183e-07 0)
(0.093253995 1.5381186e-07 0)
(0.092804084 1.4825248e-07 0)
(0.092356023 1.4287663e-07 0)
(0.091909637 1.3765268e-07 0)
(0.091464694 1.3260388e-07 0)
(0.091020824 1.2774382e-07 0)
(0.090577646 1.2304981e-07 0)
(0.090134883 1.1848936e-07 0)
(0.089692336 1.1405712e-07 0)
(0.089249723 1.0977169e-07 0)
(0.088806645 1.0563764e-07 0)
(0.088362719 1.0162442e-07 0)
(0.087917736 9.7710025e-08 0)
(0.087471451 9.3911497e-08 0)
(0.087023449 9.0239345e-08 0)
(0.086573314 8.6670244e-08 0)
(0.08612079 8.3184231e-08 0)
(0.085665608 7.9792694e-08 0)
(0.085207327 7.650674e-08 0)
(0.084745476 7.3311702e-08 0)
(0.084279702 7.0190904e-08 0)
(0.083809663 6.7151296e-08 0)
(0.083334835 6.4202195e-08 0)
(0.082854651 6.1329034e-08 0)
(0.082368693 5.8520753e-08 0)
(0.081876461 5.5786626e-08 0)
(0.081377278 5.3130304e-08 0)
(0.080870441 5.0533893e-08 0)
(0.080355472 4.8013808e-08 0)
(0.079842924 4.5632214e-08 0)
(0.079348987 4.3422873e-08 0)
(0.078878327 4.138408e-08 0)
(0.078429139 3.9507633e-08 0)
(0.077999693 3.7779754e-08 0)
(0.077588479 3.6180286e-08 0)
(0.077194207 3.4695556e-08 0)
(0.076815663 3.332077e-08 0)
(0.076451658 3.2048717e-08 0)
(0.076101131 3.0864739e-08 0)
(0.075763216 2.9758572e-08 0)
(0.075437077 2.8728659e-08 0)
(0.075121876 2.7772478e-08 0)
(0.074816831 2.6887898e-08 0)
(0.074521149 2.6064173e-08 0)
(0.074234285 2.5317594e-08 0)
(0.073955074 2.4618799e-08 0)
(0.073683636 2.4094149e-08 0)
(0.073415944 2.3519627e-08 0)
(0.073157198 2.3581383e-08 0)
(0.072887835 2.2670038e-08 0)
(0.072649334 2.7822433e-08 0)
(0.072263693 1.7254789e-08 0)
(1 4.284316e-09 0)
(0.99996591 1.4548391e-08 0)
(0.99989389 2.5104365e-08 0)
(0.99980206 3.4626617e-08 0)
(0.9996941 4.5205904e-08 0)
(0.99957176 5.7337685e-08 0)
(0.99943621 7.1477863e-08 0)
(0.99928787 8.8228015e-08 0)
(0.9991266 1.0827834e-07 0)
(0.99895189 1.3245309e-07 0)
(0.99876278 1.6178044e-07 0)
(0.99855792 1.9763508e-07 0)
(0.99833528 2.4176659e-07 0)
(0.99809223 2.9691404e-07 0)
(0.99782445 3.6608296e-07 0)
(0.99752738 4.5678183e-07 0)
(0.99718951 5.7163051e-07 0)
(0.99680664 7.4463272e-07 0)
(0.99633326 9.4424263e-07 0)
(0.99580369 1.400629e-06 0)
(0.99495553 1.7512779e-06 0)
(0.99416713 4.5526131e-06 0)
(0.99094442 3.703946e-06 0)
(0.99093992 0.0009815549 0)
(0.28884997 0.0010246146 0)
(0.22150549 5.3611279e-05 0)
(0.20434552 1.8052435e-05 0)
(0.1941768 1.1796221e-05 0)
(0.18705196 8.7517536e-06 0)
(0.18135562 7.155964e-06 0)
(0.17651022 6.0781906e-06 0)
(0.17232561 5.215386e-06 0)
(0.16868429 4.5164198e-06 0)
(0.16547565 3.9593264e-06 0)
(0.16261195 3.5090605e-06 0)
(0.16003168 3.1337085e-06 0)
(0.15769295 2.8161198e-06 0)
(0.15555812 2.5505376e-06 0)
(0.15359153 2.3266153e-06 0)
(0.15176981 2.1324564e-06 0)
(0.15007498 1.9636493e-06 0)
(0.14848942 1.8165374e-06 0)
(0.14699994 1.6867192e-06 0)
(0.14559536 1.5715408e-06 0)
(0.14426615 1.4686144e-06 0)
(0.14300452 1.3762565e-06 0)
(0.14180322 1.2929616e-06 0)
(0.1406566 1.2172034e-06 0)
(0.13955969 1.1482547e-06 0)
(0.13850772 1.0850378e-06 0)
(0.13749738 1.0266379e-06 0)
(0.1365253 9.7301465e-07 0)
(0.13558793 9.2361027e-07 0)
(0.13468272 8.7770875e-07 0)
(0.13380729 8.3521305e-07 0)
(0.13295904 7.9589259e-07 0)
(0.13213582 7.5915211e-07 0)
(0.13133608 7.2467084e-07 0)
(0.13055818 6.9248028e-07 0)
(0.12980033 6.6235239e-07 0)
(0.12906122 6.3388615e-07 0)
(0.12833983 6.0699035e-07 0)
(0.12763493 5.817242e-07 0)
(0.12694521 5.5791713e-07 0)
(0.12626974 5.3529516e-07 0)
(0.12560776 5.1379257e-07 0)
(0.1249584 4.9346446e-07 0)
(0.12432067 4.7423678e-07 0)
(0.12369375 4.558979e-07 0)
(0.12307713 4.3833902e-07 0)
(0.12247022 4.2162929e-07 0)
(0.12187223 4.0579311e-07 0)
(0.12128239 3.9065371e-07 0)
(0.12070035 3.7608172e-07 0)
(0.12012566 3.6213128e-07 0)
(0.11955773 3.4883245e-07 0)
(0.11899595 3.3612555e-07 0)
(0.11843982 3.2389565e-07 0)
(0.11788905 3.1208948e-07 0)
(0.11734327 3.0076048e-07 0)
(0.11680194 2.8993547e-07 0)
(0.11626451 2.7952416e-07 0)
(0.1157307 2.6944276e-07 0)
(0.11520023 2.5970918e-07 0)
(0.1146727 2.5035374e-07 0)
(0.11414763 2.4136904e-07 0)
(0.11362458 2.3267825e-07 0)
(0.11310333 2.2422994e-07 0)
(0.11258364 2.1606275e-07 0)
(0.11206505 2.0819933e-07 0)
(0.11154712 2.0060258e-07 0)
(0.11102954 1.9321947e-07 0)
(0.11051206 1.8604159e-07 0)
(0.10999436 1.7909981e-07 0)
(0.10947596 1.7240177e-07 0)
(0.10895641 1.6589747e-07 0)
(0.10843548 1.5955105e-07 0)
(0.10791287 1.5339082e-07 0)
(0.10738809 1.474342e-07 0)
(0.10686064 1.4164292e-07 0)
(0.10633024 1.359844e-07 0)
(0.10579655 1.3047758e-07 0)
(0.10525905 1.2514083e-07 0)
(0.10471719 1.199501e-07 0)
(0.10417054 1.1487813e-07 0)
(0.10361871 1.0993653e-07 0)
(0.10306106 1.0514073e-07 0)
(0.10249692 1.0046681e-07 0)
(0.10192579 9.589671e-08 0)
(0.10134708 9.144582e-08 0)
(0.10075998 8.7120228e-08 0)
(0.10016364 8.2890519e-08 0)
(0.099557497 7.878354e-08 0)
(0.098953964 7.4901101e-08 0)
(0.098372114 7.1298319e-08 0)
(0.097817469 6.797235e-08 0)
(0.097287932 6.4910111e-08 0)
(0.096781487 6.2089427e-08 0)
(0.096296375 5.9477485e-08 0)
(0.095831096 5.7052121e-08 0)
(0.095384234 5.4805767e-08 0)
(0.094954399 5.2726796e-08 0)
(0.094540356 5.0791255e-08 0)
(0.094141091 4.8982438e-08 0)
(0.093755632 4.729799e-08 0)
(0.093382996 4.5733904e-08 0)
(0.093022269 4.4286813e-08 0)
(0.092672518 4.2939082e-08 0)
(0.09233311 4.171784e-08 0)
(0.092002666 4.057448e-08 0)
(0.091681346 3.9718552e-08 0)
(0.091364341 3.8778467e-08 0)
(0.091057903 3.8891542e-08 0)
(0.09073864 3.7405611e-08 0)
(0.09045602 4.5909974e-08 -3.2315919e-22)
(0.089998969 2.846002e-08 2.4826991e-23)
(1 5.3653157e-09 0)
(0.9999659 1.8221645e-08 0)
(0.99989382 3.1447382e-08 0)
(0.9998019 4.3380389e-08 0)
(0.9996938 5.6637639e-08 0)
(0.99957128 7.1839372e-08 0)
(0.99943553 8.9556581e-08 0)
(0.99928697 1.1054268e-07 0)
(0.99912548 1.3566203e-07 0)
(0.99895052 1.6594678e-07 0)
(0.99876116 2.0268447e-07 0)
(0.99855604 2.4759646e-07 0)
(0.99833314 3.0287362e-07 0)
(0.99808983 3.7194579e-07 0)
(0.99782178 4.5857636e-07 0)
(0.99752445 5.7216756e-07 0)
(0.9971863 7.1599921e-07 0)
(0.99680317 9.3265148e-07 0)
(0.99632951 1.182619e-06 0)
(0.99579968 1.7541171e-06 0)
(0.9949512 2.1932096e-06 0)
(0.99416261 5.7006686e-06 0)
(0.9909399 4.6393919e-06 0)
(0.9909352 0.0011836651 0)
(0.33353108 0.0012480399 0)
(0.25323421 8.1124191e-05 0)
(0.23314078 2.6686427e-05 0)
(0.22163748 1.7142912e-05 0)
(0.21366516 1.2664574e-05 0)
(0.20732397 1.0338002e-05 0)
(0.20194419 8.7763531e-06 0)
(0.19730372 7.5306734e-06 0)
(0.19326831 6.5228126e-06 0)
(0.18971371 5.7199667e-06 0)
(0.18654188 5.071238e-06 0)
(0.18368423 4.53036e-06 0)
(0.18109429 4.0725582e-06 0)
(0.17873029 3.6897006e-06 0)
(0.17655255 3.3668969e-06 0)
(0.17453518 3.0869055e-06 0)
(0.17265829 2.8434176e-06 0)
(0.17090231 2.631204e-06 0)
(0.16925262 2.4438933e-06 0)
(0.16769687 2.2776717e-06 -3.994403e-33)
(0.16622446 2.1291035e-06 0)
(0.16482679 1.9957662e-06 0)
(0.16349584 1.8754903e-06 0)
(0.16222533 1.7660709e-06 0)
(0.16100979 1.6664729e-06 0)
(0.15984392 1.5751386e-06 0)
(0.15872404 1.4907384e-06 0)
(0.15764645 1.4132288e-06 0)
(0.15660721 1.3418047e-06 0)
(0.15560351 1.2754236e-06 0)
(0.15463273 1.2139566e-06 0)
(0.15369197 1.1570773e-06 0)
(0.15277885 1.1039175e-06 0)
(0.15189168 1.0540126e-06 0)
(0.15102864 1.0074173e-06 0)
(0.15018773 9.6380259e-07 0)
(0.1493675 9.225817e-07 0)
(0.14856685 8.8362513e-07 0)
(0.1477844 8.470252e-07 0)
(0.1470187 8.1253405e-07 0)
(0.14626873 7.7975073e-07 0)
(0.14553365 7.4858172e-07 0)
(0.14481249 7.1911184e-07 0)
(0.14410415 6.9123429e-07 0)
(0.14340773 6.6463885e-07 0)
(0.14272266 6.3916718e-07 0)
(0.14204831 6.1492384e-07 0)
(0.14138377 5.9194653e-07 0)
(0.14072821 5.6997545e-07 0)
(0.14008122 5.4882127e-07 0)
(0.13944234 5.2856576e-07 0)
(0.13881088 5.0925469e-07 0)
(0.13818618 4.9080059e-07 0)
(0.13756768 4.7303484e-07 0)
(0.13695506 4.5587993e-07 0)
(0.13634791 4.3941601e-07 0)
(0.13574563 4.2368331e-07 0)
(0.1351476 4.0854887e-07 0)
(0.13455352 3.9388985e-07 0)
(0.13396309 3.7973372e-07 0)
(0.13337584 3.6612597e-07 0)
(0.13279125 3.5305593e-07 0)
(0.13220881 3.4041052e-07 0)
(0.13162832 3.2811445e-07 0)
(0.13104947 3.1622555e-07 0)
(0.13047176 3.0477758e-07 0)
(0.12989471 2.9371583e-07 0)
(0.12931795 2.829624e-07 0)
(0.12874122 2.7250535e-07 0)
(0.12816416 2.6239075e-07 0)
(0.12758623 2.5262999e-07 0)
(0.12700694 2.4314933e-07 0)
(0.126426 2.338962e-07 0)
(0.1258431 2.2491293e-07 0)
(0.12525768 2.1622539e-07 0)
(0.12466919 2.0777703e-07 0)
(0.12407729 1.9952e-07 0)
(0.12348163 1.9148264e-07 0)
(0.12288162 1.8369221e-07 0)
(0.12227662 1.7611316e-07 0)
(0.12166617 1.6870543e-07 0)
(0.1210498 1.6148646e-07 0)
(0.12042683 1.5447916e-07 0)
(0.11979648 1.4764815e-07 0)
(0.11915819 1.4096693e-07 0)
(0.11851129 1.3445847e-07 0)
(0.11785487 1.2813182e-07 0)
(0.11718798 1.219435e-07 0)
(0.11650997 1.1593289e-07 0)
(0.11583473 1.102497e-07 0)
(0.1151836 1.0497472e-07 0)
(0.11456277 1.0010357e-07 0)
(0.11396992 9.5617414e-08 0)
(0.1134028 9.148416e-08 0)
(0.11285946 8.7655764e-08 0)
(0.11233823 8.4099934e-08 0)
(0.11183754 8.0805917e-08 0)
(0.11135584 7.7756838e-08 0)
(0.11089174 7.4917515e-08 0)
(0.11044414 7.2263532e-08 0)
(0.11001194 6.9791694e-08 0)
(0.10959405 6.7496264e-08 0)
(0.10918944 6.5372447e-08 0)
(0.10879708 6.3394239e-08 0)
(0.10841626 6.1602169e-08 0)
(0.10804543 5.9923998e-08 0)
(0.1076848 5.8671498e-08 0)
(0.10732889 5.7291549e-08 0)
(0.10698486 5.747507e-08 0)
(0.10662615 5.5286326e-08 0)
(0.10630873 6.7870069e-08 0)
(0.10579539 4.2052891e-08 -1.1881409e-23)
(1 6.5266551e-09 0)
(0.99996589 2.2169286e-08 0)
(0.99989375 3.826678e-08 0)
(0.99980171 5.2794332e-08 0)
(0.99969344 6.8933496e-08 0)
(0.99957073 8.7438426e-08 0)
(0.99943474 1.0900379e-07 0)
(0.99928593 1.3454615e-07 0)
(0.99912416 1.6511694e-07 0)
(0.99894892 2.0197168e-07 0)
(0.99875927 2.4667647e-07 0)
(0.99855385 3.0132508e-07 0)
(0.99833064 3.6858225e-07 0)
(0.99808702 4.5261983e-07 0)
(0.99781866 5.5801511e-07 0)
(0.99752102 6.9620439e-07 0)
(0.99718256 8.7117595e-07 0)
(0.99679911 1.1347219e-06 0)
(0.99632512 1.4387861e-06 0)
(0.99579498 2.1339278e-06 0)
(0.99494614 2.6679901e-06 0)
(0.99415733 6.9337054e-06 0)
(0.99093464 5.6447786e-06 0)
(0.99092981 0.0013871454 0)
(0.37464189 0.0014788828 0)
(0.28187628 0.00011508993 0)
(0.25885423 3.7292791e-05 0)
(0.24606933 2.3545752e-05 0)
(0.2373095 1.7307959e-05 0)
(0.23037948 1.4097912e-05 0)
(0.22451693 1.1957523e-05 0)
(0.2194672 1.0257321e-05 0)
(0.21507954 8.884046e-06 0)
(0.21121682 7.7910413e-06 0)
(0.20777132 6.9083047e-06 0)
(0.20466789 6.1723971e-06 0)
(0.20185585 5.5494422e-06 0)
(0.19928964 5.0285288e-06 0)
(0.19692593 4.5893913e-06 0)
(0.1947365 4.2084304e-06 0)
(0.19269974 3.8771126e-06 0)
(0.19079432 3.5883638e-06 0)
(0.18900432 3.3334738e-06 0)
(0.18731632 3.1072641e-06 3.5996489e-33)
(0.1857188 2.9050655e-06 0)
(0.18420239 2.7235843e-06 0)
(0.18275837 2.5598681e-06 0)
(0.18137995 2.4109099e-06 0)
(0.18006115 2.2753189e-06 0)
(0.1787962 2.1509696e-06 0)
(0.17758113 2.0360389e-06 0)
(0.17641193 1.9304846e-06 0)
(0.17528429 1.8332091e-06 0)
(0.17419518 1.7427814e-06 0)
(0.17314176 1.6590398e-06 0)
(0.17212089 1.581548e-06 0)
(0.17112996 1.5091125e-06 0)
(0.17016716 1.441099e-06 0)
(0.16923051 1.3775937e-06 0)
(0.16831784 1.3181481e-06 0)
(0.16742757 1.261954e-06 0)
(0.1665585 1.2088376e-06 0)
(0.16570916 1.158933e-06 0)
(0.16487796 1.1119007e-06 0)
(0.16406378 1.067188e-06 0)
(0.16326573 1.0246695e-06 0)
(0.16248276 9.8446711e-07 0)
(0.16171366 9.4643553e-07 0)
(0.16095745 9.1014669e-07 0)
(0.16021354 8.7538352e-07 0)
(0.15948122 8.4229424e-07 0)
(0.15875952 8.1093319e-07 0)
(0.15804752 7.8094096e-07 0)
(0.15734479 7.5205679e-07 0)
(0.15665083 7.2439662e-07 0)
(0.15596489 6.9802553e-07 0)
(0.15528624 6.728228e-07 0)
(0.15461429 6.4855567e-07 0)
(0.15394868 6.2511805e-07 0)
(0.15328899 6.0262269e-07 0)
(0.15263453 5.811261e-07 0)
(0.15198466 5.6044409e-07 0)
(0.15133903 5.4040732e-07 0)
(0.15069732 5.2105529e-07 0)
(0.15005903 5.0245193e-07 0)
(0.14942359 4.8458266e-07 0)
(0.14879044 4.6729099e-07 0)
(0.14815936 4.504733e-07 0)
(0.14753002 4.3421087e-07 0)
(0.14690188 4.1855082e-07 0)
(0.1462744 4.0341726e-07 0)
(0.14564719 3.8870261e-07 0)
(0.14501997 3.7439102e-07 0)
(0.14439234 3.6054692e-07 0)
(0.14376372 3.4718617e-07 0)
(0.14313355 3.3420657e-07 0)
(0.14250155 3.2153574e-07 0)
(0.14186736 3.0923308e-07 0)
(0.14123037 2.9733458e-07 0)
(0.14058999 2.8576171e-07 0)
(0.13994584 2.7444849e-07 0)
(0.13929754 2.6343474e-07 0)
(0.13864444 2.5275828e-07 0)
(0.13798585 2.4236979e-07 0)
(0.13732126 2.3221397e-07 0)
(0.13665017 2.2231542e-07 0)
(0.1359718 2.1270597e-07 0)
(0.13528533 2.0333651e-07 0)
(0.13459015 1.9417051e-07 0)
(0.1338855 1.8524013e-07 0)
(0.1331704 1.7655794e-07 0)
(0.13244381 1.6806365e-07 0)
(0.13170501 1.5981134e-07 0)
(0.13096914 1.5200753e-07 0)
(0.13025946 1.4476326e-07 0)
(0.12958272 1.3807212e-07 0)
(0.12893639 1.3190857e-07 0)
(0.12831805 1.2622892e-07 0)
(0.12772557 1.2096717e-07 0)
(0.12715713 1.1607911e-07 0)
(0.12661104 1.1155038e-07 0)
(0.1260856 1.0735793e-07 0)
(0.12557932 1.0345327e-07 0)
(0.12509098 9.9802918e-08 0)
(0.12461939 9.6402812e-08 0)
(0.12416337 9.3245197e-08 0)
(0.12372181 9.0323637e-08 0)
(0.12329357 8.7602172e-08 0)
(0.1228779 8.5137481e-08 0)
(0.12247307 8.2828939e-08 0)
(0.12207934 8.1111006e-08 0)
(0.12169069 7.9212359e-08 0)
(0.12131503 7.948729e-08 0)
(0.12092305 7.6468728e-08 -2.9520141e-23)
(0.12057635 9.3880911e-08 0)
(0.12001569 5.8148993e-08 0)
(1 7.7857497e-09 0)
(0.99996587 2.6450971e-08 0)
(0.99989367 4.5666465e-08 0)
(0.99980149 6.3012814e-08 0)
(0.99969303 8.2282728e-08 0)
(0.99957008 1.0437536e-07 0)
(0.99943382 1.3011948e-07 0)
(0.99928471 1.6060859e-07 0)
(0.99912263 1.9709696e-07 0)
(0.99894706 2.4108221e-07 0)
(0.99875707 2.9443238e-07 0)
(0.9985513 3.596449e-07 0)
(0.99832774 4.3989817e-07 0)
(0.99808376 5.4016825e-07 0)
(0.99781504 6.659145e-07 0)
(0.99751703 8.3077801e-07 0)
(0.9971782 1.0395144e-06 0)
(0.99679439 1.3539008e-06 0)
(0.99632003 1.7166114e-06 0)
(0.99578952 2.5457746e-06 0)
(0.99494026 3.1827868e-06 0)
(0.99415119 8.27004e-06 0)
(0.99092858 6.7354117e-06 0)
(0.99092369 0.0015939168 -1.0907652e-53)
(0.41341 0.0017198044 6.9095777e-54)
(0.30857651 0.00015752906 -7.061039e-20)
(0.28256474 5.0232778e-05 0)
(0.26850368 3.1178347e-05 0)
(0.25898325 2.2791493e-05 0)
(0.25149341 1.8518551e-05 0)
(0.24517618 1.5689212e-05 0)
(0.23974311 1.3451963e-05 0)
(0.23502668 1.1648452e-05 0)
(0.2308772 1.0214469e-05 0)
(0.2271776 9.057118e-06 0)
(0.2238464 8.0925268e-06 0)
(0.22082887 7.2759959e-06 0)
(0.21807589 6.5933579e-06 0)
(0.21554062 6.0180248e-06 0)
(0.21319267 5.5188796e-06 0)
(0.21100879 5.0847854e-06 0)
(0.20896599 4.7065119e-06 0)
(0.20704715 4.3725889e-06 0)
(0.20523781 4.0762388e-06 0)
(0.20352558 3.8113462e-06 0)