/*--------------------------------*- C++ -*----------------------------------*\
  =========                 |
  \\      /  F ield         | OpenFOAM: The Open Source CFD Toolbox
   \\    /   O peration     | Website:  https://openfoam.org
    \\  /    A nd           | Version:  12
     \\/     M anipulation  |
\*---------------------------------------------------------------------------*/
FoamFile
{
    format      ascii;
    class       volVectorField;
    location    "2000";
    object      wallShearStress;
}
// * * * * * * * * * * * * * * * * * * * * * * * * * * * * * * * * * * * * * //

dimensions      [0 2 -2 0 0 0 0];

internalField   uniform (0 0 0);

boundaryField
{
    bottom
    {
        type            calculated;
        value           nonuniform List<vector> 
112
(
(-0.007755888 -3.5547445e-05 0)
(-0.0059323326 -2.2035015e-07 -1.4319287e-17)
(-0.0054656629 -7.5014636e-08 9.949276e-18)
(-0.0051579034 -5.2317353e-08 -3.3437973e-18)
(-0.0049384003 -3.9229557e-08 0)
(-0.0047619155 -3.2201814e-08 0)
(-0.0046117893 -2.7369386e-08 0)
(-0.0044825116 -2.346333e-08 0)
(-0.0043704308 -2.0293528e-08 0)
(-0.0042720382 -1.776689e-08 -2.2169613e-18)
(-0.0041845505 -1.5725406e-08 0)
(-0.0041060064 -1.4025284e-08 -1.7441535e-18)
(-0.0040350518 -1.2588944e-08 1.5632369e-18)
(-0.003970483 -1.1389634e-08 -1.412284e-18)
(-0.0039111821 -1.0378997e-08 0)
(-0.0038564066 -9.5033073e-09 1.1754178e-18)
(-0.0038055816 -8.7431795e-09 0)
(-0.0037581566 -8.0811033e-09 -4.9861588e-19)
(-0.0037137148 -7.4973261e-09 0)
(-0.0036719049 -6.9799013e-09 -8.5958166e-19)
(-0.0036324282 -6.5177929e-09 8.0191362e-19)
(-0.0035950401 -6.1034846e-09 0)
(-0.0035595153 -5.7301045e-09 0)
(-0.0035256766 -5.3907065e-09 0)
(-0.0034933685 -5.0820826e-09 -6.231195e-19)
(-0.0034624442 -4.7992468e-09 0)
(-0.0034327987 -4.5381444e-09 0)
(-0.0034043276 -4.2986076e-09 0)
(-0.0033769217 -4.0780069e-09 0)
(-0.0033505016 -3.8731896e-09 -4.7316048e-19)
(-0.003324993 -3.6837293e-09 4.4971019e-19)
(-0.0033003164 -3.5084892e-09 0)
(-0.0032764065 -3.3448191e-09 0)
(-0.0032532147 -3.191325e-09 0)
(-0.0032306904 -3.0481128e-09 3.7117441e-19)
(-0.0032087796 -2.9141193e-09 0)
(-0.0031874421 -2.7875802e-09 0)
(-0.0031666461 -2.6680995e-09 -3.2433405e-19)
(-0.0031463542 -2.5559288e-09 0)
(-0.0031265272 -2.4502593e-09 0)
(-0.0031071366 -2.3499053e-09 0)
(-0.0030881588 -2.2545839e-09 2.7346721e-19)
(-0.0030695676 -2.1644963e-09 -1.3120132e-19)
(-0.0030513331 -2.0793121e-09 2.5194576e-19)
(-0.0030334316 -1.9981106e-09 0)
(-0.0030158464 -1.9204098e-09 0)
(-0.0029985604 -1.8464886e-09 -3.3509893e-19)
(-0.0029815494 -1.7764715e-09 0)
(-0.0029647915 -1.709551e-09 2.0662841e-19)
(-0.0029482755 -1.6451634e-09 0)
(-0.0029319881 -1.5835729e-09 0)
(-0.0029159114 -1.5248687e-09 -9.2022142e-20)
(-0.002900028 -1.4687963e-09 -8.8596756e-20)
(-0.0028843233 -1.4148472e-09 0)
(-0.0028687885 -1.3627921e-09 -1.6425548e-19)
(-0.0028534126 -1.3128732e-09 0)
(-0.0028381798 -1.2651918e-09 0)
(-0.0028230745 -1.2193372e-09 0)
(-0.0028080886 -1.174953e-09 0)
(-0.0027932138 -1.1321326e-09 0)
(-0.0027784383 -1.0909811e-09 0)
(-0.002763749 -1.0514778e-09 0)
(-0.0027491329 -1.0132798e-09 0)
(-0.0027345845 -9.7615835e-10 0)
(-0.0027200959 -9.4029264e-10 -1.1282488e-19)
(-0.002705655 -9.0577439e-10 0)
(-0.0026912493 -8.7243658e-10 -5.2294685e-20)
(-0.0026768699 -8.4004852e-10 0)
(-0.00266251 -8.0857787e-10 -4.8423847e-20)
(-0.0026481607 -7.781482e-10 9.3161697e-20)
(-0.0026338092 -7.4879503e-10 8.9607667e-20)
(-0.0026194432 -7.2030743e-10 -4.3079842e-20)
(-0.0026050556 -6.9252509e-10 0)
(-0.0025906389 -6.655664e-10 0)
(-0.0025761797 -6.3950549e-10 7.6390285e-20)
(-0.002561665 -6.1417492e-10 -7.3331254e-20)
(-0.0025470866 -5.8944252e-10 0)
(-0.0025324358 -5.6538144e-10 0)
(-0.0025176992 -5.4206823e-10 -6.4631391e-20)
(-0.0025028617 -5.1940555e-10 0)
(-0.0024879122 -4.9727054e-10 0)
(-0.0024728402 -4.7571401e-10 0)
(-0.0024576293 -4.5480194e-10 0)
(-0.0024422618 -4.3442699e-10 0)
(-0.0024267251 -4.1451267e-10 0)
(-0.0024110036 -3.9513007e-10 0)
(-0.0023950762 -3.7630081e-10 0)
(-0.0023789213 -3.5789565e-10 4.2480958e-20)
(-0.0023625246 -3.4003409e-10 -4.0339211e-20)
(-0.0023462223 -3.2315814e-10 0)
(-0.0023305281 -3.0750132e-10 0)
(-0.0023155886 -2.9305163e-10 0)
(-0.0023013443 -2.797557e-10 0)
(-0.0022877383 -2.6751194e-10 0)
(-0.0022747216 -2.5617916e-10 0)
(-0.0022622513 -2.4566072e-10 0)
(-0.0022502883 -2.359189e-10 0)
(-0.0022387938 -2.2690725e-10 -2.6808658e-20)
(-0.0022277331 -2.1852054e-10 0)
(-0.0022170781 -2.1068564e-10 0)
(-0.0022068013 -2.0339151e-10 0)
(-0.002196876 -1.9661725e-10 0)
(-0.0021872769 -1.9035217e-10 0)
(-0.0021779781 -1.8451762e-10 0)
(-0.0021689624 -1.7922882e-10 0)
(-0.0021601924 -1.742837e-10 0)
(-0.0021516714 -1.7056126e-10 0)
(-0.0021432735 -1.6650652e-10 0)
(-0.00213516 -1.6691024e-10 0)
(-0.0021267208 -3.0643457e-10 0)
(-0.0021192511 -1.9631349e-10 -2.3237973e-20)
(-0.0021071796 -2.3401099e-10 0)
)
;
    }
    back
    {
        type            empty;
    }
    front
    {
        type            empty;
    }
    inlet
    {
        type            calculated;
        value           uniform (0 0 0);
    }
    outlet
    {
        type            calculated;
        value           uniform (0 0 0);
    }
    top
    {
        type            calculated;
        value           uniform (0 0 0);
    }
    slipsurface
    {
        type            calculated;
        value           uniform (0 0 0);
    }
}


// ************************************************************************* //
