/*--------------------------------*- C++ -*----------------------------------*\
  =========                 |
  \\      /  F ield         | OpenFOAM: The Open Source CFD Toolbox
   \\    /   O peration     | Website:  https://openfoam.org
    \\  /    A nd           | Version:  12
     \\/     M anipulation  |
\*---------------------------------------------------------------------------*/
FoamFile
{
    format      ascii;
    class       volScalarField;
    location    "2000";
    object      yPlus;
}
// * * * * * * * * * * * * * * * * * * * * * * * * * * * * * * * * * * * * * //

dimensions      [];

internalField   uniform 0;

boundaryField
{
    inlet
    {
        type            calculated;
        value           uniform 0;
    }
    top
    {
        type            calculated;
        value           uniform 0;
    }
    outlet
    {
        type            calculated;
        value           uniform 0;
    }
    slipsurface
    {
        type            calculated;
        value           uniform 0;
    }
    bottom
    {
        type            calculated;
        value           nonuniform List<scalar> 
100
(
116.35593
115.20732
113.93554
112.58595
111.19925
109.80334
108.40849
107.01922
105.63977
104.27371
102.92397
101.59291
100.28317
98.997658
97.739887
96.514495
95.32827
94.191135
93.111539
92.09688
91.153743
90.287697
89.502798
88.801876
88.184987
87.647861
87.182306
86.777236
86.419284
86.094673
85.791501
85.501104
85.218063
84.939457
84.663961
84.39061
84.118143
83.845178
83.570628
83.294197
83.016547
82.738836
82.462202
82.187367
81.914671
81.644345
81.376642
81.111787
80.849963
80.591338
80.336001
80.083926
79.835074
79.589465
79.34711
79.10794
78.871871
78.63887
78.408871
78.181796
77.957584
77.736168
77.517464
77.301408
77.087946
76.877011
76.668543
76.462488
76.258779
76.057358
75.858167
75.661146
75.466237
75.273384
75.082534
74.893634
74.706632
74.521478
74.338123
74.15652
73.976621
73.798384
73.621762
73.446714
73.273197
73.101167
72.930584
72.761401
72.59358
72.427055
72.261806
72.097683
71.934794
71.772568
71.611854
71.450004
71.291542
71.122846
70.984125
70.721151
)
;
    }
    frontandback
    {
        type            empty;
    }
}


// ************************************************************************* //
