#      distance             U_x             U_y             U_z wallShearStr... wallShearStr... wallShearStr...               p         epsilon               k             nut
              0      0.99985389               0               0               0               0               0    0.0048744372     0.004544839   9.8444715e-05   1.9191498e-07
   0.0021021021       0.9998491               0               0               0               0               0    0.0049022982    0.0045448096   9.8435472e-05   1.9188019e-07
   0.0042042042       0.9998443               0               0               0               0               0    0.0049301592    0.0045447802   9.8426229e-05    1.918454e-07
   0.0063063063       0.9998395               0               0               0               0               0    0.0049580203    0.0045447508   9.8416986e-05    1.918106e-07
   0.0084084084      0.99983471               0               0               0               0               0    0.0049858813    0.0045447214   9.8407743e-05   1.9177581e-07
    0.010510511      0.99982898               0               0               0               0               0    0.0050176391    0.0045447221   9.8399503e-05   1.9174366e-07
    0.012612613      0.99982267               0               0               0               0               0    0.0050518173    0.0045447414   9.8391885e-05   1.9171316e-07
    0.014714715      0.99981637               0               0               0               0               0    0.0050859954    0.0045447608   9.8384267e-05   1.9168266e-07
    0.016816817      0.99981006               0               0               0               0               0    0.0051201735    0.0045447802   9.8376649e-05   1.9165216e-07
    0.018918919      0.99980376               0               0               0               0               0    0.0051543516    0.0045447996   9.8369031e-05   1.9162166e-07
    0.021021021      0.99979719               0               0               0               0               0    0.0051895256    0.0045448258   9.8361605e-05   1.9159161e-07
    0.023123123      0.99978887               0               0               0               0               0    0.0052313944     0.004544898   9.8355467e-05   1.9156467e-07
    0.025225225      0.99978054               0               0               0               0               0    0.0052732633    0.0045449701   9.8349329e-05   1.9153772e-07
    0.027327327      0.99977222               0               0               0               0               0    0.0053151321    0.0045450423    9.834319e-05   1.9151077e-07
    0.029429429       0.9997639               0               0               0               0               0    0.0053570009    0.0045451144   9.8337052e-05   1.9148382e-07
    0.031531532      0.99975488               0               0               0               0               0    0.0054012801    0.0045452017   9.8331279e-05   1.9145765e-07
    0.033633634      0.99974383               0               0               0               0               0    0.0054525995    0.0045453333   9.8326573e-05   1.9143379e-07
    0.035735736      0.99973279               0               0               0               0               0    0.0055039188    0.0045454648   9.8321866e-05   1.9140993e-07
    0.037837838      0.99972175               0               0               0               0               0    0.0055552382    0.0045455963    9.831716e-05   1.9138606e-07
     0.03993994       0.9997107               0               0               0               0               0    0.0056065575    0.0045457279   9.8312453e-05    1.913622e-07
    0.042042042      0.99969626               0               0               0               0               0    0.0056686028    0.0045459221   9.8309085e-05   1.9134092e-07
    0.044144144      0.99968149               0               0               0               0               0    0.0057316533    0.0045461222   9.8305843e-05   1.9131987e-07
    0.046246246      0.99966673               0               0               0               0               0    0.0057947038    0.0045463223     9.83026e-05   1.9129883e-07
    0.048348348      0.99965178               0               0               0               0               0    0.0058582978    0.0045465254   9.8299415e-05   1.9127789e-07
     0.05045045       0.9996319               0               0               0               0               0    0.0059361592     0.004546806   9.8297741e-05   1.9125957e-07
    0.052552553      0.99961203               0               0               0               0               0    0.0060140206    0.0045470866   9.8296066e-05   1.9124125e-07
    0.054654655      0.99959215               0               0               0               0               0     0.006091882    0.0045473673   9.8294392e-05   1.9122293e-07
    0.056756757      0.99956816               0               0               0               0               0    0.0061803336    0.0045477021   9.8293703e-05   1.9120617e-07
    0.058858859      0.99954093               0               0               0               0               0    0.0062771345    0.0045480796   9.8293791e-05   1.9119064e-07
    0.060960961       0.9995137               0               0               0               0               0    0.0063739354    0.0045484572   9.8293879e-05   1.9117511e-07
    0.063063063       0.9994821               0               0               0               0               0    0.0064814536     0.004548885    9.829484e-05   1.9116087e-07
    0.065165165      0.99944458               0               0               0               0               0    0.0066034613    0.0045493806   9.8296982e-05   1.9114837e-07
    0.067267267      0.99940706               0               0               0               0               0    0.0067254691    0.0045498763   9.8299123e-05   1.9113587e-07
    0.069369369      0.99935962               0               0               0               0               0    0.0068670625    0.0045504635     9.83028e-05   1.9112551e-07
    0.071471471      0.99930511               0               0               0               0               0    0.0070226203    0.0045511159   9.8307574e-05   1.9111668e-07
    0.073573574      0.99925059               0               0               0               0               0    0.0071781781    0.0045517682   9.8312347e-05   1.9110784e-07
    0.075675676      0.99917395               0               0               0               0               0    0.0073837556    0.0045526351   9.8320507e-05   1.9110318e-07
    0.077777778      0.99909705               0               0               0               0               0     0.007589901    0.0045535043   9.8328706e-05   1.9109856e-07
     0.07987988      0.99898747               0               0               0               0               0    0.0078369472    0.0045545117   9.8340107e-05    1.911006e-07
    0.081981982       0.9988559               0               0               0               0               0    0.0081114916     0.004555612   9.8353661e-05   1.9110711e-07
    0.084084084       0.9987028               0               0               0               0               0    0.0084403824    0.0045575182   9.8373098e-05   1.9110273e-07
    0.086186186      0.99851341               0               0               0               0               0    0.0088608192    0.0045607818   9.8402443e-05      1.9108e-07
    0.088288288      0.99822617               0  -9.8310845e-22               0               0               0    0.0093260445    0.0045604159   9.8420716e-05   1.9116733e-07
     0.09039039      0.99768252               0  -4.5425056e-21               0               0               0    0.0099086406    0.0045505386   9.8409974e-05   1.9154307e-07
    0.092492492       0.9972319               0   1.5930161e-17               0               0               0     0.010827176    0.0046271919   9.8657268e-05   1.8983226e-07
    0.094594595      0.99702655               0   7.3891822e-17               0               0               0     0.012631534    0.0049320145   9.9584969e-05   1.8261949e-07
    0.096696697      0.90907432               0   1.1236459e-16   -0.0006884211   -3.153453e-06               0     0.014010918       5.8969023   9.1534724e-05   1.6085506e-07
    0.098798799      0.64791887               0   1.1236832e-16   -0.0027357136  -1.2531493e-05               0     0.014551448       23.418406   6.5762951e-05   1.1036719e-07
      0.1009009      0.38670306               0   8.7136778e-17   -0.0045724486  -1.7916906e-05   -1.721385e-18     0.013740689       42.610696    3.957806e-05   6.3212104e-08
       0.103003      0.12540676               0   2.8258222e-17   -0.0061284403  -1.7978816e-05    -5.73795e-18     0.011128213       64.030703   1.2842346e-05    2.050073e-08
     0.10510511               0               0               0   -0.0065444698  -1.3184967e-05  -6.0541905e-18    0.0088253708       75.095597   1.0997025e-08    1.670579e-12
     0.10720721               0               0               0   -0.0059084761  -3.9099415e-06  -2.9555566e-18    0.0068082764       76.604191   1.1403641e-08   1.4259437e-12
     0.10930931               0               0               0   -0.0055087675  -1.3705534e-07   6.1536256e-20    0.0056673727       74.650788   1.0840919e-08   1.2771998e-12
     0.11141141               0               0               0   -0.0052691458  -9.1955954e-08   3.0233839e-18    0.0051201021       70.351827    9.621454e-09   1.1934238e-12
     0.11351351               0               0               0   -0.0050849593  -6.8763083e-08   2.0426398e-18    0.0047361317       66.664495   8.6380812e-09   1.1304505e-12
     0.11561562               0               0               0   -0.0049298237  -5.7050343e-08  -1.0042234e-18    0.0044377388       63.297687   7.7784327e-09    1.078379e-12
     0.11771772               0               0               0   -0.0048029746  -4.9167703e-08  -1.2394413e-18    0.0041860112       60.521401   7.1101412e-09   1.0365775e-12
     0.11981982               0               0               0   -0.0046882763  -4.2930325e-08  -2.6688401e-19    0.0039543293       57.998781   6.5240493e-09   9.9918775e-13
     0.12192192               0               0               0    -0.004590254  -3.8393285e-08               0     0.003771041       55.875045   6.0557564e-09   9.6773071e-13
     0.12402402               0               0               0   -0.0044985385  -3.4499309e-08               0    0.0036060552       53.902166   5.6320148e-09   9.3851743e-13
     0.12612613               0               0               0   -0.0044188296  -3.1357971e-08               0    0.0034761258       52.217476   5.2862897e-09   9.1346863e-13
     0.12822823               0               0               0   -0.0043434786  -2.8489813e-08               0    0.0033589207       50.637388   4.9688815e-09   8.8993139e-13
     0.13033033               0               0               0   -0.0042773368  -2.6098231e-08               0    0.0032607123       49.271072   4.7049245e-09   8.6950689e-13
     0.13243243               0               0               0   -0.0042147204  -2.3889085e-08               0     0.003169776       47.986588   4.4614288e-09   8.5027397e-13
     0.13453453               0               0               0   -0.0041589208   -2.203531e-08  -3.7550022e-19     0.003089253       46.855871   4.2539702e-09   8.3329824e-13
     0.13663664               0               0               0    -0.004106137  -2.0338746e-08  -9.1711476e-19    0.0030133367       45.793179   4.0624537e-09   8.1732105e-13
     0.13873874               0               0               0   -0.0040582663  -1.8885575e-08  -1.1102738e-18    0.0029455359       44.838956   3.8950053e-09   8.0294333e-13
     0.14084084               0               0               0   -0.0040131191  -1.7567324e-08  -1.1102739e-18    0.0028822339       43.944861   3.7408984e-09   7.8945226e-13
     0.14294294               0               0               0   -0.0039714354  -1.6406594e-08  -1.0364971e-18    0.0028256226       43.125786   3.6026554e-09   7.7707216e-13
     0.14504505               0               0               0   -0.0039323367   -1.536343e-08  -9.0765659e-19    0.0027740049       42.362705   3.4762523e-09   7.6552126e-13
     0.14714715               0               0               0   -0.0038955767  -1.4418844e-08  -6.7205929e-19    0.0027256373       41.649476    3.359949e-09   7.5471078e-13
     0.14924925               0               0               0   -0.0038613473  -1.3580925e-08  -3.2094639e-19    0.0026807864       40.990191   3.2545739e-09   7.4470148e-13
     0.15135135               0               0               0   -0.0038285733  -1.2799362e-08   -6.743948e-20    0.0026374608       40.361532   3.1551665e-09    7.351476e-13
     0.15345345               0               0               0   -0.0037983247  -1.2115592e-08   1.6696024e-20    0.0025967818       39.786019   3.0661147e-09   7.2638398e-13
     0.15555556               0               0               0   -0.0037688306  -1.1458625e-08   3.4741564e-21    0.0025574365       39.226151    2.980005e-09   7.1785388e-13
     0.15765766               0               0               0   -0.0037418951  -1.0892568e-08  -3.3996535e-19    0.0025226148       38.719351    2.903874e-09   7.1011577e-13
     0.15975976               0               0               0   -0.0037151426  -1.0332664e-08  -6.2489571e-19    0.0024881017       38.216295   2.8284245e-09   7.0243374e-13
     0.16186186               0               0               0   -0.0036909893  -9.8601979e-09  -7.8412315e-20    0.0024579723       37.766423   2.7626601e-09   6.9554848e-13
     0.16396396               0               0               0   -0.0036668361  -9.3877314e-09   4.6807108e-19    0.0024278429        37.31655   2.6968956e-09   6.8866322e-13
     0.16606607               0               0               0    -0.003644754  -8.9805308e-09   5.3426949e-19    0.0024004288       36.908621   2.6385465e-09   6.8240729e-13
     0.16816817               0               0               0   -0.0036229575  -8.5823258e-09   5.3426955e-19    0.0023733891       36.506472   2.5812195e-09   6.7623811e-13
     0.17027027               0               0               0   -0.0036025082  -8.2233269e-09   3.0970087e-19    0.0023483441       36.131324   2.5285349e-09   6.7047486e-13
     0.17237237               0               0               0   -0.0035827341  -7.8839774e-09  -2.7418415e-20     0.002324299       35.769708    2.478177e-09   6.6491508e-13
     0.17447447               0               0               0    -0.003563707  -7.5650919e-09  -2.2071344e-19    0.0023013364       35.422907   2.4303013e-09    6.595786e-13
     0.17657658               0               0               0   -0.0035456837  -7.2737094e-09  -2.2071347e-19    0.0022798287       35.096018   2.3857617e-09   6.5454225e-13
     0.17867868               0               0               0   -0.0035279036   -6.988639e-09  -2.3114343e-19     0.002258639       34.773906   2.3420035e-09   6.4957806e-13
     0.18078078               0               0               0   -0.0035114062  -6.7368684e-09  -2.9659792e-19    0.0022391271       34.477002   2.3023678e-09   6.4499463e-13
     0.18288288               0               0               0   -0.0034949087  -6.4850978e-09  -3.6205241e-19    0.0022196151       34.180099   2.2627321e-09    6.404112e-13
     0.18498498               0               0               0   -0.0034795671  -6.2616257e-09  -2.4408639e-19    0.0022017536       33.905712   2.2266962e-09   6.3616852e-13
     0.18708709               0               0               0   -0.0034644085  -6.0426353e-09  -9.7071949e-20    0.0021841534       33.634892   2.1912304e-09    6.319798e-13
     0.18918919               0               0               0   -0.0034498856   -5.838373e-09   5.5531491e-20    0.0021674085       33.376347   2.1576854e-09   6.2797729e-13
     0.19129129               0               0               0   -0.0034359098  -5.6467901e-09   2.1294643e-19    0.0021513997        33.12837   2.1257941e-09   6.2413506e-13
     0.19339339               0               0               0   -0.0034221238  -5.4594016e-09   3.1609963e-19    0.0021356158       32.884027     2.09446e-09   6.2034807e-13
      0.1954955               0               0               0   -0.0034091987  -5.2910505e-09   1.7296253e-19    0.0021208525        32.65618   2.0656555e-09   6.1681176e-13
      0.1975976               0               0               0   -0.0033962735  -5.1226995e-09   2.9825425e-20    0.0021060891       32.428333   2.0368509e-09   6.1327545e-13
      0.1996997               0               0               0   -0.0033840904  -4.9698876e-09               0     0.002092357       32.214604   2.0101699e-09   6.0995398e-13
      0.2018018               0               0               0   -0.0033721026  -4.8211658e-09               0    0.0020788964       32.004592   1.9840479e-09   6.0668907e-13
      0.2039039               0               0               0   -0.0033604257   -4.678621e-09  -3.8178148e-20    0.0020657794        31.80045    1.958793e-09   6.0351369e-13
     0.20600601               0               0               0   -0.0033492796   -4.546618e-09  -1.4151173e-19     0.002053249       31.606328   1.9350178e-09   6.0049112e-13
     0.20810811               0               0               0   -0.0033381334   -4.414615e-09   -2.448453e-19    0.0020407185       31.412206   1.9112427e-09   5.9746856e-13
     0.21021021               0               0               0     -0.00332768  -4.2958012e-09  -2.5385465e-19    0.0020289062       31.231077   1.8893527e-09    5.946444e-13
     0.21231231               0               0               0   -0.0033172927  -4.1782471e-09  -2.5385469e-19    0.0020171626       31.051188   1.8676428e-09    5.918392e-13
     0.21441441               0               0               0   -0.0033071939  -4.0659215e-09  -2.1166531e-19    0.0020058093       30.876679   1.8467005e-09   5.8911625e-13
     0.21651652               0               0               0   -0.0032974929  -3.9608044e-09   -1.113085e-19    0.0019949941       30.709587   1.8268166e-09    5.865067e-13
     0.21861862               0               0               0    -0.003287792  -3.8556874e-09  -1.0951689e-20     0.001984179       30.542495   1.8069327e-09   5.8389715e-13
     0.22072072               0               0               0    -0.003278647  -3.7601647e-09               0    0.0019740129       30.385698   1.7884943e-09   5.8144531e-13
     0.22282282               0               0               0   -0.0032695701  -3.6658172e-09               0    0.0019639264       30.230163    1.770233e-09   5.7901279e-13
     0.22492492               0               0               0    -0.003260677  -3.5745291e-09               0    0.0019540053       30.078011   1.7524393e-09   5.7663216e-13
     0.22702703               0               0               0   -0.0032521693  -3.4896573e-09               0    0.0019444312       29.932953   1.7356264e-09   5.7436038e-13
     0.22912913               0               0               0   -0.0032436616  -3.4047855e-09               0    0.0019348572       29.787896   1.7188136e-09   5.7208859e-13
     0.23123123               0               0               0    -0.003235526  -3.3258576e-09  -4.9464173e-20    0.0019257078       29.649652   1.7029286e-09    5.699214e-13
     0.23333333               0               0               0   -0.0032275387  -3.2493001e-09  -1.1865445e-19    0.0019167278       29.514126   1.6874137e-09   5.6779593e-13
     0.23543544               0               0               0   -0.0032195827   -3.173219e-09  -1.7911685e-19    0.0019077902       29.379168   1.6719753e-09   5.6567921e-13
     0.23753754               0               0               0   -0.0032120729  -3.1039363e-09  -1.1503109e-19    0.0018994559       29.252338   1.6576278e-09   5.6368741e-13
     0.23963964               0               0               0   -0.0032045631  -3.0346535e-09  -5.0945334e-20    0.0018911217       29.125507   1.6432803e-09    5.616956e-13
     0.24174174               0               0               0   -0.0031972172   -2.967776e-09    1.421743e-20    0.0018829581       29.001646   1.6293258e-09   5.5974952e-13
     0.24384384               0               0               0   -0.0031901469  -2.9049409e-09   8.1190311e-20    0.0018750813       28.882776   1.6160321e-09   5.5788027e-13
     0.24594595               0               0               0   -0.0031830767  -2.8421058e-09   1.4816319e-19    0.0018672045       28.763906   1.6027384e-09   5.5601103e-13
     0.24804805               0               0               0   -0.0031762642  -2.7829333e-09   1.3312919e-19    0.0018595435       28.649682   1.5900516e-09   5.5421339e-13
     0.25015015               0               0               0   -0.0031695995  -2.7258579e-09   7.1140696e-20    0.0018520061       28.538119   1.5777123e-09   5.5245675e-13
     0.25225225               0               0               0   -0.0031629347  -2.6687825e-09   9.1522022e-21    0.0018444686       28.426556    1.565373e-09   5.5070012e-13
     0.25435435               0               0               0   -0.0031565893  -2.6160691e-09               0    0.0018372916       28.320724   1.5537726e-09   5.4903186e-13
     0.25645646               0               0               0   -0.0031502993  -2.5641111e-09               0     0.001830177       28.215886   1.5423002e-09   5.4737892e-13
     0.25855856               0               0               0   -0.0031440164  -2.5122468e-09   9.7936159e-22    0.0018230716       28.111175   1.5308441e-09   5.4572795e-13
     0.26066066               0               0               0   -0.0031380737  -2.4648345e-09   4.8532986e-20    0.0018164057       28.012539   1.5201614e-09   5.4417076e-13
     0.26276276               0               0               0    -0.003132131  -2.4174222e-09    9.608661e-20    0.0018097399       27.913903   1.5094787e-09   5.4261358e-13
     0.26486486               0               0               0   -0.0031262332  -2.3705775e-09   1.3704314e-19    0.0018031156       27.816063    1.498896e-09   5.4106869e-13
     0.26696697               0               0               0   -0.0031206133  -2.3272564e-09   1.3704318e-19    0.0017967494       27.723162   1.4889345e-09   5.3960015e-13
     0.26906907               0               0               0   -0.0031149934  -2.2839353e-09   1.3704321e-19    0.0017903833       27.630261   1.4789729e-09    5.381316e-13
     0.27117117               0               0               0    -0.003109435  -2.2413719e-09   1.2765129e-19    0.0017840608       27.538449   1.4691465e-09    5.366799e-13
     0.27327327               0               0               0   -0.0031041154  -2.2017513e-09   8.1788302e-20    0.0017779079       27.450861   1.4598452e-09   5.3529356e-13
     0.27537538               0               0               0   -0.0030987958  -2.1621306e-09   3.5925318e-20     0.001771755       27.363273   1.4505438e-09   5.3390722e-13
     0.27747748               0               0               0   -0.0030935369  -2.1232307e-09  -8.2887464e-21     0.001765661       27.276754   1.4413738e-09   5.3253743e-13
     0.27957958               0               0               0   -0.0030884972  -2.0869366e-09   -4.654186e-20    0.0017597796       27.194099   1.4326783e-09   5.3122744e-13
     0.28168168               0               0               0   -0.0030834574  -2.0506426e-09  -8.4794973e-20    0.0017538982       27.111444   1.4239828e-09   5.2991745e-13
     0.28378378               0               0               0   -0.0030784627  -2.0148631e-09   -1.164589e-19    0.0017480721       27.029579   1.4153833e-09    5.286197e-13
     0.28588589               0               0               0   -0.0030736843  -1.9815568e-09  -1.1645893e-19    0.0017425115       26.951511    1.407245e-09   5.2738078e-13
     0.28798799               0               0               0   -0.0030689059  -1.9482504e-09  -1.1645896e-19    0.0017369509       26.873443   1.3991066e-09   5.2614185e-13
     0.29009009               0               0               0   -0.0030641444  -1.9151315e-09  -1.1391142e-19    0.0017314082       26.795671   1.3910038e-09   5.2490751e-13
     0.29219219               0               0               0   -0.0030596106  -1.8845329e-09  -7.7104401e-20    0.0017261072       26.721876   1.3833788e-09   5.2373486e-13
     0.29429429               0               0               0   -0.0030550767  -1.8539343e-09  -4.0297382e-20    0.0017208063       26.648081   1.3757538e-09   5.2256221e-13
      0.2963964               0               0               0   -0.0030505428  -1.8233357e-09  -3.4903617e-21    0.0017155053       26.574286   1.3681288e-09   5.2138956e-13
      0.2984985               0               0               0   -0.0030462162  -1.7949747e-09               0    0.0017103536         26.5041   1.3609327e-09   5.2027294e-13
      0.3006006               0               0               0   -0.0030419114  -1.7668481e-09               0    0.0017052176       26.434291   1.3537816e-09   5.1916219e-13
      0.3027027               0               0               0   -0.0030376066  -1.7387215e-09               0    0.0017000816       26.364483   1.3466304e-09   5.1805143e-13
      0.3048048               0               0               0   -0.0030334473  -1.7121214e-09   1.9482734e-20    0.0016950488       26.297199   1.3397763e-09    5.169799e-13
     0.30690691               0               0               0   -0.0030293574  -1.6862476e-09   4.8235021e-20    0.0016900651       26.231116   1.3330634e-09   5.1592703e-13
     0.30900901               0               0               0   -0.0030252674  -1.6603737e-09   7.6987308e-20    0.0016850814       26.165033   1.3263505e-09   5.1487416e-13
     0.31111111               0               0               0   -0.0030212548  -1.6352858e-09   8.9561476e-20    0.0016801744       26.100288   1.3197934e-09   5.1384209e-13
     0.31321321               0               0               0   -0.0030173665  -1.6114592e-09   7.6169215e-20    0.0016753903       26.037691   1.3134864e-09   5.1284341e-13
     0.31531532               0               0               0   -0.0030134783  -1.5876326e-09   6.2776954e-20    0.0016706063       25.975094   1.3071795e-09   5.1184473e-13
     0.31741742               0               0               0    -0.003009594  -1.5638455e-09   4.9612883e-20    0.0016658272       25.912566   1.3008805e-09   5.1084713e-13
     0.31951952               0               0               0   -0.0030058954  -1.5418783e-09   4.6993241e-20      0.00166128       25.853235   1.2949502e-09   5.0989926e-13
     0.32162162               0               0               0   -0.0030021968  -1.5199112e-09   4.4373598e-20    0.0016567328       25.793904   1.2890198e-09    5.089514e-13
     0.32372372               0               0               0   -0.0029984982  -1.4979441e-09   4.1753956e-20    0.0016521856       25.734573   1.2830894e-09   5.0800353e-13
     0.32582583               0               0               0   -0.0029949044  -1.4769756e-09   4.8198222e-20    0.0016477354       25.677039   1.2773643e-09   5.0708366e-13
     0.32792793               0               0               0   -0.0029913845   -1.456711e-09     6.10301e-20    0.0016433536       25.620772   1.2717838e-09   5.0618352e-13
     0.33003003               0               0               0   -0.0029878645  -1.4364464e-09   7.3861978e-20    0.0016389718       25.564504   1.2662033e-09   5.0528338e-13
     0.33213213               0               0               0   -0.0029843575  -1.4163025e-09   8.3864918e-20    0.0016345974       25.508458   1.2606479e-09   5.0438669e-13
     0.33423423               0               0               0    -0.002981006  -1.3976055e-09   5.9976986e-20    0.0016303111       25.455067   1.2553928e-09   5.0353141e-13
     0.33633634               0               0               0   -0.0029776544  -1.3789085e-09   3.6089054e-20    0.0016260248       25.401676   1.2501378e-09   5.0267613e-13
     0.33843844               0               0               0   -0.0029743028  -1.3602115e-09   1.2201123e-20    0.0016217385       25.348284   1.2448827e-09   5.0182085e-13
     0.34054054               0               0               0   -0.0029710289  -1.3422188e-09   -1.481023e-20     0.001617503       25.296216    1.239776e-09   5.0098621e-13
     0.34264264               0               0               0   -0.0029678362  -1.3249615e-09   -4.508246e-20    0.0016133206       25.245529   1.2348241e-09   5.0017313e-13
     0.34474474               0               0               0   -0.0029646434  -1.3077042e-09   -7.535469e-20    0.0016091383       25.194843   1.2298722e-09   4.9936005e-13
     0.34684685               0               0               0   -0.0029614506   -1.290447e-09  -1.0562692e-19    0.0016049559       25.144156   1.2249204e-09   4.9854697e-13
     0.34894895               0               0               0   -0.0029583808  -1.2742707e-09  -1.1108382e-19     0.001600882       25.095555   1.2202003e-09   4.9776647e-13
     0.35105105               0               0               0   -0.0029553379  -1.2583321e-09  -1.1108386e-19    0.0015968319       25.047413   1.2155312e-09   4.9699313e-13
     0.35315315               0               0               0   -0.0029522951  -1.2423935e-09   -1.110839e-19    0.0015927817       24.999271   1.2108621e-09   4.9621979e-13