# Selection     : all 
# Volume        : 2.33333000e+00
# Time          	maxp	location	cell	maxk	location	cell	maxepsilon	location	cell	maxnut	location	cell
0               	0.00000000e+00	1.56631511e-03 4.00664797e-04 5.00000000e-01	0	1.50000000e-04	1.56631511e-03 4.00664797e-04 5.00000000e-01	0	1.00000000e-02	1.56631511e-03 4.00664797e-04 5.00000000e-01	0	2.02500000e-07	1.56631511e-03 4.00664797e-04 5.00000000e-01	0
1               	1.08487870e-03	4.74706631e-03 4.00664797e-04 5.00000000e-01	1	6.26572510e-04	1.96867370e+00 4.00664797e-04 5.00000000e-01	99	7.69114611e-03	8.02553783e-03 2.05728518e-03 5.00000000e-01	202	1.92278823e-05	1.96867370e+00 4.00664797e-04 5.00000000e-01	99
2               	2.03857981e-03	4.74706631e-03 4.00664797e-04 5.00000000e-01	1	1.18133566e-03	1.96867370e+00 4.00664797e-04 5.00000000e-01	99	1.56882262e-02	1.96867370e+00 4.00664797e-04 5.00000000e-01	99	8.27614726e-06	1.17399414e+00 4.00664797e-04 5.00000000e-01	83
3               	2.80680212e-03	4.74706631e-03 4.00664797e-04 5.00000000e-01	1	1.97249156e-03	1.96867370e+00 4.00664797e-04 5.00000000e-01	99	4.06140979e-02	1.96867370e+00 4.00664797e-04 5.00000000e-01	99	8.63055927e-06	1.78898115e+00 4.00664797e-04 5.00000000e-01	96
4               	3.39213727e-03	4.74706631e-03 4.00664797e-04 5.00000000e-01	1	2.66464128e-03	1.90695483e+00 4.00664797e-04 5.00000000e-01	98	8.76273279e-02	1.96867370e+00 4.00664797e-04 5.00000000e-01	99	7.67234865e-06	8.69799978e-01 4.00664797e-04 5.00000000e-01	74
5               	3.87582872e-03	4.74706631e-03 4.00664797e-04 5.00000000e-01	1	3.20720856e-03	1.38241599e+00 4.00664797e-04 5.00000000e-01	88	1.37586229e-01	1.90695483e+00 4.00664797e-04 5.00000000e-01	98	7.31291251e-06	6.16067280e-01 4.00664797e-04 5.00000000e-01	64
6               	4.27041087e-03	4.74706631e-03 4.00664797e-04 5.00000000e-01	1	3.63992127e-03	9.62144744e-01 4.00664797e-04 5.00000000e-01	77	1.81680218e-01	1.38241599e+00 4.00664797e-04 5.00000000e-01	88	7.10931167e-06	4.61685795e-01 4.00664797e-04 5.00000000e-01	56
7               	4.57188074e-03	4.74706631e-03 4.00664797e-04 5.00000000e-01	1	3.98839741e-03	7.33354481e-01 4.00664797e-04 5.00000000e-01	69	2.19661945e-01	9.62144744e-01 4.00664797e-04 5.00000000e-01	77	6.99430096e-06	3.68101954e-01 4.00664797e-04 5.00000000e-01	50
8               	4.78367164e-03	4.74706631e-03 4.00664797e-04 5.00000000e-01	1	4.27195036e-03	5.73900861e-01 4.00664797e-04 5.00000000e-01	62	2.51950066e-01	7.33354481e-01 4.00664797e-04 5.00000000e-01	69	6.92967756e-06	3.02099817e-01 4.00664797e-04 5.00000000e-01	45
9               	4.92791816e-03	4.74706631e-03 4.00664797e-04 5.00000000e-01	1	4.50606163e-03	4.61685795e-01 4.00664797e-04 5.00000000e-01	56	2.79290482e-01	5.73900861e-01 4.00664797e-04 5.00000000e-01	62	6.89561819e-06	2.56035867e-01 4.00664797e-04 5.00000000e-01	41
10              	5.02497285e-03	4.74706631e-03 4.00664797e-04 5.00000000e-01	1	4.70218778e-03	3.82543562e-01 4.00664797e-04 5.00000000e-01	51	3.02560710e-01	4.61685795e-01 4.00664797e-04 5.00000000e-01	56	6.88058411e-06	2.15223262e-01 4.00664797e-04 5.00000000e-01	37
11              	5.15606250e-03	1.84777604e-02 4.00664797e-04 5.00000000e-01	5	4.86919700e-03	3.14513681e-01 4.00664797e-04 5.00000000e-01	46	3.22527530e-01	3.82543562e-01 4.00664797e-04 5.00000000e-01	51	7.25079451e-06	1.96867370e+00 1.21537301e-03 5.00000000e-01	199
12              	5.31421049e-03	1.84777604e-02 4.00664797e-04 5.00000000e-01	5	5.01382380e-03	2.67034535e-01 4.00664797e-04 5.00000000e-01	42	3.39862195e-01	3.14513681e-01 4.00664797e-04 5.00000000e-01	46	8.00566134e-06	1.67793547e+00 1.21537301e-03 5.00000000e-01	194
13              	5.44246212e-03	1.84777604e-02 4.00664797e-04 5.00000000e-01	5	5.14163594e-03	2.35012260e-01 4.00664797e-04 5.00000000e-01	39	3.55116163e-01	2.67034535e-01 4.00664797e-04 5.00000000e-01	42	8.67351360e-06	1.42801977e+00 1.21537301e-03 5.00000000e-01	189
14              	5.56188961e-03	2.21780719e-02 4.00664797e-04 5.00000000e-01	6	5.25903579e-03	1.96596372e-01 4.00664797e-04 5.00000000e-01	35	3.68781242e-01	2.35012260e-01 4.00664797e-04 5.00000000e-01	39	9.26298607e-06	1.25359959e+00 1.21537301e-03 5.00000000e-01	185
15              	5.66760139e-03	2.21780719e-02 4.00664797e-04 5.00000000e-01	6	5.37261193e-03	1.70686804e-01 4.00664797e-04 5.00000000e-01	32	3.81483737e-01	1.96596372e-01 4.00664797e-04 5.00000000e-01	35	9.78652045e-06	1.13596202e+00 1.21537301e-03 5.00000000e-01	182
16              	5.74719440e-03	2.21780719e-02 4.00664797e-04 5.00000000e-01	6	5.49163498e-03	1.39604096e-01 4.00664797e-04 5.00000000e-01	28	3.93908223e-01	1.70686804e-01 4.00664797e-04 5.00000000e-01	32	1.02537276e-05	1.02853319e+00 1.21537301e-03 5.00000000e-01	179
17              	5.80775588e-03	2.59920659e-02 4.00664797e-04 5.00000000e-01	7	5.62885097e-03	1.18640386e-01 4.00664797e-04 5.00000000e-01	25	4.07070220e-01	1.39604096e-01 4.00664797e-04 5.00000000e-01	28	1.06794661e-05	9.62144744e-01 1.21537301e-03 5.00000000e-01	177
18              	5.87202682e-03	2.59920659e-02 4.00664797e-04 5.00000000e-01	7	5.78998177e-03	9.94959316e-02 4.00664797e-04 5.00000000e-01	22	4.22421937e-01	1.18640386e-01 4.00664797e-04 5.00000000e-01	25	1.10725521e-05	9.30427152e-01 1.21537301e-03 5.00000000e-01	176
19              	5.90289259e-03	2.59920659e-02 4.00664797e-04 5.00000000e-01	7	5.96778952e-03	8.76651182e-02 4.00664797e-04 5.00000000e-01	20	4.40689429e-01	9.94959316e-02 4.00664797e-04 5.00000000e-01	22	1.14355635e-05	8.69799978e-01 1.21537301e-03 5.00000000e-01	174
20              	5.95278376e-03	2.99232349e-02 4.00664797e-04 5.00000000e-01	8	6.14640952e-03	8.20128557e-02 4.00664797e-04 5.00000000e-01	19	4.61144555e-01	8.76651182e-02 4.00664797e-04 5.00000000e-01	20	1.17699007e-05	8.12733129e-01 1.21537301e-03 5.00000000e-01	172
21              	5.99413945e-03	2.99232349e-02 4.00664797e-04 5.00000000e-01	8	6.31360660e-03	7.65290683e-02 4.00664797e-04 5.00000000e-01	18	4.82002264e-01	8.20128557e-02 4.00664797e-04 5.00000000e-01	19	1.22410831e-05	-2.84388080e-01 9.10418368e-01 5.00000000e-01	5670
22              	6.03402574e-03	3.39751789e-02 4.00664797e-04 5.00000000e-01	9	6.47352857e-03	7.65290683e-02 4.00664797e-04 5.00000000e-01	18	5.01802840e-01	7.65290683e-02 4.00664797e-04 5.00000000e-01	18	1.28758778e-05	-2.84388080e-01 9.10418368e-01 5.00000000e-01	5670
23              	6.08517619e-03	3.39751789e-02 4.00664797e-04 5.00000000e-01	9	6.61466988e-03	7.65290683e-02 4.00664797e-04 5.00000000e-01	18	5.20988867e-01	7.65290683e-02 4.00664797e-04 5.00000000e-01	18	1.35106351e-05	-2.84388080e-01 9.10418368e-01 5.00000000e-01	5670
24              	6.10408607e-03	3.39751789e-02 4.00664797e-04 5.00000000e-01	9	6.73903909e-03	7.65290683e-02 4.00664797e-04 5.00000000e-01	18	5.38119959e-01	7.65290683e-02 4.00664797e-04 5.00000000e-01	18	1.41453609e-05	-2.84388080e-01 9.10418368e-01 5.00000000e-01	5670
25              	6.13399431e-03	3.81516084e-02 4.00664797e-04 5.00000000e-01	10	6.84893254e-03	7.65290683e-02 4.00664797e-04 5.00000000e-01	18	5.53367694e-01	7.65290683e-02 4.00664797e-04 5.00000000e-01	18	1.47800596e-05	-2.84388080e-01 9.10418368e-01 5.00000000e-01	5670
26              	6.15862326e-03	3.81516084e-02 4.00664797e-04 5.00000000e-01	10	6.94620390e-03	7.65290683e-02 4.00664797e-04 5.00000000e-01	18	5.66958371e-01	7.65290683e-02 4.00664797e-04 5.00000000e-01	18	1.54147339e-05	-2.84388080e-01 9.10418368e-01 5.00000000e-01	5670
27              	6.16314370e-03	3.81516084e-02 4.00664797e-04 5.00000000e-01	10	7.03229064e-03	7.65290683e-02 4.00664797e-04 5.00000000e-01	18	5.79079419e-01	7.65290683e-02 4.00664797e-04 5.00000000e-01	18	1.60493858e-05	-2.84388080e-01 9.10418368e-01 5.00000000e-01	5670
28              	6.21096155e-03	4.24563479e-02 4.00664797e-04 5.00000000e-01	11	7.10819184e-03	7.65290683e-02 4.00664797e-04 5.00000000e-01	18	5.89877806e-01	7.65290683e-02 4.00664797e-04 5.00000000e-01	18	1.66840162e-05	-2.84388080e-01 9.10418368e-01 5.00000000e-01	5670
29              	6.23740739e-03	4.24563479e-02 4.00664797e-04 5.00000000e-01	11	7.17446759e-03	7.65290683e-02 4.00664797e-04 5.00000000e-01	18	5.99453567e-01	7.65290683e-02 4.00664797e-04 5.00000000e-01	18	1.73186255e-05	-2.84388080e-01 9.10418368e-01 5.00000000e-01	5670
30              	6.23777015e-03	4.68933393e-02 4.00664797e-04 5.00000000e-01	12	7.23126726e-03	7.65290683e-02 4.00664797e-04 5.00000000e-01	18	6.07856907e-01	7.65290683e-02 4.00664797e-04 5.00000000e-01	18	1.79532136e-05	-2.84388080e-01 9.10418368e-01 5.00000000e-01	5670
31              	6.27922404e-03	4.68933393e-02 4.00664797e-04 5.00000000e-01	12	7.27827258e-03	7.65290683e-02 4.00664797e-04 5.00000000e-01	18	6.15089704e-01	7.65290683e-02 4.00664797e-04 5.00000000e-01	18	1.85877799e-05	-2.84388080e-01 9.10418368e-01 5.00000000e-01	5670
32              	6.28436374e-03	4.68933393e-02 4.00664797e-04 5.00000000e-01	12	7.31296643e-03	8.20128557e-02 4.00664797e-04 5.00000000e-01	19	6.21096831e-01	7.65290683e-02 4.00664797e-04 5.00000000e-01	18	1.92223234e-05	-2.84388080e-01 9.10418368e-01 5.00000000e-01	5670
33              	6.29409271e-03	5.14666457e-02 4.00664797e-04 5.00000000e-01	13	7.34693933e-03	8.20128557e-02 4.00664797e-04 5.00000000e-01	19	6.25543058e-01	8.20128557e-02 4.00664797e-04 5.00000000e-01	19	1.98568426e-05	-2.84388080e-01 9.10418368e-01 5.00000000e-01	5670
34              	6.33830091e-03	5.14666457e-02 4.00664797e-04 5.00000000e-01	13	7.37545727e-03	8.20128557e-02 4.00664797e-04 5.00000000e-01	19	6.29907123e-01	8.20128557e-02 4.00664797e-04 5.00000000e-01	19	2.04913359e-05	-2.84388080e-01 9.10418368e-01 5.00000000e-01	5670
35              	6.35640654e-03	5.14666457e-02 4.00664797e-04 5.00000000e-01	13	7.39700087e-03	8.20128557e-02 4.00664797e-04 5.00000000e-01	19	6.33578258e-01	8.20128557e-02 4.00664797e-04 5.00000000e-01	19	2.11258010e-05	-2.84388080e-01 9.10418368e-01 5.00000000e-01	5670
36              	6.38106366e-03	5.61804552e-02 4.00664797e-04 5.00000000e-01	14	7.40978008e-03	8.20128557e-02 4.00664797e-04 5.00000000e-01	19	6.36356293e-01	8.20128557e-02 4.00664797e-04 5.00000000e-01	19	2.17602354e-05	-2.84388080e-01 9.10418368e-01 5.00000000e-01	5670
37              	6.41626393e-03	5.61804552e-02 4.00664797e-04 5.00000000e-01	14	7.42775893e-03	8.76651182e-02 4.00664797e-04 5.00000000e-01	20	6.38006079e-01	8.20128557e-02 4.00664797e-04 5.00000000e-01	19	2.23946360e-05	-2.84388080e-01 9.10418368e-01 5.00000000e-01	5670
38              	6.41891116e-03	5.61804552e-02 4.00664797e-04 5.00000000e-01	14	7.44116952e-03	8.76651182e-02 4.00664797e-04 5.00000000e-01	20	6.40329542e-01	8.76651182e-02 4.00664797e-04 5.00000000e-01	20	2.30289994e-05	-2.84388080e-01 9.10418368e-01 5.00000000e-01	5670
39              	6.44173243e-03	6.10390842e-02 4.00664797e-04 5.00000000e-01	15	7.44742032e-03	8.76651182e-02 4.00664797e-04 5.00000000e-01	20	6.42064467e-01	8.76651182e-02 4.00664797e-04 5.00000000e-01	20	2.36633215e-05	-2.84388080e-01 9.10418368e-01 5.00000000e-01	5670
40              	6.48473101e-03	6.10390842e-02 4.00664797e-04 5.00000000e-01	15	7.44697964e-03	9.34910318e-02 4.00664797e-04 5.00000000e-01	21	6.42873667e-01	8.76651182e-02 4.00664797e-04 5.00000000e-01	20	2.42975978e-05	-2.84388080e-01 9.10418368e-01 5.00000000e-01	5670
41              	6.49957912e-03	6.10390842e-02 4.00664797e-04 5.00000000e-01	15	7.45506131e-03	9.34910318e-02 4.00664797e-04 5.00000000e-01	21	6.42816608e-01	9.34910318e-02 4.00664797e-04 5.00000000e-01	21	2.49318230e-05	-2.84388080e-01 9.10418368e-01 5.00000000e-01	5670
42              	6.52588505e-03	6.60469820e-02 4.00664797e-04 5.00000000e-01	16	7.45929266e-03	9.34910318e-02 4.00664797e-04 5.00000000e-01	21	6.43863295e-01	9.34910318e-02 4.00664797e-04 5.00000000e-01	21	2.55659914e-05	-2.84388080e-01 9.10418368e-01 5.00000000e-01	5670
43              	6.56469810e-03	6.60469820e-02 4.00664797e-04 5.00000000e-01	16	7.45516439e-03	9.34910318e-02 4.00664797e-04 5.00000000e-01	21	6.44411540e-01	9.34910318e-02 4.00664797e-04 5.00000000e-01	21	2.62000964e-05	-2.84388080e-01 9.10418368e-01 5.00000000e-01	5670
44              	6.57348913e-03	6.60469820e-02 4.00664797e-04 5.00000000e-01	16	7.45023450e-03	9.94959316e-02 4.00664797e-04 5.00000000e-01	22	6.43876649e-01	9.34910318e-02 4.00664797e-04 5.00000000e-01	21	2.68341307e-05	-2.84388080e-01 9.10418368e-01 5.00000000e-01	5670
45              	6.58729893e-03	7.12087344e-02 4.00664797e-04 5.00000000e-01	17	7.45286467e-03	9.94959316e-02 4.00664797e-04 5.00000000e-01	22	6.43238088e-01	9.94959316e-02 4.00664797e-04 5.00000000e-01	22	2.74680862e-05	-2.84388080e-01 9.10418368e-01 5.00000000e-01	5670
46              	6.63521149e-03	7.12087344e-02 4.00664797e-04 5.00000000e-01	17	7.44961105e-03	9.94959316e-02 4.00664797e-04 5.00000000e-01	22	6.43578744e-01	9.94959316e-02 4.00664797e-04 5.00000000e-01	22	2.81019537e-05	-2.84388080e-01 9.10418368e-01 5.00000000e-01	5670
47              	6.65512279e-03	7.12087344e-02 4.00664797e-04 5.00000000e-01	17	7.43732366e-03	9.94959316e-02 4.00664797e-04 5.00000000e-01	22	6.43157349e-01	9.94959316e-02 4.00664797e-04 5.00000000e-01	22	2.87357234e-05	-2.84388080e-01 9.10418368e-01 5.00000000e-01	5670
48              	6.64919848e-03	7.12087344e-02 4.00664797e-04 5.00000000e-01	17	7.43171355e-03	1.05685316e-01 4.00664797e-04 5.00000000e-01	23	6.41566770e-01	9.94959316e-02 4.00664797e-04 5.00000000e-01	22	2.93693843e-05	-2.84388080e-01 9.10418368e-01 5.00000000e-01	5670
49              	6.69712771e-03	7.65290683e-02 4.00664797e-04 5.00000000e-01	18	7.43036978e-03	1.05685316e-01 4.00664797e-04 5.00000000e-01	23	6.40840988e-01	1.05685316e-01 4.00664797e-04 5.00000000e-01	23	3.00029244e-05	-2.84388080e-01 9.10418368e-01 5.00000000e-01	5670
50              	6.70803550e-03	7.65290683e-02 4.00664797e-04 5.00000000e-01	18	7.42112588e-03	1.05685316e-01 4.00664797e-04 5.00000000e-01	23	6.40667185e-01	1.05685316e-01 4.00664797e-04 5.00000000e-01	23	3.06363308e-05	-2.84388080e-01 9.10418368e-01 5.00000000e-01	5670
51              	6.69678912e-03	7.65290683e-02 4.00664797e-04 5.00000000e-01	18	7.40253149e-03	1.05685316e-01 4.00664797e-04 5.00000000e-01	23	6.39472004e-01	1.05685316e-01 4.00664797e-04 5.00000000e-01	23	3.12695892e-05	-2.84388080e-01 9.10418368e-01 5.00000000e-01	5670
52              	6.68800855e-03	8.20128557e-02 4.00664797e-04 5.00000000e-01	19	7.39628891e-03	1.12064854e-01 4.00664797e-04 5.00000000e-01	24	6.37070116e-01	1.05685316e-01 4.00664797e-04 5.00000000e-01	23	3.19026846e-05	-2.84388080e-01 9.10418368e-01 5.00000000e-01	5670
53              	6.68742009e-03	8.20128557e-02 4.00664797e-04 5.00000000e-01	19	7.38985322e-03	1.12064854e-01 4.00664797e-04 5.00000000e-01	24	6.36264422e-01	1.12064854e-01 4.00664797e-04 5.00000000e-01	24	3.25356005e-05	-2.84388080e-01 9.10418368e-01 5.00000000e-01	5670
54              	6.65330442e-03	8.20128557e-02 4.00664797e-04 5.00000000e-01	19	7.37499019e-03	1.12064854e-01 4.00664797e-04 5.00000000e-01	24	6.35434159e-01	1.12064854e-01 4.00664797e-04 5.00000000e-01	24	3.31683196e-05	-2.84388080e-01 9.10418368e-01 5.00000000e-01	5670
55              	6.58943787e-03	8.20128557e-02 4.00664797e-04 5.00000000e-01	19	7.35075695e-03	1.18640386e-01 4.00664797e-04 5.00000000e-01	25	6.33518074e-01	1.12064854e-01 4.00664797e-04 5.00000000e-01	24	3.38008235e-05	-2.84388080e-01 9.10418368e-01 5.00000000e-01	5670
56              	6.53413929e-03	8.76651182e-02 4.00664797e-04 5.00000000e-01	20	7.33821771e-03	1.18640386e-01 4.00664797e-04 5.00000000e-01	25	6.30398155e-01	1.18640386e-01 4.00664797e-04 5.00000000e-01	25	3.44330926e-05	-2.84388080e-01 9.10418368e-01 5.00000000e-01	5670
57              	6.46994885e-03	8.76651182e-02 4.00664797e-04 5.00000000e-01	20	7.32152930e-03	1.18640386e-01 4.00664797e-04 5.00000000e-01	25	6.28785802e-01	1.18640386e-01 4.00664797e-04 5.00000000e-01	25	3.50651063e-05	-2.84388080e-01 9.10418368e-01 5.00000000e-01	5670
58              	6.38318750e-03	8.76651182e-02 4.00664797e-04 5.00000000e-01	20	7.29403167e-03	1.18640386e-01 4.00664797e-04 5.00000000e-01	25	6.26642067e-01	1.18640386e-01 4.00664797e-04 5.00000000e-01	25	3.56968432e-05	-2.84388080e-01 9.10418368e-01 5.00000000e-01	5670
59              	6.39161247e-03	4.74706631e-03 4.00664797e-04 5.00000000e-01	1	7.25437820e-03	1.18640386e-01 4.00664797e-04 5.00000000e-01	25	6.23115143e-01	1.18640386e-01 4.00664797e-04 5.00000000e-01	25	3.63282809e-05	-2.84388080e-01 9.10418368e-01 5.00000000e-01	5670
60              	6.48320681e-03	4.74706631e-03 4.00664797e-04 5.00000000e-01	1	7.21700357e-03	1.25417934e-01 4.00664797e-04 5.00000000e-01	26	6.18040775e-01	1.18640386e-01 4.00664797e-04 5.00000000e-01	25	3.69593962e-05	-2.84388080e-01 9.10418368e-01 5.00000000e-01	5670
61              	6.57101158e-03	4.74706631e-03 4.00664797e-04 5.00000000e-01	1	7.17208697e-03	1.25417934e-01 4.00664797e-04 5.00000000e-01	26	6.13270704e-01	1.25417934e-01 4.00664797e-04 5.00000000e-01	26	3.75901652e-05	-2.84388080e-01 9.10418368e-01 5.00000000e-01	5670
62              	6.65255470e-03	4.74706631e-03 4.00664797e-04 5.00000000e-01	1	7.11373598e-03	1.25417934e-01 4.00664797e-04 5.00000000e-01	26	6.07554385e-01	1.25417934e-01 4.00664797e-04 5.00000000e-01	26	3.82205631e-05	-2.84388080e-01 9.10418368e-01 5.00000000e-01	5670
63              	6.72657256e-03	4.74706631e-03 4.00664797e-04 5.00000000e-01	1	7.04297906e-03	1.25417934e-01 4.00664797e-04 5.00000000e-01	26	6.00155033e-01	1.25417934e-01 4.00664797e-04 5.00000000e-01	26	3.88505648e-05	-2.84388080e-01 9.10418368e-01 5.00000000e-01	5670
64              	6.79326181e-03	4.74706631e-03 4.00664797e-04 5.00000000e-01	1	6.96277743e-03	1.32403705e-01 4.00664797e-04 5.00000000e-01	27	5.91223154e-01	1.25417934e-01 4.00664797e-04 5.00000000e-01	26	3.94801447e-05	-2.84388080e-01 9.10418368e-01 5.00000000e-01	5670
65              	6.85299712e-03	4.74706631e-03 4.00664797e-04 5.00000000e-01	1	6.88110615e-03	1.32403705e-01 4.00664797e-04 5.00000000e-01	27	5.81153166e-01	1.32403705e-01 4.00664797e-04 5.00000000e-01	27	4.01092767e-05	-2.84388080e-01 9.10418368e-01 5.00000000e-01	5670
66              	6.90543523e-03	4.74706631e-03 4.00664797e-04 5.00000000e-01	1	6.79149077e-03	1.32403705e-01 4.00664797e-04 5.00000000e-01	27	5.70958082e-01	1.32403705e-01 4.00664797e-04 5.00000000e-01	27	4.07379344e-05	-2.84388080e-01 9.10418368e-01 5.00000000e-01	5670
67              	6.95018050e-03	4.74706631e-03 4.00664797e-04 5.00000000e-01	1	6.69706756e-03	1.32403705e-01 4.00664797e-04 5.00000000e-01	27	5.59840755e-01	1.32403705e-01 4.00664797e-04 5.00000000e-01	27	4.13660913e-05	-2.84388080e-01 9.10418368e-01 5.00000000e-01	5670
68              	6.99162374e-03	1.84777604e-02 4.00664797e-04 5.00000000e-01	5	6.60120358e-03	1.32403705e-01 4.00664797e-04 5.00000000e-01	27	5.48206094e-01	1.32403705e-01 4.00664797e-04 5.00000000e-01	27	4.19937208e-05	-2.84388080e-01 9.10418368e-01 5.00000000e-01	5670
69              	7.02852813e-03	2.21780719e-02 4.00664797e-04 5.00000000e-01	6	6.50716586e-03	1.32403705e-01 4.00664797e-04 5.00000000e-01	27	5.36477520e-01	1.32403705e-01 4.00664797e-04 5.00000000e-01	27	4.26207960e-05	-2.84388080e-01 9.10418368e-01 5.00000000e-01	5670
70              	7.05829470e-03	2.21780719e-02 4.00664797e-04 5.00000000e-01	6	6.41211534e-03	1.32403705e-01 4.00664797e-04 5.00000000e-01	27	5.25054825e-01	1.32403705e-01 4.00664797e-04 5.00000000e-01	27	4.32472906e-05	-2.84388080e-01 9.10418368e-01 5.00000000e-01	5670
71              	7.07828801e-03	2.21780719e-02 4.00664797e-04 5.00000000e-01	6	6.31744876e-03	1.32403705e-01 4.00664797e-04 5.00000000e-01	27	5.13592683e-01	1.32403705e-01 4.00664797e-04 5.00000000e-01	27	4.38731778e-05	-2.84388080e-01 9.10418368e-01 5.00000000e-01	5670
72              	7.09237505e-03	2.21780719e-02 4.00664797e-04 5.00000000e-01	6	6.36929675e-03	6.60469820e-02 4.00664797e-04 5.00000000e-01	16	5.02260970e-01	1.32403705e-01 4.00664797e-04 5.00000000e-01	27	4.44984317e-05	-2.84388080e-01 9.10418368e-01 5.00000000e-01	5670
73              	7.10202425e-03	2.21780719e-02 4.00664797e-04 5.00000000e-01	6	6.52092613e-03	7.12087344e-02 4.00664797e-04 5.00000000e-01	17	5.08456805e-01	6.60469820e-02 4.00664797e-04 5.00000000e-01	16	4.51230260e-05	-2.84388080e-01 9.10418368e-01 5.00000000e-01	5670
74              	7.10766743e-03	2.21780719e-02 4.00664797e-04 5.00000000e-01	6	6.65033433e-03	7.12087344e-02 4.00664797e-04 5.00000000e-01	17	5.26721152e-01	7.12087344e-02 4.00664797e-04 5.00000000e-01	17	4.57469353e-05	-2.84388080e-01 9.10418368e-01 5.00000000e-01	5670
75              	7.10954398e-03	2.21780719e-02 4.00664797e-04 5.00000000e-01	6	6.75950486e-03	7.12087344e-02 4.00664797e-04 5.00000000e-01	17	5.42477909e-01	7.12087344e-02 4.00664797e-04 5.00000000e-01	17	4.63701343e-05	-2.84388080e-01 9.10418368e-01 5.00000000e-01	5670
76              	7.10806328e-03	2.21780719e-02 4.00664797e-04 5.00000000e-01	6	6.85107405e-03	7.12087344e-02 4.00664797e-04 5.00000000e-01	17	5.55890389e-01	7.12087344e-02 4.00664797e-04 5.00000000e-01	17	4.69925981e-05	-2.84388080e-01 9.10418368e-01 5.00000000e-01	5670
77              	7.10378358e-03	2.21780719e-02 4.00664797e-04 5.00000000e-01	6	6.92746775e-03	7.12087344e-02 4.00664797e-04 5.00000000e-01	17	5.67224304e-01	7.12087344e-02 4.00664797e-04 5.00000000e-01	17	4.76143025e-05	-2.84388080e-01 9.10418368e-01 5.00000000e-01	5670
78              	7.09717779e-03	2.21780719e-02 4.00664797e-04 5.00000000e-01	6	6.99086353e-03	7.12087344e-02 4.00664797e-04 5.00000000e-01	17	5.76738054e-01	7.12087344e-02 4.00664797e-04 5.00000000e-01	17	4.82352236e-05	-2.84388080e-01 9.10418368e-01 5.00000000e-01	5670
79              	7.08845930e-03	2.21780719e-02 4.00664797e-04 5.00000000e-01	6	7.04320275e-03	7.12087344e-02 4.00664797e-04 5.00000000e-01	17	5.84673049e-01	7.12087344e-02 4.00664797e-04 5.00000000e-01	17	4.88553380e-05	-2.84388080e-01 9.10418368e-01 5.00000000e-01	5670
80              	7.07782312e-03	2.21780719e-02 4.00664797e-04 5.00000000e-01	6	7.08419935e-03	7.12087344e-02 4.00664797e-04 5.00000000e-01	17	5.91251322e-01	7.12087344e-02 4.00664797e-04 5.00000000e-01	17	4.94746232e-05	-2.84388080e-01 9.10418368e-01 5.00000000e-01	5670
81              	7.06560278e-03	2.21780719e-02 4.00664797e-04 5.00000000e-01	6	7.11439268e-03	7.12087344e-02 4.00664797e-04 5.00000000e-01	17	5.96421099e-01	7.12087344e-02 4.00664797e-04 5.00000000e-01	17	5.00930567e-05	-2.84388080e-01 9.10418368e-01 5.00000000e-01	5670
82              	7.05212643e-03	2.21780719e-02 4.00664797e-04 5.00000000e-01	6	7.13654117e-03	7.12087344e-02 4.00664797e-04 5.00000000e-01	17	6.00238140e-01	7.12087344e-02 4.00664797e-04 5.00000000e-01	17	5.07106170e-05	-2.84388080e-01 9.10418368e-01 5.00000000e-01	5670
83              	7.03756360e-03	2.21780719e-02 4.00664797e-04 5.00000000e-01	6	7.15260041e-03	7.12087344e-02 4.00664797e-04 5.00000000e-01	17	6.03043307e-01	7.12087344e-02 4.00664797e-04 5.00000000e-01	17	5.13272830e-05	-2.84388080e-01 9.10418368e-01 5.00000000e-01	5670
84              	7.02201831e-03	2.21780719e-02 4.00664797e-04 5.00000000e-01	6	7.16402577e-03	7.12087344e-02 4.00664797e-04 5.00000000e-01	17	6.05079979e-01	7.12087344e-02 4.00664797e-04 5.00000000e-01	17	5.19430340e-05	-2.84388080e-01 9.10418368e-01 5.00000000e-01	5670
85              	7.00566946e-03	2.21780719e-02 4.00664797e-04 5.00000000e-01	6	7.17193235e-03	7.12087344e-02 4.00664797e-04 5.00000000e-01	17	6.06530365e-01	7.12087344e-02 4.00664797e-04 5.00000000e-01	17	5.25578501e-05	-2.84388080e-01 9.10418368e-01 5.00000000e-01	5670
86              	6.98865378e-03	2.21780719e-02 4.00664797e-04 5.00000000e-01	6	7.17719957e-03	7.12087344e-02 4.00664797e-04 5.00000000e-01	17	6.07534738e-01	7.12087344e-02 4.00664797e-04 5.00000000e-01	17	5.31717117e-05	-2.84388080e-01 9.10418368e-01 5.00000000e-01	5670
87              	6.97105941e-03	2.21780719e-02 4.00664797e-04 5.00000000e-01	6	7.18085391e-03	7.65290683e-02 4.00664797e-04 5.00000000e-01	18	6.08204141e-01	7.12087344e-02 4.00664797e-04 5.00000000e-01	17	5.37845998e-05	-2.84388080e-01 9.10418368e-01 5.00000000e-01	5670
88              	6.95294924e-03	2.21780719e-02 4.00664797e-04 5.00000000e-01	6	7.18384973e-03	7.65290683e-02 4.00664797e-04 5.00000000e-01	18	6.08668709e-01	7.65290683e-02 4.00664797e-04 5.00000000e-01	18	5.43964960e-05	-2.84388080e-01 9.10418368e-01 5.00000000e-01	5670
89              	6.93442298e-03	2.21780719e-02 4.00664797e-04 5.00000000e-01	6	7.18611295e-03	7.65290683e-02 4.00664797e-04 5.00000000e-01	18	6.09049650e-01	7.65290683e-02 4.00664797e-04 5.00000000e-01	18	5.50073821e-05	-2.84388080e-01 9.10418368e-01 5.00000000e-01	5670
90              	6.91560271e-03	2.21780719e-02 4.00664797e-04 5.00000000e-01	6	7.18781291e-03	7.65290683e-02 4.00664797e-04 5.00000000e-01	18	6.09337487e-01	7.65290683e-02 4.00664797e-04 5.00000000e-01	18	5.56172406e-05	-2.84388080e-01 9.10418368e-01 5.00000000e-01	5670
91              	6.89658292e-03	2.21780719e-02 4.00664797e-04 5.00000000e-01	6	7.18909733e-03	7.65290683e-02 4.00664797e-04 5.00000000e-01	18	6.09553719e-01	7.65290683e-02 4.00664797e-04 5.00000000e-01	18	5.62260544e-05	-2.84388080e-01 9.10418368e-01 5.00000000e-01	5670
92              	6.87741583e-03	2.21780719e-02 4.00664797e-04 5.00000000e-01	6	7.19008367e-03	7.65290683e-02 4.00664797e-04 5.00000000e-01	18	6.09717112e-01	7.65290683e-02 4.00664797e-04 5.00000000e-01	18	5.68338066e-05	-2.84388080e-01 9.10418368e-01 5.00000000e-01	5670
93              	6.85820806e-03	2.21780719e-02 4.00664797e-04 5.00000000e-01	6	7.19086153e-03	7.65290683e-02 4.00664797e-04 5.00000000e-01	18	6.09842595e-01	7.65290683e-02 4.00664797e-04 5.00000000e-01	18	5.74404808e-05	-2.84388080e-01 9.10418368e-01 5.00000000e-01	5670
94              	6.83902533e-03	2.21780719e-02 4.00664797e-04 5.00000000e-01	6	7.19149609e-03	7.65290683e-02 4.00664797e-04 5.00000000e-01	18	6.09941561e-01	7.65290683e-02 4.00664797e-04 5.00000000e-01	18	5.80460610e-05	-2.84388080e-01 9.10418368e-01 5.00000000e-01	5670
95              	6.81995242e-03	2.21780719e-02 4.00664797e-04 5.00000000e-01	6	7.19203233e-03	7.65290683e-02 4.00664797e-04 5.00000000e-01	18	6.10022301e-01	7.65290683e-02 4.00664797e-04 5.00000000e-01	18	5.86505316e-05	-2.84388080e-01 9.10418368e-01 5.00000000e-01	5670
96              	6.80105209e-03	2.21780719e-02 4.00664797e-04 5.00000000e-01	6	7.19249948e-03	7.65290683e-02 4.00664797e-04 5.00000000e-01	18	6.10090532e-01	7.65290683e-02 4.00664797e-04 5.00000000e-01	18	5.92538771e-05	-2.84388080e-01 9.10418368e-01 5.00000000e-01	5670
97              	6.78235499e-03	2.21780719e-02 4.00664797e-04 5.00000000e-01	6	7.19291534e-03	7.65290683e-02 4.00664797e-04 5.00000000e-01	18	6.10149974e-01	7.65290683e-02 4.00664797e-04 5.00000000e-01	18	5.98560823e-05	-2.84388080e-01 9.10418368e-01 5.00000000e-01	5670
98              	6.76389417e-03	2.21780719e-02 4.00664797e-04 5.00000000e-01	6	7.19329005e-03	7.65290683e-02 4.00664797e-04 5.00000000e-01	18	6.10202892e-01	7.65290683e-02 4.00664797e-04 5.00000000e-01	18	6.04571325e-05	-2.84388080e-01 9.10418368e-01 5.00000000e-01	5670
99              	6.74572174e-03	2.21780719e-02 4.00664797e-04 5.00000000e-01	6	7.19362903e-03	7.65290683e-02 4.00664797e-04 5.00000000e-01	18	6.10250575e-01	7.65290683e-02 4.00664797e-04 5.00000000e-01	18	6.10570131e-05	-2.84388080e-01 9.10418368e-01 5.00000000e-01	5670
100             	6.72787198e-03	2.21780719e-02 4.00664797e-04 5.00000000e-01	6	7.19393516e-03	7.65290683e-02 4.00664797e-04 5.00000000e-01	18	6.10293712e-01	7.65290683e-02 4.00664797e-04 5.00000000e-01	18	6.16557097e-05	-2.84388080e-01 9.10418368e-01 5.00000000e-01	5670
101             	6.71041644e-03	2.21780719e-02 4.00664797e-04 5.00000000e-01	6	7.19421024e-03	7.65290683e-02 4.00664797e-04 5.00000000e-01	18	6.10332670e-01	7.65290683e-02 4.00664797e-04 5.00000000e-01	18	6.22532080e-05	-2.84388080e-01 9.10418368e-01 5.00000000e-01	5670
102             	6.69335872e-03	2.21780719e-02 4.00664797e-04 5.00000000e-01	6	7.19445579e-03	7.65290683e-02 4.00664797e-04 5.00000000e-01	18	6.10367677e-01	7.65290683e-02 4.00664797e-04 5.00000000e-01	18	6.28494943e-05	-2.84388080e-01 9.10418368e-01 5.00000000e-01	5670
103             	6.67665328e-03	2.21780719e-02 4.00664797e-04 5.00000000e-01	6	7.19467343e-03	7.65290683e-02 4.00664797e-04 5.00000000e-01	18	6.10398926e-01	7.65290683e-02 4.00664797e-04 5.00000000e-01	18	6.34445546e-05	-2.84388080e-01 9.10418368e-01 5.00000000e-01	5670
104             	6.66032467e-03	2.21780719e-02 4.00664797e-04 5.00000000e-01	6	7.19486495e-03	7.65290683e-02 4.00664797e-04 5.00000000e-01	18	6.10426624e-01	7.65290683e-02 4.00664797e-04 5.00000000e-01	18	6.40383755e-05	-2.84388080e-01 9.10418368e-01 5.00000000e-01	5670
105             	6.64435911e-03	2.21780719e-02 4.00664797e-04 5.00000000e-01	6	7.19503228e-03	7.65290683e-02 4.00664797e-04 5.00000000e-01	18	6.10450998e-01	7.65290683e-02 4.00664797e-04 5.00000000e-01	18	6.46309436e-05	-2.84388080e-01 9.10418368e-01 5.00000000e-01	5670
106             	6.62874706e-03	2.21780719e-02 4.00664797e-04 5.00000000e-01	6	7.19517736e-03	7.65290683e-02 4.00664797e-04 5.00000000e-01	18	6.10472295e-01	7.65290683e-02 4.00664797e-04 5.00000000e-01	18	6.52222457e-05	-2.84388080e-01 9.10418368e-01 5.00000000e-01	5670
107             	6.61349259e-03	2.21780719e-02 4.00664797e-04 5.00000000e-01	6	7.19530198e-03	7.65290683e-02 4.00664797e-04 5.00000000e-01	18	6.10490758e-01	7.65290683e-02 4.00664797e-04 5.00000000e-01	18	6.58122689e-05	-2.84388080e-01 9.10418368e-01 5.00000000e-01	5670
108             	6.59858506e-03	2.21780719e-02 4.00664797e-04 5.00000000e-01	6	7.19540779e-03	7.65290683e-02 4.00664797e-04 5.00000000e-01	18	6.10506619e-01	7.65290683e-02 4.00664797e-04 5.00000000e-01	18	6.64010009e-05	-2.84388080e-01 9.10418368e-01 5.00000000e-01	5670
109             	6.58415271e-03	4.74706631e-03 4.00664797e-04 5.00000000e-01	1	7.19549622e-03	7.65290683e-02 4.00664797e-04 5.00000000e-01	18	6.10520086e-01	7.65290683e-02 4.00664797e-04 5.00000000e-01	18	6.69884296e-05	-2.84388080e-01 9.10418368e-01 5.00000000e-01	5670