#      distance             U_x             U_y             U_z wallShearStr... wallShearStr... wallShearStr...               p           omega               k             nut
  3.0219182e-06     0.018437888   2.6284505e-09  -3.4461354e-23               0               0               0   0.00023276696       5570601.8   3.9968236e-07   3.7390964e-13
  5.0865428e-06     0.031038029   6.6678254e-09  -1.4611532e-23               0               0               0   0.00023276717       1240850.2   1.8252599e-06      3.4559e-12
  7.2269684e-06     0.044100075   1.3130493e-08   -3.764322e-23               0               0               0   0.00023276739       495682.18   5.7569098e-06   1.9325623e-11
  9.4750924e-06      0.05781666   2.2378906e-08  -5.6458791e-23               0               0               0   0.00023276761       256764.62     1.44178e-05    7.881957e-11
  1.1864417e-05     0.072385786    3.492453e-08  -2.3400977e-23               0               0               0   0.00023276784       152802.43   3.1086335e-05   2.5990334e-10
  1.4430548e-05     0.088006869    5.150173e-08   7.8882606e-23               0               0               0    0.0002327681        99058.22   6.0518579e-05   7.3658713e-10
  1.7211727e-05       0.1048687   7.3068573e-08   1.2748059e-22               0               0               0   0.00023276838       68139.934   0.00010940357   1.8611122e-09
  2.0249401e-05      0.12312314   1.0081992e-07   2.8786653e-23               0               0               0    0.0002327687       49052.781   0.00018656232   4.2814112e-09
  2.3588836e-05      0.14283958   1.3617956e-07   -3.045186e-23               0               0               0   0.00023276909       36671.307   0.00030228802   9.0655983e-09
  2.7279799e-05      0.16394564   1.8073691e-07   -1.522593e-23               0               0               0   0.00023276957       28321.834    0.0004660376   1.7755289e-08
  3.1377293e-05      0.18618217   2.3612579e-07               0               0               0               0   0.00023277019       22484.257   0.00068235522   3.2248224e-08
  3.5942381e-05       0.2091157   3.0390803e-07   7.1949543e-23               0               0               0   0.00023277102       18244.023   0.00094682853   5.4497272e-08
  4.1043091e-05      0.23222701   3.8555509e-07   1.0791277e-22               0               0               0   0.00023277211       15039.648    0.0012453315   8.6183001e-08
  4.6755437e-05      0.25503548   4.8251342e-07    1.214972e-22               0               0               0   0.00023277352       12530.033    0.0015580302   1.2857466e-07
  5.3164546e-05      0.27720463   5.9645985e-07   1.2828724e-22               0               0               0   0.00023277532       10510.287     0.001865695   1.8205238e-07
  6.0365928e-05      0.29857463    7.296202e-07  -1.9330797e-22               0               0               0   0.00023277757       8853.5787    0.0021545077   2.4683782e-07
    6.84669e-05      0.31908959   8.8471284e-07  -4.1173386e-22               0               0               0   0.00023278036        7476.937    0.0024168736   3.2495166e-07
  7.7588184e-05      0.33871256    1.064751e-06  -2.1503825e-22               0               0               0   0.00023278383       6324.5488     0.002649328   4.1961669e-07
   8.786571e-05      0.35741898   1.2731044e-06   6.1355603e-23               0               0               0   0.00023278812       5357.5389    0.0028511037   5.3377076e-07
  9.9452634e-05       0.3752186   1.5136467e-06   2.7236179e-22               0               0               0   0.00023279337        4546.625    0.0030236987    6.699451e-07
  0.00011252163      0.39216372   1.7909121e-06   5.6552819e-23               0               0               0   0.00023279969       3867.6643    0.0031701503   8.2954896e-07
  0.00012726745      0.40834852   2.1103985e-06  -1.5311992e-22               0               0               0   0.00023280718       3299.2826    0.0032941985   1.0127848e-06
  0.00014390985      0.42388502   2.4786871e-06  -3.8032177e-23               0               0               0   0.00023281598       2822.4268    0.0033995539   1.2215791e-06
  0.00016269684      0.43886721   2.9031992e-06   6.8210119e-23               0               0               0   0.00023282631       2421.0096    0.0034893242   1.4605673e-06
  0.00018390838      0.45336293   3.3922333e-06   5.4409896e-22               0               0               0   0.00023283845       2082.0039    0.0035658987   1.7344573e-06
  0.00020786057      0.46742736    3.955374e-06   6.7966281e-22               0               0               0   0.00023285267       1794.8362    0.0036312165   2.0475797e-06
  0.00023491035      0.48110985   4.6037012e-06   2.0377396e-22               0               0               0   0.00023286928       1550.8451    0.0036869319   2.4048032e-06
  0.00026546084      0.49445435   5.3499137e-06               0               0               0               0   0.00023288863       1342.9263    0.0037344398   2.8115951e-06
   0.0002999673      0.50749996   6.2085815e-06               0               0               0               0   0.00023291111        1165.241    0.0037749076    3.274085e-06
  0.00033894396      0.52028146   7.1964336e-06  -1.8512464e-22               0               0               0    0.0002329372       1012.9786     0.003809306   3.7991345e-06
  0.00038297165      0.53282983   8.3326843e-06  -3.7024928e-22               0               0               0    0.0002329674       882.16468    0.0038384382   4.3944103e-06
  0.00043270649      0.54517275   9.6394066e-06   8.0095889e-22               0               0               0   0.00023300232       769.50504    0.0038629646   5.0684601e-06
  0.00048888965      0.55733507   1.1141968e-05   1.5554388e-21               0               0               0   0.00023304262       672.26033     0.003883424     5.83079e-06
  0.00055235838      0.56933919   1.2869537e-05   5.6935526e-22               0               0               0   0.00023308906       588.14475     0.003900251   6.6919396e-06
   0.0006240585      0.58120543   1.4855672e-05               0               0               0               0   0.00023314251       515.24435    0.0039137899   7.6635527e-06
  0.00070505852       0.5929524   1.7139013e-05   2.3905844e-22               0               0               0   0.00023320393         451.951    0.0039243059   8.7584367e-06
  0.00079656552      0.60459727   1.9764092e-05   4.7811688e-22               0               0               0   0.00023327444       396.90899    0.0039319939   9.9906046e-06
  0.00089994316      0.61615606   2.2782292e-05   2.3905844e-22               0               0               0   0.00023335527       348.97167    0.0039369844   1.1375288e-05
    0.001016732      0.62764395   2.6252976e-05               0               0               0               0    0.0002334478       307.16615    0.0039393486   1.2928906e-05
   0.0011486725      0.63907549   3.0244843e-05    1.041727e-21               0               0               0   0.00023355357       270.66453    0.0039391009    1.466898e-05
   0.0012977308       0.6504649   3.4837545e-05  -7.8789566e-22               0               0               0   0.00023367432       238.76029    0.0039361996   1.6613948e-05
   0.0014661282      0.66182633   4.0123646e-05  -3.4905333e-21               0               0               0   0.00023381194       210.84894    0.0039305471   1.8782868e-05
   0.0016563743      0.67317414      4.6211e-05  -2.6967074e-21               0               0               0   0.00023396851       186.41202    0.0039219875   2.1194956e-05
   0.0018713042      0.68452323   5.3225666e-05  -1.5854655e-21               0               0               0   0.00023414631       165.00386    0.0039103028   2.3868886e-05
   0.0021141207      0.69588936    6.131552e-05  -5.4966871e-22               0               0               0   0.00023434779       146.24067    0.0038952075   2.6821804e-05
   0.0023884425      0.70728962   7.0654751e-05  -4.0098684e-22               0               0               0   0.00023457554       129.79134    0.0038763407   3.0067929e-05
   0.0026983575      0.71874281   8.1449542e-05   1.2443674e-21               0               0               0   0.00023483224        115.3699    0.0038532556   3.3616632e-05
   0.0030484842      0.73027015   9.3945298e-05  -2.2368192e-21               0               0               0   0.00023512058       102.72909    0.0038254061   3.7469845e-05
   0.0034440402       0.7418959   0.00010843597  -5.6989922e-21               0               0               0   0.00023544313       91.655131    0.0037921281   4.1618598e-05
   0.0038909203       0.7536483   0.00012527616  -1.8168187e-21               0               0               0    0.0002358021       81.963245    0.0037526166   4.6038491e-05
    0.004395784      0.76556071   0.00014489724   3.1397398e-21               0               0               0   0.00023619909       73.494045    0.0037058948   5.0683855e-05
   0.0049661549      0.77767311    0.0001678293  -4.6845668e-21               0               0               0   0.00023663464       66.110567    0.0036507736   5.5480392e-05
   0.0056105328      0.79003399   0.00019473138  -1.3757674e-20               0               0               0   0.00023710755       59.695979    0.0035857989   6.0316143e-05
   0.0063385204      0.80270295   0.00022642981   5.3445646e-21               0               0               0   0.00023761286       54.151967    0.0035091836   6.5030758e-05
   0.0071609664      0.81575407   0.00026394743   1.8558412e-20               0               0               0   0.00023813775        49.39798    0.0034187224   6.9403408e-05
   0.0080901272      0.82929278   0.00030865251    2.936509e-20               0               0               0   0.00023866641        45.36627    0.0033113889   7.3002864e-05
   0.0091398493       0.8434911   0.00036255425   3.4051118e-20               0               0               0    0.0002391841       41.988093    0.0031823969   7.5150117e-05
    0.010325776      0.85859783   0.00042856689   1.6023047e-20               0               0               0   0.00023965463       39.180349    0.0030240959   7.5298454e-05
     0.01166558      0.87491323   0.00051062566   4.0565407e-21               0               0               0   0.00024000759       36.833284    0.0028246299   7.3109927e-05
    0.013179228      0.89277139   0.00061403774   1.7909565e-20               0               0               0   0.00024015091       34.787068    0.0025665992   6.8305468e-05
    0.014889277       0.9124758   0.00074574669   1.6571027e-20               0               0               0   0.00023993647       32.818663    0.0022283445   6.0909744e-05
    0.016821209      0.93403227   0.00091052784   5.0714692e-20               0               0               0   0.00023904299       30.697567     0.001793621   5.1466215e-05
    0.019003816      0.95679126     0.001112104   7.7419597e-20               0               0               0   0.00023727386       28.146646    0.0012635021   4.0159383e-05
    0.021469624       0.9788333    0.0013395412   4.3864639e-20               0               0               0   0.00023446773       23.077368   0.00068844849    2.626823e-05
    0.024255377       0.9952671    0.0015166033   2.4054473e-20               0               0               0   0.00022960057       14.332404   0.00023565967   1.2129138e-05
    0.027402591       1.0024697    0.0015843221   5.5561575e-21               0               0               0   0.00022278755       7.3125799   3.6689367e-05   3.1149996e-06
    0.030958166        1.003776    0.0015883045               0               0               0               0   0.00021582923       5.3269966   1.7760746e-06   3.2426658e-07
    0.034975088       1.0038179     0.001579505               0               0               0               0    0.0002093381       5.2603575   6.5595361e-07   1.2469784e-07
    0.039513219       1.0038155    0.0015693755   1.9703155e-20               0               0               0   0.00020287728       5.2618482   6.5391265e-07   1.2427305e-07
    0.044640187       1.0038176     0.001560151   2.9551643e-20               0               0               0   0.00019621869       5.2622593   6.5412436e-07   1.2430341e-07
    0.050432395       1.0038245    0.0015498642   9.8484524e-21               0               0               0    0.0001893598       5.2622372   6.5413622e-07   1.2430619e-07
    0.056976161       1.0038303    0.0015380529               0               0               0               0    0.0001823983       5.2622296     6.54133e-07   1.2430576e-07
    0.064369002       1.0038309    0.0015254738               0               0               0               0   0.00017550897       5.2622238   6.5413179e-07   1.2430567e-07
    0.072721087       1.0038279    0.0015117649               0               0               0               0   0.00016884476       5.2622136   6.5413018e-07    1.243056e-07
    0.082156882       1.0038227    0.0014970799               0               0               0               0   0.00016249311       5.2621961   6.5412763e-07   1.2430553e-07
    0.092817002        1.003815    0.0014811881               0               0               0               0   0.00015653501        5.262169   6.5412384e-07   1.2430545e-07
