/*--------------------------------*- C++ -*----------------------------------*\
  =========                 |
  \\      /  F ield         | OpenFOAM: The Open Source CFD Toolbox
   \\    /   O peration     | Website:  https://openfoam.org
    \\  /    A nd           | Version:  12
     \\/     M anipulation  |
\*---------------------------------------------------------------------------*/
FoamFile
{
    format      ascii;
    class       volScalarField;
    location    "200";
    object      k;
}
// * * * * * * * * * * * * * * * * * * * * * * * * * * * * * * * * * * * * * //

dimensions      [0 2 -2 0 0 0 0];

internalField   nonuniform List<scalar> 
7480
(
9.132136e-06
9.5180225e-06
1.0336796e-05
1.2715397e-05
0.0017675905
0.0035112026
0.0049554243
0.0060289135
0.0067626583
0.0072237527
0.0074851471
0.0076041684
0.0076237272
0.0075751022
0.0074809322
0.0073573819
0.0072160396
0.0070660579
0.0069172
0.0067704395
0.0066276804
0.0064894161
0.006357756
0.006234612
0.0061212627
0.0060184813
0.0059265469
0.0058452524
0.0057740248
0.0057120433
0.0056583237
0.0056118431
0.0055717194
0.0055372213
0.0055074744
0.0054814617
0.005458115
0.0054365437
0.0054161007
0.0053963283
0.0053768172
0.0053571971
0.0053371827
0.0053165619
0.0052952305
0.0052731497
0.0052502807
0.0052264879
0.0052016404
0.0051757544
0.0051489589
0.0051213776
0.0050931124
0.0050643283
0.0050352776
0.0050061661
0.0049770626
0.0049479786
0.004918973
0.0048901384
0.0048615168
0.0048331334
0.0048050603
0.0047773719
0.0047500724
0.004723155
0.0046966234
0.0046704379
0.0046445304
0.0046188922
0.0045935631
0.0045685382
0.0045438185
0.0045194621
0.0044954443
0.0044716986
0.0044482284
0.0044250189
0.0044020473
0.0043793564
0.0043569611
0.0043348346
0.0043129793
0.0042913644
0.0042699621
0.0042487961
0.0042278776
0.0042072067
0.0041867632
0.0041665236
0.0041464939
0.0041266673
0.0041070522
0.004087621
0.0040683934
0.0040491556
0.0040305825
0.0040107545
0.0039932994
0.003966804
8.9479284e-06
8.8222147e-06
8.7067611e-06
8.6318613e-06
4.7739168e-05
0.00014931468
0.00031207377
0.00052024627
0.00075168297
0.00098614423
0.0012045458
0.001398499
0.0015688061
0.0017225897
0.0018691436
0.0020188305
0.0021844318
0.0023870287
0.0026128234
0.0028404413
0.0030741318
0.0033131894
0.00355461
0.0037949862
0.0040309351
0.0042582076
0.0044728208
0.0046714845
0.004851631
0.005011568
0.0051506516
0.0052694693
0.0053698143
0.0054548183
0.0055249588
0.0055800087
0.0056198399
0.0056464874
0.0056615591
0.0056664836
0.0056628356
0.0056522864
0.0056362835
0.0056157838
0.0055916012
0.0055644764
0.0055351039
0.0055040822
0.0054719221
0.0054392921
0.0054067946
0.0053748521
0.0053437279
0.0053136074
0.0052846512
0.0052567448
0.0052295029
0.0052027302
0.0051763848
0.0051505324
0.0051252725
0.0051006556
0.0050766346
0.0050531105
0.0050300019
0.005007223
0.0049844749
0.0049616111
0.0049386789
0.0049157981
0.0048930857
0.004870622
0.004848432
0.0048265183
0.0048047467
0.0047829889
0.0047612252
0.0047395306
0.0047180014
0.0046966898
0.0046756312
0.0046547554
0.0046339557
0.0046132151
0.0045925901
0.0045721338
0.0045518933
0.0045318413
0.0045119034
0.0044920587
0.0044723393
0.0044527906
0.0044334343
0.004414203
0.0043951048
0.0043759966
0.0043573378
0.0043378249
0.004322131
0.004288064
8.9433769e-06
8.8096532e-06
8.6758503e-06
8.542795e-06
9.0513335e-06
1.1697463e-05
1.865488e-05
3.1946233e-05
5.2805222e-05
8.1720102e-05
0.00011804399
0.00016044651
0.00020748107
0.00025789123
0.000310731
0.00036553851
0.00042263216
0.00048390075
0.00054883011
0.00061891963
0.00069624925
0.00078457133
0.00088740847
0.0010087645
0.0011534025
0.0013105362
0.0014770796
0.0016535379
0.0018399515
0.0020359202
0.0022406866
0.0024534962
0.0026715579
0.002885049
0.0030921631
0.0032899091
0.003473923
0.0036410903
0.0037922873
0.0039271957
0.0040469332
0.0041528048
0.0042442898
0.0043204535
0.0043830832
0.0044339063
0.0044746559
0.0045039873
0.004525511
0.0045412929
0.0045525428
0.0045600887
0.0045646907
0.0045672183
0.0045683638
0.0045683623
0.0045671705
0.0045648247
0.0045615401
0.0045576169
0.0045532648
0.0045485563
0.0045434464
0.0045378659
0.0045318172
0.0045252597
0.0045178313
0.0045095522
0.0045006158
0.004491218
0.0044814874
0.0044714847
0.0044612346
0.0044507549
0.0044398181
0.0044283319
0.0044163877
0.0044041255
0.0043916751
0.0043791031
0.0043664448
0.0043535743
0.0043403833
0.0043269094
0.0043132676
0.0042995423
0.0042857922
0.0042719559
0.0042579427
0.0042437678
0.004229503
0.0042152183
0.0042009354
0.0041865701
0.0041721042
0.0041575518
0.0041430837
0.0041280347
0.0041154907
0.004088902
8.9432715e-06
8.8092113e-06
8.6750523e-06
8.5409047e-06
8.4159949e-06
8.3325832e-06
8.3606351e-06
8.6167131e-06
9.2641867e-06
1.0526214e-05
1.2643198e-05
1.5842646e-05
2.0315108e-05
2.6203745e-05
3.361029e-05
4.2608672e-05
5.3273555e-05
6.5755339e-05
8.0215459e-05
9.6857338e-05
0.00011592956
0.0001378301
0.0001631219
0.00019257337
0.00022725082
0.00026786038
0.00031514658
0.00037021456
0.0004346999
0.00051096718
0.00060238195
0.00071355889
0.00084292184
0.00098580863
0.0011432141
0.0013165032
0.0015063031
0.0017099856
0.001916963
0.0021227175
0.0023236012
0.0025166191
0.0026987926
0.0028686983
0.0030249845
0.0031665939
0.0032942501
0.0034083963
0.0035095092
0.0035960706
0.0036701642
0.0037337055
0.0037885644
0.0038367038
0.0038791432
0.0039154658
0.0039457758
0.003971749
0.0039945527
0.0040150273
0.0040334965
0.0040500429
0.0040647089
0.0040776498
0.0040891031
0.0040991379
0.004107642
0.0041146377
0.0041203304
0.0041249242
0.0041285417
0.0041312282
0.0041330274
0.0041339966
0.0041339022
0.0041327559
0.0041307362
0.0041280052
0.0041246874
0.0041208513
0.0041165382
0.0041115779
0.0041059123
0.0040996515
0.0040929388
0.0040858694
0.0040785066
0.0040707539
0.004062531
0.004053902
0.0040449707
0.0040358189
0.0040264592
0.0040167926
0.004006808
0.0039966122
0.0039862419
0.0039753721
0.0039660361
0.0039455016
8.9432797e-06
8.80921e-06
8.6750641e-06
8.540915e-06
8.4069491e-06
8.2738035e-06
8.1431443e-06
8.0184758e-06
7.9059509e-06
7.8156033e-06
7.7620951e-06
7.7653275e-06
7.8505438e-06
8.0482317e-06
8.3942527e-06
8.9298256e-06
9.7018648e-06
1.0764444e-05
1.2180641e-05
1.4021858e-05
1.6366655e-05
1.9308564e-05
2.2963752e-05
2.7478764e-05
3.3049996e-05
3.9924274e-05
4.8389689e-05
5.8798101e-05
7.1601407e-05
8.7399511e-05
0.00010700906
0.00013158558
0.00016240039
0.00020071402
0.00024821788
0.00030732799
0.00038145698
0.00047524903
0.00059229798
0.00072593868
0.00087562025
0.0010401571
0.0012193487
0.0014080641
0.001600073
0.0017911851
0.0019777047
0.0021564225
0.0023251184
0.0024838086
0.0026300077
0.0027631522
0.0028842469
0.0029952848
0.0030953481
0.0031835532
0.003260988
0.0033294561
0.0033909167
0.0034465658
0.0034966911
0.0035417512
0.0035823449
0.0036192227
0.0036529146
0.0036833594
0.0037100824
0.0037339877
0.0037556406
0.0037753348
0.003793184
0.0038092413
0.0038236477
0.0038365295
0.0038478722
0.003857726
0.0038662425
0.0038735726
0.0038798303
0.0038850885
0.0038894019
0.0038926149
0.0038947625
0.0038960063
0.0038964858
0.0038962936
0.0038954935
0.0038939659
0.0038916734
0.0038887346
0.0038852691
0.0038813593
0.0038770053
0.0038720993
0.003866667
0.0038608664
0.0038546806
0.003847934
0.0038421441
0.0038264253
8.9433022e-06
8.8092423e-06
8.6751066e-06
8.5409589e-06
8.4068616e-06
8.2728851e-06
8.1391217e-06
8.0057128e-06
7.8728929e-06
7.7410518e-06
7.610817e-06
7.4831537e-06
7.3594724e-06
7.2417352e-06
7.1325795e-06
7.0354359e-06
6.9546752e-06
6.895802e-06
6.8657677e-06
6.8732104e-06
6.9284854e-06
7.0442663e-06
7.2365003e-06
7.5254637e-06
7.9382025e-06
8.5105564e-06
9.2885323e-06
1.0331682e-05
1.1719074e-05
1.3557021e-05
1.5989502e-05
1.9218773e-05
2.3521026e-05
2.9267313e-05
3.6954835e-05
4.7273016e-05
6.1195546e-05
8.0103528e-05
0.00010585706
0.00014011684
0.00018485356
0.00024252147
0.00031659179
0.00041009046
0.00052525228
0.00065789484
0.00080704412
0.00097009552
0.0011439883
0.0013215553
0.001499147
0.0016733434
0.0018414534
0.0020018057
0.0021552348
0.0022995369
0.0024330175
0.0025557493
0.0026692473
0.0027736227
0.0028674098
0.0029520157
0.0030288095
0.0030991849
0.0031636403
0.0032220803
0.0032744907
0.0033218913
0.0033652134
0.0034048121
0.0034409059
0.0034737885
0.0035038735
0.0035314077
0.003556053
0.0035782376
0.0035983865
0.0036167308
0.0036333922
0.0036484612
0.003662027
0.0036741162
0.0036848105
0.003694237
0.0037025142
0.0037097359
0.0037159675
0.0037211113
0.0037252033
0.0037283945
0.0037307983
0.0037324918
0.0037334661
0.0037336261
0.0037330513
0.0037319219
0.0037301938
0.0037277635
0.0037258853
0.0037147066
8.9433342e-06
8.8092792e-06
8.6751449e-06
8.5409965e-06
8.406897e-06
8.2729085e-06
8.1390919e-06
8.0055073e-06
7.8722182e-06
7.7392927e-06
7.6068072e-06
7.474851e-06
7.3435396e-06
7.2130177e-06
7.0834726e-06
6.9551497e-06
6.8283701e-06
6.703552e-06
6.5812401e-06
6.4621372e-06
6.347124e-06
6.2373015e-06
6.1340633e-06
6.0391801e-06
5.9549706e-06
5.8845068e-06
5.8317951e-06
5.802137e-06
5.8027096e-06
5.8434075e-06
5.9380508e-06
6.1066653e-06
6.378666e-06
6.7967012e-06
7.4228941e-06
8.3498181e-06
9.7174217e-06
1.1738247e-05
1.4737813e-05
1.9173437e-05
2.5685025e-05
3.5168692e-05
4.8896612e-05
6.8547616e-05
9.6283359e-05
0.00013421593
0.0001848129
0.00025106532
0.00033684781
0.00044290778
0.00056603643
0.00070559707
0.00085924881
0.0010229273
0.0011887818
0.0013542149
0.0015166421
0.001673997
0.0018249504
0.0019707458
0.0021091147
0.0022386884
0.0023596451
0.0024731303
0.0025782837
0.002673973
0.0027610336
0.0028407312
0.0029139956
0.0029807342
0.0030414136
0.0030968412
0.0031477688
0.0031945009
0.0032368615
0.0032753022
0.0033104645
0.0033427142
0.0033722446
0.0033992676
0.0034240156
0.0034463498
0.0034665913
0.0034850352
0.0035018457
0.0035171387
0.0035309831
0.0035434171
0.0035545309
0.0035644398
0.0035732395
0.0035810074
0.0035877434
0.003593403
0.0035981106
0.0036020396
0.003605128
0.0036073183
0.0036097582
0.0036031776
8.9433763e-06
8.8093267e-06
8.6751961e-06
8.5410506e-06
8.406953e-06
8.2729649e-06
8.1391464e-06
8.0055564e-06
7.8722542e-06
7.7392996e-06
7.6067522e-06
7.4746721e-06
7.3431193e-06
7.2121557e-06
7.0818432e-06
6.9522461e-06
6.8234322e-06
6.6954741e-06
6.5684518e-06
6.4424555e-06
6.3175884e-06
6.1939694e-06
6.0717394e-06
5.9510676e-06
5.832163e-06
5.7152896e-06
5.6007813e-06
5.4890666e-06
5.3807096e-06
5.2764688e-06
5.1773814e-06
5.0849182e-06
5.0012144e-06
4.9293689e-06
4.8739274e-06
4.8417357e-06
4.8433603e-06
4.8953998e-06
5.0249608e-06
5.2758555e-06
5.7175845e-06
6.4620544e-06
7.6907799e-06
9.6924865e-06
1.2915548e-05
1.8014569e-05
2.5931621e-05
3.800347e-05
5.6113811e-05
8.2541185e-05
0.00011954943
0.0001697606
0.00023634915
0.00032382498
0.00042945006
0.0005512029
0.0006881479
0.00083773449
0.00099518092
0.0011515576
0.0013065041
0.0014583756
0.0016059036
0.001748784
0.0018875472
0.00201967
0.0021442046
0.0022614632
0.0023720634
0.0024731735
0.0025658725
0.0026513685
0.0027304147
0.0028029613
0.0028690413
0.0029293229
0.0029845785
0.0030351621
0.0030814065
0.0031237885
0.0031627688
0.0031982932
0.0032306623
0.0032603182
0.0032875601
0.0033125678
0.0033354833
0.0033562748
0.003375195
0.0033924821
0.0034082619
0.00342263
0.0034356329
0.003447335
0.003457834
0.0034672767
0.003475596
0.0034827784
0.0034899981
0.0034882076
8.9434251e-06
8.809382e-06
8.6752559e-06
8.5411134e-06
8.4070171e-06
8.2730285e-06
8.1392085e-06
8.0056164e-06
7.872312e-06
7.7393549e-06
7.6068045e-06
7.4747197e-06
7.3431591e-06
7.2121807e-06
7.0818416e-06
6.9521978e-06
6.8233048e-06
6.6952166e-06
6.5679868e-06
6.4416681e-06
6.316313e-06
6.191973e-06
6.0686996e-06
5.9465447e-06
5.8255614e-06
5.7058051e-06
5.5873349e-06
5.4702147e-06
5.3545164e-06
5.2403235e-06
5.1277369e-06
5.0168847e-06
4.9079376e-06
4.801128e-06
4.6967808e-06
4.5953664e-06
4.4975889e-06
4.404528e-06
4.3179189e-06
4.2405931e-06
4.1771162e-06
4.1350303e-06
4.1270493e-06
4.1748802e-06
4.3161521e-06
4.6153395e-06
5.1821601e-06
6.2037959e-06
7.9964719e-06
1.1065833e-05
1.6168003e-05
2.4408535e-05
3.7368429e-05
5.7377281e-05
8.6817563e-05
0.00012817496
0.00018436048
0.00025925917
0.00035528142
0.00046715301
0.00059364947
0.00073298424
0.00088143887
0.0010325319
0.0011806088
0.0013268736
0.0014702008
0.0016094534
0.0017460853
0.0018773607
0.0020019914
0.0021199912
0.002231882
0.0023355379
0.0024310315
0.0025192894
0.002600869
0.0026756333
0.0027440576
0.0028068907
0.0028647266
0.0029175582
0.0029657519
0.0030099195
0.0030504723
0.00308769
0.0031218884
0.0031531608
0.0031817561
0.0032079921
0.003232116
0.003254286
0.0032745408
0.0032929499
0.0033097982
0.003325247
0.0033392442
0.0033518452
0.0033643818
0.0033675813
8.943479e-06
8.8094429e-06
8.6753218e-06
8.5411822e-06
8.4070873e-06
8.2730988e-06
8.1392777e-06
8.0056842e-06
7.872378e-06
7.7394189e-06
7.6068661e-06
7.4747788e-06
7.3432155e-06
7.212234e-06
7.0818913e-06
6.9522433e-06
6.8233447e-06
6.6952491e-06
6.5680087e-06
6.4416743e-06
6.3162956e-06
6.1919204e-06
6.0685948e-06
5.9463633e-06
5.8252688e-06
5.705353e-06
5.5866563e-06
5.4692176e-06
5.3530744e-06
5.2382635e-06
5.124821e-06
5.012783e-06
4.9021867e-06
4.7930718e-06
4.6854822e-06
4.5794688e-06
4.4750952e-06
4.3724462e-06
4.2716439e-06
4.1728748e-06
4.0764285e-06
3.9827719e-06
3.8926827e-06
3.8074879e-06
3.7295142e-06
3.662856e-06
3.6147081e-06
3.5979258e-06
3.6358016e-06
3.7706922e-06
4.0784991e-06
4.6941016e-06
5.8558271e-06
7.9836649e-06
1.1741279e-05
1.8133549e-05
2.8628798e-05
4.5386442e-05
7.1221262e-05
0.0001087005
0.00016063214
0.00023076266
0.00032131393
0.00042990916
0.00055205958
0.00068613785
0.00082864399
0.00097499889
0.0011173499
0.0012584567
0.0013973224
0.0015327738
0.0016661867
0.001795072
0.0019180711
0.0020349874
0.0021460773
0.0022489939
0.0023442398
0.0024325701
0.0025143865
0.0025894347
0.0026582555
0.0027214819
0.0027794593
0.0028325826
0.0028813933
0.0029261392
0.0029670522
0.0030045565
0.0030390574
0.0030708016
0.0030999224
0.0031265476
0.0031510065
0.0031735388
0.0031941911
0.0032129244
0.003231416
0.0032396491
8.9435372e-06
8.8095084e-06
8.6753925e-06
8.5412562e-06
8.4071629e-06
8.2731746e-06
8.1393528e-06
8.0057578e-06
7.8724497e-06
7.7394883e-06
7.6069332e-06
7.4748434e-06
7.3432776e-06
7.2122935e-06
7.0819482e-06
6.9522975e-06
6.8233963e-06
6.6952979e-06
6.5680546e-06
6.4417172e-06
6.3163351e-06
6.1919559e-06
6.0686256e-06
5.9463882e-06
5.8252862e-06
5.7053605e-06
5.5866502e-06
5.4691927e-06
5.3530236e-06
5.2381764e-06
5.1246831e-06
5.0125739e-06
4.9018773e-06
4.7926205e-06
4.6848289e-06
4.5785268e-06
4.4737372e-06
4.3704826e-06
4.2687858e-06
4.1686719e-06
4.0701707e-06
3.9733198e-06
3.8781736e-06
3.7848161e-06
3.6933884e-06
3.6041345e-06
3.5174835e-06
3.4342052e-06
3.3557106e-06
3.284626e-06
3.225836e-06
3.1883789e-06
3.1891585e-06
3.2605073e-06
3.4631946e-06
3.9099685e-06
4.8083526e-06
6.5373354e-06
9.7494251e-06
1.5466585e-05
2.5201553e-05
4.1204103e-05
6.6398676e-05
0.00010385347
0.00015640623
0.00022800494
0.00031906807
0.00042883506
0.0005509861
0.00068326706
0.00082221499
0.00096394044
0.0011019052
0.0012382228
0.0013727144
0.0015045624
0.001634496
0.0017599428
0.0018798212
0.0019940983
0.0021024352
0.0022027824
0.0022960152
0.0023825493
0.0024623049
0.002535655
0.0026032015
0.0026652514
0.0027220449
0.0027741009
0.0028219197
0.002865827
0.0029061273
0.0029430537
0.0029769406
0.0030081324
0.0030368392
0.0030629836
0.003088621
0.0031028978
8.9435987e-06
8.8095774e-06
8.6754669e-06
8.5413341e-06
8.4072427e-06
8.2732549e-06
8.1394324e-06
8.0058361e-06
7.8725262e-06
7.7395626e-06
7.6070052e-06
7.4749129e-06
7.3433445e-06
7.2123578e-06
7.0820098e-06
6.9523563e-06
6.8234522e-06
6.6953509e-06
6.5681047e-06
6.4417644e-06
6.3163793e-06
6.1919972e-06
6.0686639e-06
5.9464236e-06
5.8253188e-06
5.7053903e-06
5.5866771e-06
5.4692167e-06
5.3530443e-06
5.2381935e-06
5.1246959e-06
5.0125814e-06
4.901878e-06
4.7926119e-06
4.6848077e-06
4.5784877e-06
4.4736726e-06
4.370381e-06
4.2686298e-06
4.1684344e-06
4.0698089e-06
3.9727661e-06
3.8773176e-06
3.7834751e-06
3.6912519e-06
3.6006658e-06
3.5117435e-06
3.4245296e-06
3.3391043e-06
3.2556178e-06
3.1743552e-06
3.0958547e-06
3.0211423e-06
2.9522139e-06
2.8929616e-06
2.8509173e-06
2.8407039e-06
2.8911918e-06
3.0595231e-06
3.4566754e-06
4.2946281e-06
5.9740058e-06
9.2038733e-06
1.5146943e-05
2.5532383e-05
4.2969751e-05
7.0576543e-05
0.00011183413
0.0001698703
0.00024768245
0.00034435198
0.00045869769
0.00058359256
0.00071570181
0.00085215896
0.00098945574
0.0011228987
0.0012551235
0.0013854002
0.0015140671
0.0016400057
0.0017612497
0.0018772059
0.0019878934
0.0020915198
0.0021879141
0.0022775647
0.0023605857
0.0024370341
0.0025073866
0.0025720845
0.0026314544
0.0026859706
0.0027359858
0.0027818208
0.002823919
0.0028626718
0.0028980086
0.0029323904
0.0029543971
8.943663e-06
8.8096492e-06
8.6755444e-06
8.5414152e-06
8.4073259e-06
8.2733388e-06
8.1395158e-06
8.0059183e-06
7.8726067e-06
7.7396411e-06
7.6070813e-06
7.4749866e-06
7.3434155e-06
7.2124261e-06
7.0820752e-06
6.9524188e-06
6.8235118e-06
6.6954076e-06
6.5681584e-06
6.4418152e-06
6.3164272e-06
6.1920421e-06
6.0687059e-06
5.9464629e-06
5.8253554e-06
5.7054242e-06
5.5867086e-06
5.4692458e-06
5.3530712e-06
5.2382183e-06
5.1247188e-06
5.0126023e-06
4.9018971e-06
4.7926292e-06
4.684823e-06
4.578501e-06
4.4736834e-06
4.3703888e-06
4.2686336e-06
4.1684328e-06
4.0697995e-06
3.9727449e-06
3.8772784e-06
3.7834074e-06
3.6911382e-06
3.6004755e-06
3.5114233e-06
3.4239848e-06
3.3381636e-06
3.2539657e-06
3.171404e-06
3.0905043e-06
3.0113196e-06
2.9339592e-06
2.8586458e-06
2.7858269e-06
2.7163964e-06
2.6521598e-06
2.596798e-06
2.5577727e-06
2.5501605e-06
2.6048863e-06
2.7854609e-06
3.2209569e-06
4.1668311e-06
6.1208209e-06
9.9676799e-06
1.7174322e-05
2.9953446e-05
5.1387426e-05
8.491974e-05
0.0001343585
0.00020331799
0.00029110681
0.00039694898
0.00051754349
0.00064499683
0.00077688065
0.00091097232
0.0010433007
0.0011726801
0.001301061
0.0014277464
0.0015528971
0.0016742027
0.001790587
0.0019019824
0.0020073276
0.0021054212
0.0021967216
0.0022814596
0.0023596233
0.0024316686
0.0024979704
0.0025587998
0.002614645
0.0026660169
0.0027128861
0.0027581024
0.0027900967
8.9437297e-06
8.8097234e-06
8.6756243e-06
8.541499e-06
8.4074118e-06
8.2734256e-06
8.1396025e-06
8.0060039e-06
7.8726906e-06
7.739723e-06
7.6071609e-06
7.4750637e-06
7.34349e-06
7.2124978e-06
7.0821441e-06
6.9524848e-06
6.8235748e-06
6.6954675e-06
6.5682153e-06
6.441869e-06
6.316478e-06
6.1920899e-06
6.0687507e-06
5.9465047e-06
5.8253944e-06
5.7054606e-06
5.5867424e-06
5.4692772e-06
5.3531003e-06
5.2382453e-06
5.1247438e-06
5.0126255e-06
4.9019186e-06
4.7926492e-06
4.6848417e-06
4.5785183e-06
4.4736995e-06
4.3704037e-06
4.2686474e-06
4.1684454e-06
4.0698109e-06
3.9727549e-06
3.8772866e-06
3.7834135e-06
3.6911411e-06
3.6004736e-06
3.5114137e-06
3.4239623e-06
3.3381188e-06
3.2538814e-06
3.1712472e-06
3.0902131e-06
3.010776e-06
2.9329344e-06
2.8566925e-06
2.7820668e-06
2.7090989e-06
2.6378842e-06
2.5686321e-06
2.5017883e-06
2.4382852e-06
2.3800866e-06
2.3313598e-06
2.3009259e-06
2.3073868e-06
2.3906782e-06
2.6358353e-06
3.2221903e-06
4.517562e-06
7.2309832e-06
1.261099e-05
2.2683837e-05
4.0493453e-05
6.9520146e-05
0.000113553
0.00017695405
0.00025971772
0.00036060122
0.00047709993
0.00060214063
0.0007307265
0.00086153341
0.00099211944
0.0011195087
0.001245479
0.0013699586
0.00149366
0.0016141645
0.0017301029
0.0018412771
0.0019468965
0.0020453385
0.002137089
0.0022223835
0.0023011157
0.0023736785
0.0024405857
0.0025017643
0.0025603307
0.002605049
8.9437986e-06
8.8097996e-06
8.6757062e-06
8.5415848e-06
8.4075001e-06
8.2735149e-06
8.1396917e-06
8.0060922e-06
7.8727775e-06
7.739808e-06
7.6072436e-06
7.4751439e-06
7.3435676e-06
7.2125726e-06
7.082216e-06
6.9525537e-06
6.8236406e-06
6.6955303e-06
6.568275e-06
6.4419256e-06
6.3165314e-06
6.1921402e-06
6.068798e-06
5.946549e-06
5.8254358e-06
5.7054992e-06
5.5867784e-06
5.4693107e-06
5.3531315e-06
5.2382742e-06
5.1247707e-06
5.0126506e-06
4.9019419e-06
4.792671e-06
4.684862e-06
4.5785373e-06
4.4737172e-06
4.3704202e-06
4.2686629e-06
4.16846e-06
4.0698245e-06
3.9727676e-06
3.8772985e-06
3.7834245e-06
3.6911513e-06
3.600483e-06
3.5114221e-06
3.4239694e-06
3.3381242e-06
3.2538841e-06
3.1712456e-06
3.0902039e-06
3.0107527e-06
2.9328845e-06
2.8565911e-06
2.7818642e-06
2.7086954e-06
2.6370786e-06
2.5670135e-06
2.4985128e-06
2.4316179e-06
2.3664322e-06
2.3031961e-06
2.2424451e-06
2.18535e-06
2.1344961e-06
2.095604e-06
2.0812958e-06
2.1195656e-06
2.2726661e-06
2.6776908e-06
3.6315729e-06
5.7497795e-06
1.0171723e-05
1.8808516e-05
3.4723234e-05
6.1580135e-05
0.00010326459
0.00016427986
0.00024513849
0.00034407737
0.00045828587
0.00058202486
0.00070844566
0.00083647916
0.0009648257
0.0010902128
0.0012137311
0.0013361392
0.0014581155
0.0015772176
0.0016920069
0.0018022119
0.0019070252
0.0020047885
0.0020959444
0.0021808163
0.0022589126
0.002333396
0.0023938905
8.9438693e-06
8.8098774e-06
8.6757897e-06
8.5416725e-06
8.4075902e-06
8.2736063e-06
8.1397832e-06
8.006183e-06
7.8728669e-06
7.7398956e-06
7.6073291e-06
7.4752269e-06
7.3436479e-06
7.2126501e-06
7.0822906e-06
6.9526253e-06
6.8237091e-06
6.6955957e-06
6.5683372e-06
6.4419846e-06
6.3165872e-06
6.1921928e-06
6.0688475e-06
5.9465954e-06
5.8254793e-06
5.7055399e-06
5.5868164e-06
5.4693461e-06
5.3531644e-06
5.2383049e-06
5.1247992e-06
5.0126772e-06
4.9019668e-06
4.7926941e-06
4.6848836e-06
4.5785575e-06
4.4737361e-06
4.370438e-06
4.2686795e-06
4.1684756e-06
4.0698392e-06
3.9727814e-06
3.8773114e-06
3.7834366e-06
3.6911626e-06
3.6004936e-06
3.511432e-06
3.4239787e-06
3.3381329e-06
3.2538921e-06
3.1712529e-06
3.0902103e-06
3.0107578e-06
2.9328878e-06
2.8565913e-06
2.7818586e-06
2.7086786e-06
2.6370394e-06
2.5669287e-06
2.498334e-06
2.4312436e-06
2.3656485e-06
2.3015473e-06
2.2389557e-06
2.1779278e-06
2.1186049e-06
2.0613271e-06
2.0068811e-06
1.9570697e-06
1.9160454e-06
1.8933609e-06
1.9110077e-06
2.0202064e-06
2.3385725e-06
3.130476e-06
4.975812e-06
8.9996725e-06
1.7144624e-05
3.2586184e-05
5.9237177e-05
0.00010115538
0.00016287411
0.00024461021
0.00034417758
0.00045803958
0.00058111362
0.00070589087
0.00083153847
0.00095743791
0.0010806528
0.0012019092
0.0013224963
0.0014425934
0.0015598524
0.0016730046
0.0017816503
0.0018848624
0.001980881
0.0020729377
0.0021519192
8.9439418e-06
8.8099568e-06
8.6758747e-06
8.5417616e-06
8.407682e-06
8.2736994e-06
8.1398767e-06
8.0062759e-06
7.8729586e-06
7.7399855e-06
7.6074169e-06
7.4753123e-06
7.3437307e-06
7.2127301e-06
7.0823676e-06
6.9526993e-06
6.82378e-06
6.6956633e-06
6.5684017e-06
6.4420458e-06
6.3166452e-06
6.1922476e-06
6.068899e-06
5.9466439e-06
5.8255247e-06
5.7055824e-06
5.5868561e-06
5.4693832e-06
5.353199e-06
5.2383371e-06
5.1248293e-06
5.0127052e-06
4.9019929e-06
4.7927186e-06
4.6849065e-06
4.5785789e-06
4.4737562e-06
4.3704568e-06
4.2686972e-06
4.1684922e-06
4.0698548e-06
3.972796e-06
3.8773252e-06
3.7834495e-06
3.6911748e-06
3.600505e-06
3.5114428e-06
3.4239888e-06
3.3381423e-06
3.2539009e-06
3.1712611e-06
3.0902179e-06
3.0107649e-06
2.9328943e-06
2.8565972e-06
2.7818638e-06
2.7086828e-06
2.6370421e-06
2.5669286e-06
2.4983285e-06
2.4312271e-06
2.3656089e-06
2.3014584e-06
2.2387604e-06
2.1775014e-06
2.1176721e-06
2.059275e-06
2.0023398e-06
1.9469587e-06
1.8933731e-06
1.8421753e-06
1.79478e-06
1.7545882e-06
1.7297666e-06
1.7397912e-06
1.8319679e-06
2.1195086e-06
2.8667809e-06
4.6745107e-06
8.7488017e-06
1.7211416e-05
3.3518398e-05
6.186131e-05
0.00010651421
0.00017148787
0.00025667347
0.00035891743
0.00047378423
0.00059639346
0.00071972507
0.00084330629
0.00096672677
0.0010877297
0.0012068743
0.0013258856
0.0014439892
0.0015591732
0.0016701179
0.0017789932
0.0018772333
8.9440158e-06
8.8100375e-06
8.675961e-06
8.5418519e-06
8.4077751e-06
8.2737941e-06
8.1399718e-06
8.0063706e-06
7.8730522e-06
7.7400774e-06
7.6075068e-06
7.4753999e-06
7.3438157e-06
7.2128123e-06
7.0824469e-06
6.9527755e-06
6.823853e-06
6.6957332e-06
6.5684682e-06
6.4421091e-06
6.3167052e-06
6.1923043e-06
6.0689525e-06
5.9466941e-06
5.8255718e-06
5.7056266e-06
5.5868975e-06
5.4694218e-06
5.3532351e-06
5.2383708e-06
5.1248607e-06
5.0127346e-06
4.9020204e-06
4.7927443e-06
4.6849305e-06
4.5786014e-06
4.4737773e-06
4.3704765e-06
4.2687157e-06
4.1685096e-06
4.0698712e-06
3.9728115e-06
3.8773397e-06
3.7834632e-06
3.6911876e-06
3.6005171e-06
3.5114541e-06
3.4239994e-06
3.3381522e-06
3.2539102e-06
3.1712698e-06
3.0902261e-06
3.0107725e-06
2.9329014e-06
2.8566038e-06
2.7818698e-06
2.7086884e-06
2.6370472e-06
2.5669332e-06
2.4983325e-06
2.4312301e-06
2.3656104e-06
2.301457e-06
2.2387529e-06
2.1774806e-06
2.1176223e-06
2.0591603e-06
2.0020781e-06
1.9463625e-06
1.892009e-06
1.8390341e-06
1.7875061e-06
1.7376189e-06
1.6898775e-06
1.6455404e-06
1.6077587e-06
1.5844132e-06
1.5950559e-06
1.6889845e-06
1.9888849e-06
2.791698e-06
4.7868698e-06
9.3778442e-06
1.9048738e-05
3.7665954e-05
6.9741552e-05
0.00011976714
0.00019050275
0.00028106853
0.00038721354
0.00050366032
0.00062561263
0.00074746881
0.00086916829
0.00099014685
0.0011089169
0.0012262033
0.0013436167
0.0014618331
0.0015740818
8.9440913e-06
8.8101194e-06
8.6760483e-06
8.5419434e-06
8.4078693e-06
8.27389e-06
8.1400683e-06
8.0064669e-06
7.8731475e-06
7.7401712e-06
7.6075986e-06
7.4754894e-06
7.3439027e-06
7.2128965e-06
7.0825282e-06
6.9528537e-06
6.823928e-06
6.6958049e-06
6.5685367e-06
6.4421743e-06
6.316767e-06
6.1923628e-06
6.0690076e-06
5.946746e-06
5.8256207e-06
5.7056724e-06
5.5869404e-06
5.4694619e-06
5.3532726e-06
5.2384058e-06
5.1248934e-06
5.0127651e-06
4.902049e-06
4.792771e-06
4.6849556e-06
4.5786249e-06
4.4737993e-06
4.3704972e-06
4.2687352e-06
4.1685279e-06
4.0698884e-06
3.9728276e-06
3.8773549e-06
3.7834774e-06
3.691201e-06
3.6005297e-06
3.5114659e-06
3.4240105e-06
3.3381626e-06
3.25392e-06
3.171279e-06
3.0902346e-06
3.0107805e-06
2.9329088e-06
2.8566107e-06
2.7818763e-06
2.7086943e-06
2.6370527e-06
2.5669383e-06
2.4983372e-06
2.4312344e-06
2.3656143e-06
2.3014604e-06
2.2387557e-06
2.1774825e-06
2.1176223e-06
2.0591565e-06
2.0020658e-06
1.9463309e-06
1.8919324e-06
1.8388521e-06
1.7870743e-06
1.7365907e-06
1.6874123e-06
1.6395974e-06
1.5933252e-06
1.549085e-06
1.50815e-06
1.4738332e-06
1.4547531e-06
1.4731582e-06
1.5872315e-06
1.9470244e-06
2.9275632e-06
5.402017e-06
1.1126435e-05
2.3175627e-05
4.5907734e-05
8.4095923e-05
0.00014225883
0.00022081124
0.00031789049
0.00042803221
0.00054599624
0.00066693234
0.00078720654
0.00090726713
0.0010255582
0.0011444367
0.0012604355
8.9441681e-06
8.8102025e-06
8.6761366e-06
8.5420358e-06
8.4079646e-06
8.273987e-06
8.1401661e-06
8.0065646e-06
7.8732443e-06
7.7402666e-06
7.6076922e-06
7.4755808e-06
7.3439915e-06
7.2129826e-06
7.0826113e-06
6.9529337e-06
6.8240049e-06
6.6958786e-06
6.568607e-06
6.4422412e-06
6.3168305e-06
6.1924229e-06
6.0690645e-06
5.9467996e-06
5.825671e-06
5.7057196e-06
5.5869847e-06
5.4695034e-06
5.3533114e-06
5.2384421e-06
5.1249273e-06
5.0127968e-06
4.9020786e-06
4.7927988e-06
4.6849816e-06
4.5786493e-06
4.4738222e-06
4.3705187e-06
4.2687554e-06
4.1685469e-06
4.0699062e-06
3.9728444e-06
3.8773707e-06
3.7834923e-06
3.691215e-06
3.6005428e-06
3.5114783e-06
3.4240221e-06
3.3381735e-06
3.2539302e-06
3.1712885e-06
3.0902435e-06
3.0107888e-06
2.9329166e-06
2.8566179e-06
2.781883e-06
2.7087006e-06
2.6370585e-06
2.5669437e-06
2.4983421e-06
2.4312389e-06
2.3656185e-06
2.3014642e-06
2.2387592e-06
2.1774856e-06
2.1176251e-06
2.0591588e-06
2.0020675e-06
1.9463313e-06
1.8919301e-06
1.8388436e-06
1.7870513e-06
1.7365326e-06
1.6872682e-06
1.6392415e-06
1.5924428e-06
1.5468818e-06
1.5026182e-06
1.459843e-06
1.4190984e-06
1.3818496e-06
1.352059e-06
1.3404377e-06
1.3757993e-06
1.5360389e-06
2.0279584e-06
3.3793801e-06
6.7920327e-06
1.460028e-05
3.0707394e-05
5.9867421e-05
0.00010703571
0.00017510197
0.00026296635
0.00036684196
0.00048045618
0.00059964972
0.0007187931
0.00083975388
0.00095727819
8.9442463e-06
8.8102866e-06
8.6762258e-06
8.5421291e-06
8.4080608e-06
8.274085e-06
8.140265e-06
8.0066634e-06
7.8733425e-06
7.7403635e-06
7.6077873e-06
7.4756737e-06
7.344082e-06
7.2130704e-06
7.0826962e-06
6.9530155e-06
6.8240835e-06
6.6959539e-06
6.5686789e-06
6.4423097e-06
6.3168957e-06
6.1924846e-06
6.0691228e-06
5.9468546e-06
5.8257228e-06
5.7057683e-06
5.5870303e-06
5.4695462e-06
5.3533514e-06
5.2384795e-06
5.1249623e-06
5.0128296e-06
4.9021093e-06
4.7928276e-06
4.6850085e-06
4.5786745e-06
4.4738459e-06
4.3705409e-06
4.2687763e-06
4.1685666e-06
4.0699247e-06
3.9728618e-06
3.877387e-06
3.7835077e-06
3.6912295e-06
3.6005564e-06
3.5114911e-06
3.4240341e-06
3.3381848e-06
3.2539407e-06
3.1712984e-06
3.0902528e-06
3.0107974e-06
2.9329246e-06
2.8566254e-06
2.7818899e-06
2.708707e-06
2.6370645e-06
2.5669492e-06
2.4983472e-06
2.4312437e-06
2.3656228e-06
2.3014682e-06
2.2387628e-06
2.177489e-06
2.1176282e-06
2.0591616e-06
2.00207e-06
1.9463335e-06
1.891932e-06
1.8388449e-06
1.7870516e-06
1.7365308e-06
1.6872614e-06
1.6392222e-06
1.5923922e-06
1.5467515e-06
1.5022833e-06
1.4589784e-06
1.4168502e-06
1.375971e-06
1.3365764e-06
1.2993534e-06
1.266228e-06
1.242603e-06
1.2436034e-06
1.311633e-06
1.5646918e-06
2.3229416e-06
4.3993537e-06
9.5458725e-06
2.1000661e-05
4.3445182e-05
8.1934533e-05
0.00014097864
0.0002204888
0.00031815524
0.00042747447
0.00054587816
0.00066442238
8.9443257e-06
8.8103717e-06
8.6763159e-06
8.5422231e-06
8.4081577e-06
8.2741838e-06
8.1403648e-06
8.0067634e-06
7.8734418e-06
7.7404617e-06
7.6078837e-06
7.4757681e-06
7.344174e-06
7.2131597e-06
7.0827826e-06
6.9530989e-06
6.8241637e-06
6.6960308e-06
6.5687525e-06
6.4423798e-06
6.3169624e-06
6.1925479e-06
6.0691826e-06
5.946911e-06
5.8257759e-06
5.7058182e-06
5.5870772e-06
5.4695901e-06
5.3533926e-06
5.2385181e-06
5.1249984e-06
5.0128634e-06
4.9021409e-06
4.7928572e-06
4.6850363e-06
4.5787006e-06
4.4738703e-06
4.3705639e-06
4.2687978e-06
4.1685868e-06
4.0699438e-06
3.9728798e-06
3.8774039e-06
3.7835235e-06
3.6912444e-06
3.6005705e-06
3.5115042e-06
3.4240465e-06
3.3381964e-06
3.2539516e-06
3.1713086e-06
3.0902623e-06
3.0108063e-06
2.9329329e-06
2.8566332e-06
2.7818971e-06
2.7087137e-06
2.6370707e-06
2.5669549e-06
2.4983525e-06
2.4312485e-06
2.3656273e-06
2.3014723e-06