/*--------------------------------*- C++ -*----------------------------------*\
  =========                 |
  \\      /  F ield         | OpenFOAM: The Open Source CFD Toolbox
   \\    /   O peration     | Website:  https://openfoam.org
    \\  /    A nd           | Version:  12
     \\/     M anipulation  |
\*---------------------------------------------------------------------------*/
FoamFile
{
    format      ascii;
    class       volScalarField;
    location    "200";
    object      nut;
}
// * * * * * * * * * * * * * * * * * * * * * * * * * * * * * * * * * * * * * //

dimensions      [0 2 -1 0 0 0 0];

internalField   nonuniform List<scalar> 
7480
(
8.0738663e-08
4.2962162e-08
3.1056842e-08
2.8365613e-08
3.179464e-06
5.331564e-06
6.3338406e-06
6.9862842e-06
7.3992118e-06
7.647301e-06
7.489409e-06
7.2192803e-06
6.8979744e-06
6.557457e-06
6.2181753e-06
5.8930487e-06
5.5904745e-06
5.3199486e-06
5.0761904e-06
4.8644368e-06
4.6802487e-06
4.520961e-06
4.3858984e-06
4.2745485e-06
4.1860847e-06
4.1198802e-06
4.0748499e-06
4.0495042e-06
4.0421362e-06
4.0508654e-06
4.0736444e-06
4.1083716e-06
4.152994e-06
4.2077092e-06
4.2711677e-06
4.3413289e-06
4.4158563e-06
4.4924365e-06
4.569679e-06
4.646572e-06
4.7220004e-06
4.7948532e-06
4.8642548e-06
4.9294915e-06
4.9899991e-06
5.0454527e-06
5.0953378e-06
5.1412478e-06
5.1828022e-06
5.219265e-06
5.250198e-06
5.2755087e-06
5.295518e-06
5.3109815e-06
5.3227192e-06
5.3315666e-06
5.3384644e-06
5.3439276e-06
5.3482361e-06
5.351472e-06
5.3535694e-06
5.3546024e-06
5.3548275e-06
5.354441e-06
5.3534919e-06
5.3520902e-06
5.3505407e-06
5.3488649e-06
5.3469127e-06
5.3446335e-06
5.3419943e-06
5.3388927e-06
5.3354102e-06
5.3316689e-06
5.3276502e-06
5.3234054e-06
5.3190131e-06
5.3143458e-06
5.3093535e-06
5.3041388e-06
5.2986668e-06
5.2929764e-06
5.2871747e-06
5.2811865e-06
5.2749782e-06
5.2685988e-06
5.2620355e-06
5.2553225e-06
5.2484726e-06
5.241488e-06
5.2343744e-06
5.2271032e-06
5.2196965e-06
5.2121824e-06
5.2044785e-06
5.1967402e-06
5.1888762e-06
5.1803163e-06
5.1684403e-06
5.1776293e-06
1.6699852e-07
1.6479307e-07
1.6275589e-07
1.615242e-07
7.8951896e-07
2.0014103e-06
3.2199346e-06
4.1000815e-06
4.6102454e-06
4.8537182e-06
4.9291904e-06
4.9200449e-06
4.9202575e-06
4.9672607e-06
5.0575099e-06
5.1936683e-06
5.4000267e-06
5.7433699e-06
5.8736082e-06
6.1611497e-06
6.4630463e-06
6.7817529e-06
7.115393e-06
7.4619767e-06
7.8192639e-06
8.1874211e-06
8.5616998e-06
8.9377811e-06
9.3126289e-06
9.6838419e-06
1.0049708e-05
1.0409567e-05
1.0764406e-05
1.1116855e-05
1.1463973e-05
1.1800477e-05
1.212056e-05
1.2422123e-05
1.2708245e-05
1.297846e-05
1.3231717e-05
1.3467448e-05
1.3684889e-05
1.3883304e-05
1.4063209e-05
1.4225407e-05
1.4370793e-05
1.4498962e-05
1.4609876e-05
1.4704771e-05
1.478546e-05
1.4853888e-05
1.4912107e-05
1.4962376e-05
1.5006499e-05
1.5046473e-05
1.5083826e-05
1.5118101e-05
1.5149289e-05
1.5177614e-05
1.5203294e-05
1.5226762e-05
1.5248499e-05
1.5268698e-05
1.5287338e-05
1.530451e-05
1.5320433e-05
1.5334651e-05
1.5346852e-05
1.535718e-05
1.5365832e-05
1.5372877e-05
1.5378624e-05
1.5383247e-05
1.538655e-05
1.5388453e-05
1.5388968e-05
1.5387989e-05
1.5385726e-05
1.5382491e-05
1.5378293e-05
1.5373162e-05
1.5367056e-05
1.535979e-05
1.5351482e-05
1.5342346e-05
1.5332478e-05
1.532192e-05
1.5310558e-05
1.5298378e-05
1.5285461e-05
1.5271892e-05
1.5257789e-05
1.524311e-05
1.5227654e-05
1.5211869e-05
1.5195221e-05
1.5177422e-05
1.5157258e-05
1.515404e-05
1.6882482e-07
1.6856637e-07
1.6827201e-07
1.6795688e-07
1.7998485e-07
2.3387127e-07
3.7066118e-07
6.199394e-07
9.7979346e-07
1.4139713e-06
1.859027e-06
2.2551403e-06
2.5711488e-06
2.8049317e-06
2.9700257e-06
3.0862683e-06
3.1760684e-06
3.2764118e-06
3.4091841e-06
3.5801242e-06
3.789736e-06
4.0379062e-06
4.3259275e-06
4.6573048e-06
5.0374555e-06
5.4516763e-06
5.9086526e-06
6.4112164e-06
6.9626226e-06
7.5669655e-06
8.2301265e-06
8.9619195e-06
9.7491511e-06
1.044157e-05
1.1159207e-05
1.1897415e-05
1.2644603e-05
1.3391008e-05
1.4133941e-05
1.4867034e-05
1.5587571e-05
1.6292876e-05
1.6970368e-05
1.7614556e-05
1.8230768e-05
1.8817336e-05
1.9374585e-05
1.979509e-05
2.0167975e-05
2.0510459e-05
2.0826716e-05
2.111977e-05
2.139244e-05
2.1647903e-05
2.1888766e-05
2.2114952e-05
2.2325259e-05
2.2520878e-05
2.2703811e-05
2.2876036e-05
2.3038909e-05
2.3193443e-05
2.3340268e-05
2.3479743e-05
2.3612237e-05
2.3737982e-05
2.3855903e-05
2.3965863e-05
2.4068565e-05
2.4164965e-05
2.4255708e-05
2.4341086e-05
2.442159e-05
2.4497517e-05
2.4568009e-05
2.4632929e-05
2.4692719e-05
2.4747777e-05
2.4798787e-05
2.4846217e-05
2.4890159e-05
2.4930336e-05
2.4966481e-05
2.4998666e-05
2.5027495e-05
2.5053413e-05
2.5076682e-05
2.5097178e-05
2.5114559e-05
2.512901e-05
2.5140902e-05
2.5150544e-05
2.5158132e-05
2.5163348e-05
2.5166083e-05
2.516684e-05
2.5165996e-05
2.5159518e-05
2.516157e-05
2.5117372e-05
1.6885075e-07
1.6864748e-07
1.684394e-07
1.6822674e-07
1.6818682e-07
1.6896536e-07
1.7200446e-07
1.7977421e-07
1.9582237e-07
2.2501346e-07
2.7252399e-07
3.4288156e-07
4.3898613e-07
5.6140991e-07
7.081838e-07
8.7497316e-07
1.0557718e-06
1.2452727e-06
1.4385561e-06
1.6317188e-06
1.8219011e-06
2.0080501e-06
2.1905279e-06
2.370981e-06
2.5526661e-06
2.7515843e-06
2.9713505e-06
3.2171296e-06
3.4959459e-06
3.817083e-06
4.192862e-06
4.6395429e-06
5.1788685e-06
5.7987586e-06
6.5089971e-06
7.3171677e-06
8.2238343e-06
9.2228126e-06
1.0050052e-05
1.0924472e-05
1.1840005e-05
1.2791018e-05
1.3770345e-05
1.4770415e-05
1.5777379e-05
1.6778618e-05
1.7768268e-05
1.8737527e-05
1.9673917e-05
2.0577716e-05
2.1449711e-05
2.2286277e-05
2.3084776e-05
2.3843342e-05
2.4564391e-05
2.5198241e-05
2.5728588e-05
2.6228796e-05
2.670397e-05
2.7157626e-05
2.7591429e-05
2.8006559e-05
2.840415e-05
2.8785447e-05
2.9151517e-05
2.950219e-05
2.9834604e-05
3.0149546e-05
3.0448774e-05
3.0733963e-05
3.1006181e-05
3.1265987e-05
3.1514233e-05
3.1751593e-05
3.1976698e-05
3.2189519e-05
3.2391016e-05
3.2581977e-05
3.2763354e-05
3.2935883e-05
3.3099868e-05
3.3254749e-05
3.34004e-05
3.3537265e-05
3.3666258e-05
3.3788082e-05
3.3903183e-05
3.4011282e-05
3.4112039e-05
3.4205956e-05
3.4293705e-05
3.4375798e-05
3.4452473e-05
3.4523291e-05
3.4588171e-05
3.4648298e-05
3.4703475e-05
3.4750402e-05
3.4799258e-05
3.4801197e-05
1.6885075e-07
1.6864864e-07
1.6844328e-07
1.6823484e-07
1.680258e-07
1.6782773e-07
1.6767372e-07
1.6763625e-07
1.678474e-07
1.6852889e-07
1.7001444e-07
1.7277047e-07
1.7740615e-07
1.8467806e-07
1.9549668e-07
2.1092269e-07
2.3216271e-07
2.6057638e-07
2.9768559e-07
3.4509242e-07
4.0435776e-07
4.7704693e-07
5.647164e-07
6.688262e-07
7.9075926e-07
9.3173447e-07
1.0920658e-06
1.2712171e-06
1.4680427e-06
1.6811155e-06
1.9092241e-06
2.1522579e-06
2.4112082e-06
2.7049797e-06
3.0419752e-06
3.4341996e-06
3.8969132e-06
4.4488369e-06
5.1206134e-06
5.8940484e-06
6.7771225e-06
7.7762345e-06
8.8970646e-06
9.8758621e-06
1.0795297e-05
1.1789256e-05
1.2840755e-05
1.3945056e-05
1.5095269e-05
1.628136e-05
1.7478839e-05
1.8671567e-05
1.9852481e-05
2.1016676e-05
2.2173215e-05
2.3311966e-05
2.4420022e-05
2.5488512e-05
2.651079e-05
2.7490496e-05
2.8432741e-05
2.9342759e-05
3.02227e-05
3.1071237e-05
3.18858e-05
3.2646443e-05
3.3284133e-05
3.3893733e-05
3.4478779e-05
3.5041173e-05
3.5581964e-05
3.6102003e-05
3.6602615e-05
3.7084699e-05
3.7544932e-05
3.7983498e-05
3.8402356e-05
3.8802962e-05
3.9186582e-05
3.9554245e-05
3.990656e-05
4.0242438e-05
4.0561921e-05
4.086594e-05
4.1155734e-05
4.1432292e-05
4.169629e-05
4.1947227e-05
4.2184894e-05
4.2410197e-05
4.2624108e-05
4.2827353e-05
4.3020192e-05
4.3202085e-05
4.3373164e-05
4.3535245e-05
4.368764e-05
4.3828084e-05
4.3961956e-05
4.4045718e-05
1.6885038e-07
1.6864835e-07
1.6844319e-07
1.6823494e-07
1.6802371e-07
1.6780972e-07
1.6759364e-07
1.6737721e-07
1.6716422e-07
1.6696194e-07
1.667832e-07
1.6664899e-07
1.6659146e-07
1.6665717e-07
1.6691107e-07
1.6744067e-07
1.6836113e-07
1.69822e-07
1.7201734e-07
1.7519469e-07
1.7965923e-07
1.8579226e-07
1.9407982e-07
2.051428e-07
2.1980385e-07
2.3914372e-07
2.6452864e-07
2.9768414e-07
3.4080423e-07
3.9665938e-07
4.6868246e-07
5.6115397e-07
6.789887e-07
8.2764555e-07
1.0124447e-06
1.2381801e-06
1.5083575e-06
1.8240663e-06
2.1825429e-06
2.5774731e-06
3.0273086e-06
3.5422244e-06
4.1405806e-06
4.8351752e-06
5.6786641e-06
6.6481885e-06
7.7519575e-06
8.9906318e-06
1.0304201e-05
1.1259995e-05
1.2309133e-05
1.3434523e-05
1.4627519e-05
1.5879864e-05
1.719003e-05
1.8535066e-05
1.9894588e-05
2.1253755e-05
2.2601212e-05
2.3964064e-05
2.5324345e-05
2.6671326e-05
2.7992277e-05
2.9278709e-05
3.0535022e-05
3.176299e-05
3.2953959e-05
3.4104475e-05
3.5208508e-05
3.6268573e-05
3.7291034e-05
3.8282195e-05
3.9240198e-05
4.0165589e-05
4.0961339e-05
4.1697572e-05
4.240587e-05
4.3088033e-05
4.3745279e-05
4.4378803e-05
4.498953e-05
4.5574442e-05
4.6133786e-05
4.6669484e-05
4.7183282e-05
4.7676488e-05
4.8150013e-05
4.8602854e-05
4.9034903e-05
4.9447536e-05
4.9842064e-05
5.0219477e-05
5.0580029e-05
5.0923025e-05
5.1248968e-05
5.1560199e-05
5.1855678e-05
5.2134235e-05
5.2396721e-05
5.260352e-05
1.6885005e-07
1.6864798e-07
1.684428e-07
1.6823455e-07
1.6802332e-07
1.6780913e-07
1.6759203e-07
1.6737207e-07
1.6714934e-07
1.6692407e-07
1.6669666e-07
1.6646783e-07
1.6623893e-07
1.6601206e-07
1.6579045e-07
1.6557894e-07
1.6538448e-07
1.6521688e-07
1.650897e-07
1.6502138e-07
1.6503618e-07
1.6516576e-07
1.6545171e-07
1.6594862e-07
1.6672983e-07
1.6789469e-07
1.6957581e-07
1.7195213e-07
1.752695e-07
1.7987068e-07
1.8623859e-07
1.9507675e-07
2.074184e-07
2.2476498e-07
2.4928968e-07
2.8417635e-07
3.3409431e-07
4.0576992e-07
5.086406e-07
6.540867e-07
8.5480058e-07
1.1226587e-06
1.465592e-06
1.8802751e-06
2.3510232e-06
2.8755763e-06
3.469272e-06
4.1468257e-06
4.9424417e-06
5.8961013e-06
6.9899601e-06
8.2365396e-06
9.6368359e-06
1.1178755e-05
1.2324383e-05
1.3446732e-05
1.4657952e-05
1.595054e-05
1.7316041e-05
1.875874e-05
2.0247936e-05
2.1757218e-05
2.3270719e-05
2.4793893e-05
2.6356328e-05
2.7930265e-05
2.9504088e-05
3.1053015e-05
3.2579174e-05
3.4081882e-05
3.5560714e-05
3.7010547e-05
3.8419957e-05
3.9789455e-05
4.1113015e-05
4.2390785e-05
4.3620174e-05
4.4801492e-05
4.5940156e-05
4.7041442e-05
4.8109326e-05
4.9041678e-05
4.9902469e-05
5.0731799e-05
5.1531619e-05
5.2303227e-05
5.3047665e-05
5.3762254e-05
5.444692e-05
5.5104e-05
5.5735299e-05
5.6342092e-05
5.6924458e-05
5.7481231e-05
5.8013477e-05
5.8523991e-05
5.9011608e-05
5.9476076e-05
5.9914688e-05
6.0289571e-05
1.6884981e-07
1.6864769e-07
1.684425e-07
1.6823426e-07
1.6802305e-07
1.6780888e-07
1.6759179e-07
1.6737177e-07
1.6714885e-07
1.6692304e-07
1.6669437e-07
1.6646288e-07
1.6622864e-07
1.6599175e-07
1.6575236e-07
1.655107e-07
1.6526713e-07
1.6502219e-07
1.6477665e-07
1.6453164e-07
1.6428871e-07
1.6404998e-07
1.6381836e-07
1.6359775e-07
1.6339348e-07
1.6321283e-07
1.6306563e-07
1.6296525e-07
1.6293009e-07
1.6298581e-07
1.6316861e-07
1.6353106e-07
1.6415096e-07
1.6514352e-07
1.6668089e-07
1.6902634e-07
1.7259155e-07
1.7803066e-07
1.8641991e-07
1.9951616e-07
2.2012543e-07
2.5274688e-07
3.0453071e-07
3.8634648e-07
5.1355248e-07
7.0509968e-07
9.8107715e-07
1.3565705e-06
1.8329584e-06
2.3845111e-06
3.0011045e-06
3.6958623e-06
4.4870762e-06
5.4551926e-06
6.5845452e-06
7.8710653e-06
9.3278635e-06
1.0952161e-05
1.2718895e-05
1.3969415e-05
1.5211441e-05
1.6547971e-05
1.7970836e-05
1.9480153e-05
2.107369e-05
2.2712815e-05
2.4377971e-05
2.6051895e-05
2.780493e-05
2.9590726e-05
3.1386526e-05
3.3164143e-05
3.4929196e-05
3.6684154e-05
3.8433148e-05
4.0161044e-05
4.1847563e-05
4.3490711e-05
4.5095971e-05
4.6661947e-05
4.8183582e-05
4.964684e-05
5.1052403e-05
5.2405739e-05
5.370872e-05
5.4964626e-05
5.61818e-05
5.7262996e-05
5.8255182e-05
5.921205e-05
6.0135632e-05
6.1027222e-05
6.188612e-05
6.2709738e-05
6.3500512e-05
6.4261709e-05
6.4992346e-05
6.5692445e-05
6.6357126e-05
6.6947884e-05
1.6884964e-07
1.6864748e-07
1.6844227e-07
1.6823403e-07
1.6802282e-07
1.6780867e-07
1.6759157e-07
1.6737156e-07
1.6714863e-07
1.6692282e-07
1.6669414e-07
1.664626e-07
1.6622824e-07
1.6599107e-07
1.6575111e-07
1.6550842e-07
1.6526301e-07
1.6501494e-07
1.6476427e-07
1.6451108e-07
1.6425549e-07
1.6399765e-07
1.6373774e-07
1.6347605e-07
1.6321294e-07
1.6294891e-07
1.6268466e-07
1.6242111e-07
1.6215956e-07
1.6190181e-07
1.6165037e-07
1.6140888e-07
1.6118266e-07
1.6097952e-07
1.6081104e-07
1.6069475e-07
1.6065778e-07
1.6074292e-07
1.6102031e-07
1.6160666e-07
1.6269425e-07
1.6460685e-07
1.6789951e-07
1.7353456e-07
1.8320108e-07
1.9983136e-07
2.2844463e-07
2.7751417e-07
3.6085716e-07
4.9874906e-07
7.1678396e-07
1.0416334e-06
1.4904266e-06
2.0607329e-06
2.7109268e-06
3.4480669e-06
4.2809539e-06
5.2757964e-06
6.496882e-06
7.8844985e-06
9.450415e-06
1.119894e-05
1.3109592e-05
1.4941655e-05
1.6246912e-05
1.7652167e-05
1.9153606e-05
2.0749952e-05
2.2456192e-05
2.4230102e-05
2.6043681e-05
2.7873439e-05
2.980091e-05
3.1785863e-05
3.379361e-05
3.5797754e-05
3.7808299e-05
3.9822861e-05
4.1828969e-05
4.3806644e-05
4.5744839e-05
4.7656395e-05
4.9537757e-05
5.1371249e-05
5.3149112e-05
5.4876242e-05
5.6557643e-05
5.8175202e-05
5.9723092e-05
6.1211469e-05
6.2646854e-05
6.4033109e-05
6.532889e-05
6.6469419e-05
6.7569481e-05
6.8632271e-05
6.9657222e-05
7.064306e-05
7.1584286e-05
7.2440829e-05
1.6884952e-07
1.6864732e-07
1.684421e-07
1.6823386e-07
1.6802265e-07
1.6780849e-07
1.675914e-07
1.6737139e-07
1.6714847e-07
1.6692266e-07
1.6669398e-07
1.6646245e-07
1.6622808e-07
1.659909e-07
1.6575093e-07
1.655082e-07
1.6526273e-07
1.6501455e-07
1.6476368e-07
1.6451017e-07
1.6425404e-07
1.6399533e-07
1.6373409e-07
1.6347035e-07
1.6320416e-07
1.629356e-07
1.6266474e-07
1.6239166e-07
1.6211648e-07
1.6183935e-07
1.6156048e-07
1.6128013e-07
1.6099867e-07
1.6071667e-07
1.604349e-07
1.6015453e-07
1.5987733e-07
1.59606e-07
1.5934495e-07
1.5910136e-07
1.5888701e-07
1.5872169e-07
1.5863929e-07
1.5869908e-07
1.5900713e-07
1.5975414e-07
1.6128273e-07
1.6421737e-07
1.6970985e-07
1.7988696e-07
1.9861476e-07
2.3280834e-07
2.9451562e-07
4.0400022e-07
5.8977551e-07
8.8602811e-07
1.3217531e-06
1.9046416e-06
2.6008917e-06
3.4047e-06
4.3140421e-06
5.4036787e-06
6.7366262e-06
8.2943981e-06
1.0036307e-05
1.1969618e-05
1.4070157e-05
1.6297003e-05
1.7757712e-05
1.9267258e-05
2.0878587e-05
2.2594053e-05
2.443094e-05
2.6346712e-05
2.8310252e-05
3.0315469e-05
3.244974e-05
3.465242e-05
3.6875433e-05
3.9106448e-05
4.1357505e-05
4.3622737e-05
4.5883406e-05
4.8116355e-05
5.0317366e-05
5.2488145e-05
5.4614722e-05
5.6696107e-05
5.8731664e-05
6.0713433e-05
6.2634003e-05
6.4494939e-05
6.6296004e-05
6.8018646e-05
6.9671427e-05
7.1259671e-05
7.2806202e-05
7.4206495e-05
7.5472439e-05
7.6647544e-05
1.6884945e-07
1.6864722e-07
1.6844198e-07
1.6823374e-07
1.6802253e-07
1.6780837e-07
1.6759128e-07
1.6737127e-07
1.6714835e-07
1.6692254e-07
1.6669386e-07
1.6646233e-07
1.6622796e-07
1.6599078e-07
1.6575081e-07
1.6550808e-07
1.6526261e-07
1.6501443e-07
1.6476356e-07
1.6451004e-07
1.6425389e-07
1.6399515e-07
1.6373385e-07
1.6347002e-07
1.632037e-07
1.6293492e-07
1.6266372e-07
1.6239015e-07
1.6211424e-07
1.6183604e-07
1.615556e-07
1.6127296e-07
1.6098821e-07
1.607014e-07
1.6041263e-07
1.60122e-07
1.5982968e-07
1.5953586e-07
1.5924085e-07
1.5894514e-07
1.5864945e-07
1.58355e-07
1.5806383e-07
1.5777944e-07
1.5750806e-07
1.5726098e-07
1.5705856e-07
1.5693838e-07
1.5697076e-07
1.5728936e-07
1.5814833e-07
1.6002893e-07
1.6385026e-07
1.7140127e-07
1.860977e-07
2.1435857e-07
2.6795783e-07
3.6768277e-07
5.4616119e-07
8.4526835e-07
1.3028275e-06
1.9313644e-06
2.6961644e-06
3.5946719e-06
4.6178582e-06
5.8781598e-06
7.3962214e-06
9.1863384e-06
1.117171e-05
1.3348515e-05
1.568609e-05
1.8144695e-05
1.9768174e-05
2.1414275e-05
2.3166964e-05
2.5035149e-05
2.7031519e-05
2.9111022e-05
3.1237389e-05
3.3469889e-05
3.5839e-05
3.8261585e-05
4.0705106e-05
4.3186625e-05
4.5703596e-05
4.8227993e-05
5.0728524e-05
5.3208058e-05
5.5673206e-05
5.8102009e-05
6.0476059e-05
6.2797089e-05
6.5068689e-05
6.7289057e-05
6.9444772e-05
7.1529218e-05
7.3561505e-05
7.5517749e-05
7.7320523e-05
7.9468438e-05
1.688494e-07
1.6864715e-07
1.684419e-07
1.6823366e-07
1.6802245e-07
1.6780829e-07
1.675912e-07
1.6737119e-07
1.6714827e-07
1.6692246e-07
1.6669378e-07
1.6646224e-07
1.6622788e-07
1.659907e-07
1.6575073e-07
1.6550799e-07
1.6526252e-07
1.6501433e-07
1.6476346e-07
1.6450994e-07
1.6425379e-07
1.6399504e-07
1.6373374e-07
1.634699e-07
1.6320358e-07
1.6293479e-07
1.6266358e-07
1.6238998e-07
1.6211403e-07
1.6183578e-07
1.6155526e-07
1.6127251e-07
1.6098757e-07
1.607005e-07
1.6041133e-07
1.6012011e-07
1.598269e-07
1.5953174e-07
1.5923471e-07
1.5893586e-07
1.5863528e-07
1.5833309e-07
1.5802945e-07
1.577246e-07
1.5741894e-07
1.5711314e-07
1.5680841e-07
1.5650694e-07
1.562128e-07
1.559338e-07
1.5568498e-07
1.5549532e-07
1.5542112e-07
1.5557406e-07
1.5617648e-07
1.5766878e-07
1.6092546e-07
1.6770658e-07
1.8155242e-07
2.0943491e-07
2.6466772e-07
3.7160378e-07
5.6949479e-07
9.1047151e-07
1.4381437e-06
2.1587257e-06
3.0367748e-06
4.070929e-06
5.2924978e-06
6.7990436e-06
8.5915227e-06
1.0684644e-05
1.2979044e-05
1.5446339e-05
1.8057188e-05
2.0593228e-05
2.2317526e-05
2.4130768e-05
2.6056453e-05
2.8120639e-05
3.030535e-05
3.2563322e-05
3.4900612e-05
3.7414012e-05
4.0035333e-05
4.2689037e-05
4.5390954e-05
4.8151274e-05
5.0938138e-05
5.3716705e-05
5.6479816e-05
5.9225428e-05
6.1933837e-05
6.4600006e-05
6.7221793e-05
6.9781869e-05
7.2283106e-05
7.4736864e-05
7.7011907e-05
8.0060053e-05
1.6884938e-07
1.6864712e-07
1.6844186e-07
1.6823362e-07
1.6802241e-07
1.6780825e-07
1.6759116e-07
1.6737114e-07
1.6714822e-07
1.6692241e-07
1.6669373e-07
1.6646219e-07
1.6622782e-07
1.6599064e-07
1.6575067e-07
1.6550793e-07
1.6526246e-07
1.6501427e-07
1.6476339e-07
1.6450987e-07
1.6425371e-07
1.6399497e-07
1.6373366e-07
1.6346982e-07
1.6320349e-07
1.629347e-07
1.6266349e-07
1.6238989e-07
1.6211394e-07
1.6183568e-07
1.6155516e-07
1.612724e-07
1.6098746e-07
1.6070037e-07
1.6041118e-07
1.6011993e-07
1.5982667e-07
1.5953145e-07
1.592343e-07
1.5893527e-07
1.5863442e-07
1.5833179e-07
1.5802743e-07
1.5772141e-07
1.5741379e-07
1.5710464e-07
1.5679408e-07
1.5648227e-07
1.5616949e-07
1.5585619e-07
1.5554328e-07
1.5523244e-07
1.5492695e-07
1.5463338e-07
1.5436496e-07
1.5414843e-07
1.5403799e-07
1.54145e-07
1.5470097e-07
1.5618601e-07
1.5959287e-07
1.6699868e-07
1.8274071e-07
2.1574653e-07
2.8360893e-07
4.19139e-07
6.7417278e-07
1.1130716e-06
1.7772677e-06
2.6391906e-06
3.6850952e-06
4.9205125e-06
6.4625127e-06
8.3070064e-06
1.0476392e-05
1.2944009e-05
1.5583608e-05
1.8372549e-05
2.1284602e-05
2.3555932e-05
2.5461144e-05
2.7471988e-05
2.9617119e-05
3.1910654e-05
3.4303321e-05
3.6764989e-05
3.9430825e-05
4.2251527e-05
4.5117241e-05
4.8051065e-05
5.1066288e-05
5.4116725e-05
5.7163889e-05
6.0207854e-05
6.3245183e-05
6.6242858e-05
6.9194868e-05
7.2118137e-05
7.4839952e-05
7.8509311e-05
1.6884938e-07
1.6864711e-07
1.6844185e-07
1.682336e-07
1.6802239e-07
1.6780823e-07
1.6759114e-07
1.6737113e-07
1.671482e-07
1.6692239e-07
1.6669371e-07
1.6646217e-07
1.662278e-07
1.6599061e-07
1.6575064e-07
1.655079e-07
1.6526242e-07
1.6501423e-07
1.6476335e-07
1.6450982e-07
1.6425366e-07
1.6399491e-07
1.637336e-07
1.6346976e-07
1.6320343e-07
1.6293463e-07
1.6266342e-07
1.6238981e-07
1.6211386e-07
1.618356e-07
1.6155508e-07
1.6127232e-07
1.6098737e-07
1.6070028e-07
1.6041109e-07
1.6011985e-07
1.5982658e-07
1.5953135e-07
1.592342e-07
1.5893516e-07
1.586343e-07
1.5833164e-07
1.5802725e-07
1.5772117e-07
1.5741344e-07
1.5710411e-07
1.5679323e-07
1.5648086e-07
1.5616704e-07
1.5585186e-07
1.555354e-07
1.552178e-07
1.5489927e-07
1.5458022e-07
1.5426145e-07
1.5394451e-07
1.5363262e-07
1.533324e-07
1.5305784e-07
1.5283847e-07
1.5273671e-07
1.5288615e-07
1.5357577e-07
1.5543134e-07
1.598031e-07
1.6964582e-07
1.9135377e-07
2.385353e-07
3.3858565e-07
5.4050188e-07
9.157195e-07
1.5331097e-06
2.3967617e-06
3.4754778e-06
4.7530832e-06
6.3653163e-06
8.3158825e-06
1.0616386e-05
1.3257583e-05
1.6118665e-05
1.9119922e-05
2.2247678e-05
2.5123114e-05
2.7170401e-05
2.9283824e-05
3.1531264e-05
3.3948201e-05
3.6482075e-05
3.9091468e-05
4.1934336e-05
4.4963512e-05
4.8054403e-05
5.1233895e-05
5.4509628e-05
5.7829988e-05
6.1157581e-05
6.4494168e-05
6.7836881e-05
7.0985505e-05
7.5134469e-05
1.688494e-07
1.6864712e-07
1.6844186e-07
1.6823361e-07
1.680224e-07
1.6780824e-07
1.6759115e-07
1.6737113e-07
1.6714821e-07
1.669224e-07
1.6669371e-07
1.6646217e-07
1.6622779e-07
1.6599061e-07
1.6575063e-07
1.6550789e-07
1.652624e-07
1.6501421e-07
1.6476333e-07
1.6450979e-07
1.6425363e-07
1.6399488e-07
1.6373356e-07
1.6346972e-07
1.6320338e-07
1.6293458e-07
1.6266336e-07
1.6238976e-07
1.6211381e-07
1.6183554e-07
1.6155501e-07
1.6127225e-07
1.6098731e-07
1.6070022e-07
1.6041102e-07
1.6011977e-07
1.5982651e-07
1.5953128e-07
1.5923412e-07
1.5893509e-07
1.5863422e-07
1.5833157e-07
1.5802718e-07
1.5772109e-07
1.5741335e-07
1.5710401e-07
1.5679312e-07
1.5648072e-07
1.5616685e-07
1.5585157e-07
1.5553492e-07
1.5521696e-07
1.5489773e-07
1.545773e-07
1.5425575e-07
1.5393321e-07
1.536099e-07
1.5328624e-07
1.5296305e-07
1.5264209e-07
1.5232711e-07
1.5202618e-07
1.5175707e-07
1.5155892e-07
1.5151813e-07
1.5182847e-07
1.5292758e-07
1.5580407e-07
1.626983e-07
1.7868362e-07
2.1508641e-07
2.9631564e-07
4.7039532e-07
8.1425622e-07
1.4131598e-06
2.2999839e-06
3.437067e-06
4.7980311e-06
6.5259535e-06
8.6355389e-06
1.1125191e-05
1.3978375e-05
1.7097821e-05
2.0345963e-05
2.3713826e-05
2.7057492e-05
2.9264031e-05
3.1497569e-05
3.3872551e-05
3.6431324e-05
3.9116429e-05
4.1908918e-05
4.4963491e-05
4.821267e-05
5.1546275e-05
5.4994476e-05
5.8551213e-05
6.2167453e-05
6.5664435e-05
7.0150944e-05
1.6884944e-07
1.6864715e-07
1.6844189e-07
1.6823364e-07
1.6802243e-07
1.6780827e-07
1.6759118e-07
1.6737116e-07
1.6714824e-07
1.6692242e-07
1.6669374e-07
1.6646219e-07
1.6622781e-07
1.6599062e-07
1.6575064e-07
1.655079e-07
1.6526241e-07
1.6501421e-07
1.6476333e-07
1.6450979e-07
1.6425363e-07
1.6399487e-07
1.6373355e-07
1.634697e-07
1.6320336e-07
1.6293455e-07
1.6266333e-07
1.6238972e-07
1.6211376e-07
1.618355e-07
1.6155496e-07
1.612722e-07
1.6098725e-07
1.6070016e-07
1.6041097e-07
1.6011972e-07
1.5982645e-07
1.5953122e-07
1.5923406e-07
1.5893503e-07
1.5863416e-07
1.583315e-07
1.5802711e-07
1.5772102e-07
1.5741329e-07
1.5710395e-07
1.5679305e-07
1.5648065e-07
1.5616678e-07
1.558515e-07
1.5553484e-07
1.5521686e-07
1.5489759e-07
1.5457709e-07
1.542554e-07
1.5393256e-07
1.5360864e-07
1.5328369e-07
1.5295779e-07
1.526311e-07
1.5230384e-07
1.5197654e-07
1.5165024e-07
1.5132733e-07
1.5101302e-07
1.5071926e-07
1.5047345e-07
1.5033866e-07
1.504612e-07
1.5118426e-07
1.5331534e-07
1.5875677e-07
1.7202501e-07
2.0365732e-07
2.7737313e-07
4.4308166e-07
7.8596655e-07
1.4064077e-06
2.3485275e-06
3.5783933e-06
5.0698639e-06
6.9756885e-06
9.305798e-06
1.204896e-05
1.5168805e-05
1.8577128e-05
2.2099148e-05
2.5730372e-05
2.937406e-05
3.1742916e-05
3.411857e-05
3.6651835e-05
3.9377065e-05
4.2229253e-05
4.525053e-05
4.8554254e-05
5.2041249e-05
5.5656913e-05
5.9324082e-05
6.3879554e-05
1.6884948e-07
1.686472e-07
1.6844193e-07
1.6823369e-07
1.6802248e-07
1.6780832e-07
1.6759123e-07
1.6737121e-07
1.6714828e-07
1.6692247e-07
1.6669378e-07
1.6646223e-07
1.6622785e-07
1.6599066e-07
1.6575067e-07
1.6550793e-07
1.6526244e-07
1.6501423e-07
1.6476335e-07
1.645098e-07
1.6425363e-07
1.6399487e-07
1.6373355e-07
1.6346969e-07
1.6320334e-07
1.6293454e-07
1.6266331e-07
1.623897e-07
1.6211374e-07
1.6183547e-07
1.6155493e-07
1.6127217e-07
1.6098721e-07
1.6070012e-07
1.6041092e-07
1.6011967e-07
1.598264e-07
1.5953117e-07
1.5923401e-07
1.5893497e-07
1.586341e-07
1.5833145e-07
1.5802706e-07
1.5772097e-07
1.5741323e-07
1.5710389e-07
1.56793e-07
1.5648059e-07
1.5616673e-07
1.5585144e-07
1.5553478e-07
1.552168e-07
1.5489753e-07
1.5457702e-07
1.5425533e-07
1.5393248e-07
1.5360852e-07
1.532835e-07
1.5295747e-07
1.5263046e-07
1.5230254e-07
1.5197376e-07
1.5164423e-07
1.5131412e-07
1.5098376e-07
1.5065388e-07
1.5032615e-07
1.5000442e-07
1.4969771e-07
1.4942757e-07
1.4924572e-07
1.4927651e-07
1.4982377e-07
1.516331e-07
1.5652565e-07
1.6901382e-07
2.000779e-07
2.7544077e-07
4.5121481e-07
8.2620252e-07
1.5159563e-06
2.5577552e-06
3.9238707e-06
5.6105415e-06
7.7589637e-06
1.0384549e-05
1.3450249e-05
1.6890418e-05
2.0610909e-05
2.4428713e-05
2.8346175e-05
3.2096104e-05
3.4628415e-05
3.717205e-05
3.9897192e-05
4.2809239e-05
4.5848378e-05
4.9156891e-05
5.2735994e-05
5.6919948e-05
1.6884954e-07
1.6864725e-07
1.6844199e-07
1.6823374e-07
1.6802254e-07
1.6780838e-07
1.6759129e-07
1.6737127e-07
1.6714835e-07
1.6692253e-07
1.6669384e-07
1.6646229e-07
1.662279e-07
1.6599071e-07
1.6575072e-07
1.6550797e-07
1.6526248e-07
1.6501427e-07
1.6476338e-07
1.6450983e-07
1.6425366e-07
1.6399489e-07
1.6373356e-07
1.634697e-07
1.6320335e-07
1.6293454e-07
1.6266331e-07
1.6238969e-07
1.6211372e-07
1.6183545e-07
1.6155491e-07
1.6127214e-07
1.6098719e-07
1.6070009e-07
1.6041089e-07
1.6011964e-07
1.5982637e-07
1.5953113e-07
1.5923397e-07
1.5893493e-07
1.5863406e-07
1.5833141e-07
1.5802701e-07
1.5772092e-07
1.5741318e-07
1.5710384e-07
1.5679295e-07
1.5648054e-07
1.5616668e-07
1.5585139e-07
1.5553473e-07
1.5521674e-07
1.5489748e-07
1.5457697e-07
1.5425527e-07
1.5393242e-07
1.5360846e-07
1.5328344e-07
1.529574e-07
1.5263038e-07
1.5230242e-07
1.5197357e-07
1.5164387e-07
1.5131336e-07
1.509821e-07
1.5065017e-07
1.503177e-07
1.4998494e-07
1.4965246e-07
1.4932158e-07
1.4899547e-07
1.4868185e-07
1.4839985e-07
1.4819744e-07
1.4819435e-07
1.4869495e-07
1.50477e-07
1.555172e-07
1.6890145e-07
2.0349852e-07
2.9048473e-07
4.9875653e-07
9.4822736e-07
1.7666701e-06
2.9725856e-06
4.5236395e-06
6.4863087e-06
8.960165e-06
1.1957859e-05
1.5409769e-05
1.9213952e-05
2.3260974e-05
2.7390798e-05
3.161555e-05
3.5260687e-05
3.7947659e-05
4.0693384e-05
4.3632466e-05
4.6821295e-05
5.0147095e-05
1.688496e-07
1.6864732e-07
1.6844205e-07
1.6823382e-07
1.6802261e-07
1.6780846e-07
1.6759136e-07
1.6737135e-07
1.6714842e-07
1.669226e-07
1.6669391e-07
1.6646236e-07
1.6622797e-07
1.6599077e-07
1.6575078e-07
1.6550803e-07
1.6526253e-07
1.6501432e-07
1.6476342e-07
1.6450987e-07
1.6425369e-07
1.6399492e-07
1.6373358e-07
1.6346972e-07
1.6320337e-07
1.6293455e-07
1.6266331e-07
1.6238969e-07
1.6211372e-07
1.6183545e-07
1.615549e-07
1.6127213e-07
1.6098717e-07
1.6070007e-07
1.6041087e-07
1.6011961e-07
1.5982634e-07
1.595311e-07
1.5923394e-07
1.589349e-07
1.5863403e-07
1.5833137e-07
1.5802697e-07
1.5772088e-07
1.5741314e-07
1.571038e-07
1.5679291e-07
1.564805e-07
1.5616663e-07
1.5585134e-07
1.5553469e-07
1.552167e-07
1.5489743e-07
1.5457692e-07
1.5425522e-07
1.5393237e-07
1.5360842e-07
1.5328339e-07
1.5295735e-07
1.5263033e-07
1.5230237e-07
1.5197351e-07
1.516438e-07
1.5131327e-07
1.5098197e-07
1.5064992e-07
1.5031719e-07
1.4998382e-07
1.4964987e-07
1.4931545e-07
1.4898078e-07
1.4864635e-07
1.4831334e-07
1.4798471e-07
1.4766794e-07
1.4738232e-07
1.4717821e-07
1.4718656e-07
1.4775335e-07
1.4979849e-07
1.5575485e-07
1.7211304e-07
2.158727e-07
3.2925067e-07
6.041583e-07
1.188672e-06
2.2037954e-06
3.6343511e-06
5.4460125e-06
7.7882526e-06
1.0681301e-05
1.4125791e-05
1.8007184e-05
2.2207654e-05
2.6591784e-05
3.1049137e-05
3.5607528e-05
3.8896978e-05
4.1884687e-05
4.4486769e-05
1.6884967e-07
1.6864739e-07
1.6844213e-07
1.682339e-07
1.6802269e-07
1.6780854e-07
1.6759145e-07
1.6737143e-07
1.6714851e-07
1.6692269e-07
1.6669399e-07
1.6646244e-07
1.6622805e-07
1.6599085e-07
1.6575085e-07
1.6550809e-07
1.6526259e-07
1.6501438e-07
1.6476348e-07
1.6450992e-07
1.6425374e-07
1.6399496e-07
1.6373362e-07
1.6346976e-07
1.6320339e-07
1.6293457e-07
1.6266333e-07
1.6238971e-07
1.6211373e-07
1.6183545e-07
1.615549e-07
1.6127213e-07
1.6098717e-07
1.6070006e-07
1.6041086e-07
1.601196e-07
1.5982633e-07
1.5953108e-07
1.5923392e-07
1.5893488e-07
1.58634e-07
1.5833135e-07
1.5802695e-07
1.5772085e-07
1.5741311e-07
1.5710377e-07
1.5679287e-07
1.5648047e-07
1.561666e-07
1.5585131e-07
1.5553465e-07
1.5521666e-07
1.5489739e-07
1.5457688e-07
1.5425518e-07
1.5393233e-07
1.5360837e-07
1.5328335e-07
1.5295731e-07
1.5263028e-07
1.5230232e-07
1.5197347e-07
1.5164375e-07
1.5131322e-07
1.5098191e-07
1.5064987e-07
1.5031712e-07
1.4998371e-07
1.4964968e-07
1.4931507e-07
1.4897992e-07
1.4864429e-07
1.4830829e-07
1.4797212e-07
1.4763625e-07
1.4730188e-07
1.4697213e-07
1.4665526e-07
1.463734e-07
1.4618663e-07
1.4625768e-07
1.470339e-07
1.4975245e-07
1.5782167e-07
1.8063778e-07
2.4344358e-07
4.0922739e-07
8.070244e-07
1.611446e-06
2.8943901e-06
4.6080836e-06
6.8176485e-06
9.6263945e-06
1.3039298e-05
1.6995681e-05
2.1336876e-05
2.5961461e-05
3.067646e-05
3.5565758e-05
3.9582379e-05
1.6884975e-07
1.6864747e-07
1.6844222e-07
1.6823398e-07
1.6802279e-07
1.6780863e-07
1.6759154e-07
1.6737153e-07
1.671486e-07
1.6692278e-07
1.6669408e-07
1.6646253e-07
1.6622814e-07
1.6599093e-07
1.6575094e-07
1.6550817e-07
1.6526267e-07
1.6501445e-07
1.6476355e-07
1.6450998e-07
1.642538e-07
1.6399502e-07
1.6373367e-07
1.634698e-07
1.6320343e-07
1.6293461e-07
1.6266336e-07
1.6238973e-07
1.6211375e-07
1.6183547e-07
1.6155492e-07
1.6127214e-07
1.6098717e-07
1.6070006e-07
1.6041086e-07
1.6011959e-07
1.5982632e-07
1.5953107e-07
1.5923391e-07
1.5893486e-07
1.5863399e-07
1.5833133e-07
1.5802693e-07
1.5772083e-07
1.5741309e-07
1.5710375e-07
1.5679285e-07
1.5648044e-07
1.5616657e-07
1.5585128e-07
1.5553462e-07
1.5521663e-07
1.5489736e-07
1.5457685e-07
1.5425515e-07
1.5393229e-07
1.5360833e-07
1.5328331e-07
1.5295727e-07
1.5263024e-07
1.5230228e-07
1.5197342e-07
1.5164371e-07
1.5131318e-07
1.5098187e-07
1.5064982e-07
1.5031708e-07
1.4998367e-07
1.4964963e-07
1.4931501e-07
1.4897983e-07
1.4864414e-07
1.4830797e-07
1.4797137e-07
1.4763439e-07
1.4729713e-07
1.4695982e-07
1.4662296e-07
1.4628794e-07
1.4595853e-07
1.4564505e-07
1.4537644e-07
1.4523444e-07
1.4544986e-07
1.4668245e-07
1.5082421e-07
1.6329992e-07
1.9947991e-07
3.0115938e-07
5.6903582e-07
1.1818321e-06
2.303932e-06
3.9319415e-06
6.0377685e-06
8.7798857e-06
1.2168644e-05
1.6194135e-05
2.0677699e-05
2.5592302e-05
3.057558e-05
1.6884983e-07
1.6864756e-07
1.6844231e-07
1.6823408e-07
1.6802288e-07
1.6780874e-07
1.6759165e-07
1.6737163e-07
1.671487e-07
1.6692288e-07
1.6669418e-07
1.6646263e-07