/*--------------------------------*- C++ -*----------------------------------*\
  =========                 |
  \\      /  F ield         | OpenFOAM: The Open Source CFD Toolbox
   \\    /   O peration     | Website:  https://openfoam.org
    \\  /    A nd           | Version:  12
     \\/     M anipulation  |
\*---------------------------------------------------------------------------*/
FoamFile
{
    format      ascii;
    class       volScalarField;
    location    "200";
    object      omega;
}
// * * * * * * * * * * * * * * * * * * * * * * * * * * * * * * * * * * * * * //

dimensions      [0 0 -1 0 0 0 0];

internalField   nonuniform List<scalar> 
7480
(
99.668428
99.668428
99.668428
99.668428
467.26601
658.56897
782.37275
862.96424
913.97009
944.61467
961.55343
969.16809
970.41367
967.31399
961.28256
953.31151
944.11005
934.24706
924.35393
914.49545
904.80271
895.31514
886.18634
877.56208
869.54819
862.21706
855.60639
849.71796
844.52495
839.97992
836.02074
832.5799
829.59816
827.02591
824.80148
822.85137
821.09719
819.47308
817.93095
816.43664
814.95941
813.47121
811.95031
810.38034
808.75306
807.06517
805.3133
803.4866
801.57449
799.5776
797.50529
795.36657
793.16883
790.92446
788.65283
786.36986
784.08087
781.78671
779.492
777.20411
774.92644
772.66107
770.41392
768.19111
765.9932
763.81985
761.67157
759.54535
757.43582
755.3424
753.26849
751.21385
749.17871
747.16806
745.18002
743.20928
741.25624
739.31981
737.39822
735.49518
733.61208
731.74683
729.89976
728.06842
726.25055
724.44827
722.66267
720.89387
719.14026
717.39994
715.6735
713.96047
712.26166
710.57477
708.90161
707.22357
705.59944
703.86251
702.32907
699.99476
53.580886
53.535108
53.495828
53.440049
60.466145
74.604734
96.919289
126.88681
163.0462
203.17294
244.36991
284.24516
318.84635
346.78867
369.57784
388.70994
404.52241
415.61465
423.14697
426.11031
427.71152
430.61727
434.65947
439.16224
443.56886
447.34389
450.10496
451.63456
451.83799
450.72314
448.38461
444.99169
440.77681
436.04272
430.91012
425.36808
419.35794
413.11679
406.8072
400.54628
394.43279
388.54249
382.92709
377.60443
372.57515
367.83571
363.38064
359.25157
355.43619
351.91106
348.65341
345.63884
342.83879
340.22236
337.76559
335.44608
333.23796
331.12624
329.10041
327.15561
325.28976
323.49622
321.76677
320.09551
318.47847
316.90891
315.37668
313.87948
312.41726
310.98967
309.59822
308.24476
306.92552
305.63904
304.38421
303.1552
301.94979
300.77089
299.61764
298.48902
297.3869
296.30788
295.24878
294.21027
293.19111
292.19119
291.21139
290.25014
289.30629
288.37813
287.46559
286.56926
285.68846
284.82184
283.97037
283.12532
282.30391
281.48218
280.74508
279.43472
52.974301
52.262223
51.558486
50.863026
50.289418
50.016672
50.328659
51.531219
53.894239
57.794737
63.497728
71.147021
80.695863
91.942072
104.62233
118.44029
133.06772
147.69229
160.98577
172.87658
183.71972
194.30152
205.13716
216.59835
228.9653
240.39143
249.98587
257.91329
264.26127
269.05371
272.25421
273.76905
273.51632
271.63229
268.57435
265.10533
261.95872
258.98312
256.06797
253.12166
250.15556
247.20865
244.1907
240.96065
237.60875
234.20938
230.82604
227.53053
224.39095
221.41352
218.59148
215.91564
213.37868
210.9774
208.70815
206.57346
204.57414
202.69302
200.91517
199.23106
197.6337
196.11389
194.66128
193.26727
191.92664
190.63372
189.38002
188.16564
186.99144
185.85659
184.76012
183.70112
182.67585
181.68188
180.71542
179.77285
178.85384
177.96045
177.09233
176.24828
175.42856
174.62959
173.84842
173.08561
172.34116
171.61503
170.90747
170.21658
169.54081
168.87923
168.23195
167.59949
166.98121
166.37572
165.78282
165.1996
164.63023
164.07448
163.56256
162.79179
52.965542
52.234466
51.502514
50.770198
50.039564
49.315335
48.607082
47.930752
47.309134
46.780376
46.392972
46.204426
46.277336
46.674888
47.459839
48.697119
50.459345
52.803968
55.761091
59.359088
63.631095
68.638777
74.466935
81.220966
89.02489
97.347691
106.06173
115.07605
124.344
133.86326
143.66844
153.79939
162.76177
170.00339
175.63598
179.91978
183.16312
185.40825
186.67196
186.93599
186.22537
184.69697
182.8159
181.0012
179.15871
177.22638
175.21574
173.17667
171.12029
168.90276
166.59621
164.25831
161.93723
159.6784
157.4952
155.38648
153.36153
151.42704
149.58647
147.84161
146.18657
144.61052
143.10264
141.65664
140.27068
138.94351
137.68046
136.47428
135.32008
134.21387
133.15222
132.13171
131.14796
130.19808
129.27859
128.38824
127.52722
126.69597
125.89332
125.11738
124.36721
123.63882
122.93003
122.24168
121.57391
120.92635
120.29863
119.68834
119.09376
118.51451
117.95082
117.40291
116.86996
116.35022
115.8433
115.34801
114.86578
114.39787
113.96898
113.37258
52.965591
52.2341
51.501396
50.767812
50.033679
49.299383
48.56542
47.832589
47.102015
46.37545
45.655505
44.945918
44.251813
43.579795
42.938084
42.336961
41.789075
41.310129
40.917806
40.632181
40.475679
40.475188
40.66422
41.085059
41.795269
42.849412
44.310233
46.253391
48.773382
51.988998
56.048455
61.138389
67.352289
74.201672
81.5976
89.490427
97.88696
106.82546
115.66934
123.1647
129.20236
133.76103
137.05067
139.39698
140.88564
141.55903
141.47817
140.74172
139.61402
138.43096
137.12616
135.69014
134.16215
132.62118
131.00538
129.2715
127.47208
125.65933
123.88063
122.15624
120.47866
118.8444
117.25555
115.72028
114.24435
112.82575
111.467
110.1675
108.92615
107.73997
106.60412
105.5133
104.46378
103.45317
102.48713
101.56321
100.67722
99.826724
99.009152
98.221784
97.462719
96.729103
96.02017
95.33627
94.67662
94.040021
93.425421
92.830114
92.252772
91.693387
91.151916
90.628046
90.120594
89.627604
89.148835
88.683697
88.232749
87.796082
87.397025
86.873944
52.965841
52.234381
51.501677
50.768044
50.03378
49.299201
48.564623
47.830362
47.096759
46.364172
45.632996
44.903684
44.176769
43.452888
42.732812
42.017486
41.308081
40.606057
39.91323
39.231843
38.564594
37.914745
37.286207
36.684025
36.114938
35.587623
35.113522
34.706861
34.386529
34.177992
34.115852
34.248662
34.641263
35.362135
36.500594
38.179435
40.570984
43.914812
48.50171
54.362095
61.062015
68.465869
76.460724
84.813981
92.495746
98.958511
104.10843
107.90071
110.481
112.2351
113.24531
113.59109
113.36375
112.69841
111.87473
110.94571
109.88819
108.7242
107.51808
106.2635
104.89688
103.46688
102.01533
100.57877
99.165702
97.768718
96.388092
95.03896
93.734561
92.476122
91.260418
90.085252
88.952046
87.860728
86.814863
85.814051
84.855859
83.938175
83.057927
82.211798
81.397316
80.617908
79.872276
79.157444
78.47089
77.810595
77.174799
76.561581
75.970443
75.401017
74.852404
74.323589
73.813048
73.319017
72.841492
72.379896
71.934143
71.503178
71.109131
70.617072
52.966133
52.234714
51.502022
50.768384
50.034109
49.299513
48.564909
47.830605
47.096914
46.364151
45.632632
44.902674
44.174607
43.448758
42.725457
42.005039
41.287852
40.574256
39.864632
39.159394
38.458985
37.763889
37.074645
36.391868
35.716288
35.048796
34.390489
33.742746
33.107354
32.486716
31.884105
31.303911
30.752653
30.239146
29.776179
29.382523
29.085864
28.928332
28.974905
29.313296
30.047973
31.326255
33.363044
36.456164
40.95381
46.674447
53.271378
60.543978
68.154129
75.118753
80.978492
85.666688
89.162959
91.506363
93.007197
93.88499
94.222456
94.101121
93.628233
92.997918
92.268099
91.43063
90.5125
89.56068
88.543995
87.430365
86.255452
85.059294
83.865279
82.669188
81.476093
80.298237
79.147653
78.027211
76.934486
75.872907
74.848108
73.861983
72.912649
71.998094
71.117477
70.273898
69.467331
68.695281
67.955282
67.245157
66.562461
65.909013
65.284334
64.685682
64.110889
63.558298
63.026396
62.514371
62.021978
61.548086
61.091844
60.651585
60.248301
59.764526
52.966456
52.235086
51.502419
50.768794
50.034523
49.299922
48.565305
47.830983
47.097269
46.364479
45.632929
44.902936
44.174814
43.448881
42.725445
42.004814
41.287291
40.573174
39.862758
39.156332
38.454185
37.756599
37.063852
36.376219
35.693976
35.017405
34.346792
33.682435
33.024653
32.373794
31.730255
31.094511
30.467165
29.849
29.241069
28.644859
28.062558
27.497509
26.955065
26.443249
25.974212
25.567296
25.25453
25.087549
25.149421
25.548968
26.431786
28.014373
30.613794
34.615559
39.835144
45.932609
52.67331
59.360871
65.220914
70.029009
73.773367
76.490338
78.244292
79.280489
79.834142
79.981779
79.79908
79.387204
78.874054
78.26845
77.572975
76.820342
76.029998
75.130072
74.16107
73.161155
72.150229
71.127597
70.093826
69.061294
68.043857
67.046334
66.070401
65.119679
64.198314
63.306097
62.444345
61.614914
60.818136
60.052716
59.316609
58.611583
57.938107
57.293779
56.676246
56.08366
55.515403
54.972881
54.45364
53.955563
53.477005
53.016422
52.594171
52.103329
52.966799
52.23548
51.502845
50.769236
50.03497
49.300366
48.565739
47.831404
47.097675
46.36487
45.633306
44.903297
44.175161
43.44921
42.725755
42.005102
41.287551
40.573398
39.862932
39.156439
38.454196
37.756474
37.063535
36.375632
35.693012
35.015913
34.344571
33.67921
33.020047
32.367294
31.721157
31.081838
30.449539
29.824465
29.206831
28.596868
27.99484
27.401069
26.815989
26.240213
25.67464
25.120645
24.580473
24.057918
23.559644
23.096172
22.684534
22.354879
22.15966
22.187176
22.556312
23.432941
25.072305
27.843143
32.025048
37.17299
43.065282
49.141238
54.684911
59.249553
62.817291
65.451213
67.236176
68.291028
68.856122
69.086349
69.037933
68.768382
68.384227
67.916264
67.361943
66.747685
66.090787
65.349647
64.538466
63.689037
62.817502
61.923461
61.015791
60.108288
59.211083
58.324078
57.450833
56.598497
55.771071
54.969328
54.194039
53.445853
52.725967
52.034571
51.37113
50.734496
50.123932
49.540825
48.983625
48.450196
47.938234
47.447622
46.998888
46.487338
52.967156
52.23589
51.503288
50.769697
50.03544
49.300834
48.566201
47.831856
47.098116
46.365297
45.633718
44.903694
44.175541
43.449574
42.726102
42.005431
41.287862
40.57369
39.863206
39.156694
38.454431
37.756687
37.063723
36.375792
35.693139
35.016
34.344606
33.679178
33.019927
32.367056
31.720759
31.081219
30.448615
29.823115
29.20488
28.594062
27.990806
27.395249
26.807526
26.227776
25.656147
25.092802
24.537948
23.991871
23.455012
22.928081
22.412245
21.909532
21.423634
20.961454
20.534723
20.162944
19.882908
19.761536
19.908048
20.466111
21.659717
23.829387
27.383402
31.926602
37.234718
42.704733
47.696565
51.831266
55.006245
57.323288
58.893727
59.826882
60.29855
60.502277
60.479916
60.271781
59.961955
59.575763
59.114255
58.595032
58.030911
57.382781
56.675535
55.933587
55.168601
54.378951
53.575422
52.77
51.968555
51.175429
50.396878
49.635795
48.893659
48.173374
47.477568
46.806698
46.160178
45.5384
44.942293
44.371099
43.822949
43.297077
42.815842
42.266835
52.967525
52.23631
51.503744
50.770173
50.035926
49.301322
48.566684
47.83233
47.098578
46.365747
45.634153
44.904114
44.175947
43.449964
42.726476
42.005789
41.288204
40.574016
39.863515
39.156986
38.454706
37.756946
37.063965
36.376017
35.693347
35.016192
34.344782
33.679338
33.02007
32.367181
31.720864
31.081303
30.448673
29.823141
29.204864
28.593989
27.990654
27.394986
26.807102
26.227112
25.65512
25.091218
24.535491
23.988019
23.448884
22.918175
22.396
21.882507
21.377934
20.882696
20.397535
19.923766
19.46386
19.022655
18.609551
18.240318
17.944438
17.779825
17.85082
18.29784
19.343738
21.334194
24.627087
28.890947
33.869863
38.788489
43.139334
46.681827
49.319764
51.186748
52.416823
53.125194
53.467518
53.588054
53.536081
53.343415
53.069572
52.725898
52.31688
51.854154
51.34414
50.758589
50.127783
49.465684
48.775337
48.065367
47.347501
46.627492
45.908479
45.197034
44.499041
43.817089
43.153084
42.50851
41.88532
41.284752
40.706806
40.149048
39.636501
39.045662
52.967903
52.23674
51.504209
50.77066
50.036424
49.301824
48.567182
47.832821
47.099059
46.366215
45.634608
44.904555
44.176372
43.450374
42.72687
42.006167
41.288564
40.57436
39.863842
39.157296
38.454999
37.757221
37.064224
36.376259
35.693574
35.016404
34.344979
33.679521
33.02024
32.367339
31.72101
31.081438
30.448797
29.823255
29.204968
28.594083
27.990736
27.395056
26.807157
26.227149
25.655131
25.091192
24.535411
23.987856
23.448588
22.917661
22.395121
21.881008
21.375357
20.878205
20.389605
19.909633
19.438428
18.97626
18.52367
18.081685
17.652296
17.239585
16.852009
16.504772
16.22649
16.076278
16.161471
16.636372
17.753708
19.905147
23.240625
27.471404
32.096432
36.429013
40.080436
42.930552
44.964216
46.334722
47.192229
47.655539
47.84759
47.880203
47.778809
47.582307
47.319747
46.995304
46.615649
46.190212
45.701564
45.160403
44.583354
43.977445
43.347466
42.703516
42.053277
41.401491
40.754291
40.115822
39.488964
38.877383
38.283775
37.7058
37.171402
36.549819
52.96829
52.237176
51.504681
50.771156
50.036932
49.302337
48.567693
47.833325
47.099554
46.366698
45.635078
44.905011
44.176814
43.4508
42.72728
42.00656
41.288941
40.574719
39.864185
39.157622
38.455308
37.757513
37.064498
36.376517
35.693816
35.016631
34.345192
33.679719
33.020425
32.367511
31.721171
31.081588
30.448938
29.823386
29.205091
28.594198
27.990844
27.395156
26.807251
26.227236
25.655211
25.091265
24.535476
23.987912
23.448633
22.91769
22.395127
21.880975
21.375261
20.878001
20.389206
19.908882
19.437029
18.973647
18.518748
18.072366
17.634588
17.205617
16.785919
16.376452
15.979163
15.598245
15.242695
14.929357
14.692172
14.60332
14.785053
15.429666
16.853649
19.470904
23.04411
27.305793
31.461136
35.043528
37.889854
39.983244
41.389441
42.284859
42.799594
43.047796
43.109375
43.060136
42.914537
42.705733
42.440449
42.122288
41.756003
41.340594
40.869606
40.359645
39.820001
39.255373
38.675437
38.086818
37.493758
36.902677
36.318949
35.741768
35.202568
34.568148
52.968684
52.237618
51.50516
50.771658
50.037448
49.302858
48.568214
47.833841
47.100061
46.367194
45.635561
44.905481
44.177269
43.45124
42.727704
42.006967
41.289331
40.575092
39.864541
39.157961
38.455629
37.757817
37.064785
36.376787
35.694069
35.016868
34.345414
33.679928
33.02062
32.367694
31.721342
31.081748
30.449087
29.823527
29.205222
28.594321
27.99096
27.395265
26.807353
26.227333
25.655303
25.091351
24.535557
23.987988
23.448704
22.917756
22.395187
21.88103
21.375309
20.87804
20.389231
19.908884
19.436993
18.973542
18.518513
18.07188
17.633617
17.203697
16.782101
16.368839
15.963976
15.567706
15.180518
14.803487
14.438937
14.092172
13.774672
13.508232
13.34245
13.378276
13.771673
14.795965
16.895068
20.003047
23.890388
27.799726
31.231528
33.966476
35.986946
37.35673
38.218069
38.724644
38.977508
39.056299
39.02469
38.907138
38.733319
38.508262
38.234274
37.912752
37.548386
37.129154
36.671712
36.185732
35.674902
35.147786
34.611775
34.067905
33.550758
32.929368
52.969086
52.238066
51.505643
50.772166
50.037971
49.303388
48.568744
47.834367
47.100579
46.367702
45.636057
44.905962
44.177736
43.451691
42.728139
42.007386
41.289733
40.575477
39.864908
39.15831
38.455961
37.758131
37.065082
36.377067
35.694332
35.017116
34.345647
33.680146
33.020824
32.367885
31.721521
31.081916
30.449245
29.823675
29.205362
28.594452
27.991083
27.395381
26.807463
26.227437
25.655401
25.091444
24.535644
23.98807
23.448781
22.917829
22.395256
21.881095
21.37537
20.878096
20.389283
19.908932
19.437036
18.973579
18.518539
18.071891
17.633599
17.203623
16.781919
16.368439
15.963132
15.565952
15.176862
14.795863
14.423026
14.058602
13.703244
13.358417
13.027583
12.718939
12.449372
12.255758
12.223292
12.492042
13.309547
15.097164
17.916478
21.522284
25.173311
28.387168
30.927772
32.785346
34.04088
34.819963
35.273902
35.498409
35.573807
35.542333
35.439282
35.287162
35.088603
34.843911
34.554567
34.22579
33.845267
33.428411
32.985143
32.515721
32.056065
31.484013
52.969495
52.238518
51.50613
50.772678
50.038498
49.303923
48.569282
47.834901
47.101106
46.368219
45.636562
44.906455
44.178214
43.452154
42.728586
42.007816
41.290146
40.575873
39.865286
39.15867
38.456303
37.758455
37.065388
36.377356
35.694605
35.017372
34.345887
33.680372
33.021036
32.368083
31.721707
31.082091
30.449409
29.823829
29.205507
28.594589
27.991212
27.395503
26.807578
26.227545
25.655503
25.091541
24.535736
23.988157
23.448863
22.917907
22.395329
21.881164
21.375435
20.878157
20.389341
19.908986
19.437086
18.973626
18.518583
18.07193
17.633634
17.203653
16.781941
16.368447
15.963114
15.56588
15.17668
14.795449
14.422119
14.05663
13.698943
13.349069
13.007139
12.673578
12.349455
12.037331
11.743678
11.482879
11.286155
11.230011
11.450452
12.190366
13.875156
16.554127
19.952288
23.348823
26.285785
28.564919
30.196155
31.281133
31.941995
32.31739
32.497164
32.552639
32.513026
32.415737
32.274987
32.092697
31.866683
31.600251
31.295774
30.941345
30.57698
30.099128
52.96991
52.238975
51.506621
50.773194
50.039031
49.304465
48.569826
47.835443
47.101641
46.368746
45.637078
44.906957
44.178702
43.452627
42.729043
42.008256
41.290569
40.576278
39.865673
39.15904
38.456655
37.758788
37.065703
36.377654
35.694885
35.017636
34.346136
33.680605
33.021255
32.368289
31.7219
31.082271
30.449579
29.823989
29.205658
28.594731
27.991346
27.395629
26.807698
26.227658
25.65561
25.091642
24.535831
23.988247
23.448949
22.917988
22.395406
21.881236
21.375503
20.878222
20.389401
19.909043
19.43714
18.973676
18.51863
18.071974
17.633675
17.203691
16.781976
16.368479
15.963142
15.565903
15.176696
14.79545
14.42209
14.056538
13.698715
13.348539
13.005936
12.670842
12.343237
12.023191
11.711014
11.407579
11.115055
10.83916
10.593417
10.407976
10.359834
10.589173
11.353505
13.104615
15.765379
18.984657
22.101904
24.716862
26.684817
28.050474
28.935815
29.462259
29.750267
29.880508
29.908226
29.855687
29.758706
29.622763
29.450023
29.233502
29.000259
28.663926
52.970331
52.239436
51.507116
50.773713
50.039567
49.30501
48.570375
47.835991
47.102184
46.36928
45.637601
44.907468
44.179199
43.453109
42.729509
42.008705
41.291001
40.576692
39.866069
39.159418
38.457014
37.75913
37.066027
36.377959
35.695173
35.017907
34.346391
33.680844
33.02148
32.3685
31.722098
31.082458
30.449755
29.824155
29.205813
28.594878
27.991484
27.39576
26.807821
26.227775
25.655721
25.091746
24.53593
23.988341
23.449037
22.918071
22.395485
21.881311
21.375573
20.878288
20.389464
19.909102
19.437195
18.973728
18.518679
18.07202
17.633718
17.203732
16.782014
16.368514
15.963174
15.565933
15.176723
14.795474
14.422111
14.056555
13.698722
13.348527
13.005884
12.6707
12.342886
12.022356
11.709034
11.402879
11.103935
10.812463
10.529271
10.25646
9.9998219
9.7734614
9.6104812
9.5976083
9.8898688
10.782284
12.671108
15.417133
18.464606
21.261076
23.504921
25.127796
26.213259
26.895376
27.289048
27.491797
27.573982
27.571629
27.505034
27.404431
27.281522
27.095613
52.970758
52.239902
51.507614
50.774236
50.040106
49.30556
48.57093
47.836545
47.102734
46.369822
45.638133
44.907987
44.179705
43.4536
42.729983
42.009163
41.291442
40.577115
39.866474
39.159804
38.457382
37.759479
37.066358
36.378272
35.695469
35.018186
34.346653
33.681091
33.021711
32.368717
31.722302
31.08265
30.449935
29.824324
29.205973
28.595029
27.991627
27.395894
26.807948
26.227895
25.655834
25.091854
24.536032
23.988437
23.449128
22.918158
22.395566
21.881388
21.375646
20.878357
20.389529
19.909163
19.437253
18.973782
18.518729
18.072068
17.633763
17.203773
16.782053
16.36855
15.963208
15.565964
15.176752
14.795501
14.422136
14.056577
13.698742
13.348546
13.005898
12.670708
12.342881
12.022321
11.708931
11.402613
11.103273
10.81083
10.525233
10.24652
9.9749561
9.7114004
9.4581853
9.2220296
9.0193174
8.8915936
8.9413933
9.3603912
10.516233
12.631618
15.441742
18.265821
20.672691
22.504261
23.77008
24.585948
25.080391
25.353572
25.479644
25.517415
25.495071
25.424714
52.971191
52.240371
51.508115
50.774761
50.040649
49.306114
48.571488
47.837104
47.103289
46.37037
45.638671
44.908514
44.180218
43.454098
42.730466
42.00963
41.291891
40.577546
39.866887
39.160198
38.457758
37.759836
37.066696
36.378592
35.695771
35.018471
34.346921
33.681343
33.021949
32.36894
31.722512
31.082847
30.45012
29.824499
29.206138
28.595183
27.991773
27.396032
26.808078
26.228018
25.655951
25.091964
24.536136
23.988535
23.449222
22.918246
22.39565
21.881467
21.37572
20.878427
20.389595
19.909226
19.437311
18.973837
18.518781
18.072116
17.633808
17.203816
16.782092
16.368587
15.963243
15.565997
15.176782
14.795529
14.422162
14.056601
13.698764
13.348566
13.005917
12.670725
12.342896
12.022333
11.708938
11.402609
11.103246
10.810743
10.525001
10.245921
9.9734174
9.7074433
9.4480481
9.1955599
8.9510232
8.71743
8.5034199
8.3303015
8.2579518
8.4161429
9.0603593
10.60928
12.991826
15.699799
18.189778
20.167216
21.584422
22.517644
23.097688
23.431423
23.611303
23.690037
52.97163
52.240845
51.508618
50.775289
50.041194
49.30667
48.572051
47.837667
47.103849
46.370924
45.639216
44.909048
44.180739
43.454604
42.730957
42.010104
41.292347
40.577985
39.867308
39.1606
38.458141
37.7602
37.067042
36.378919
35.69608
35.018762
34.347196
33.681601
33.022191
32.369168
31.722726
31.083048
30.45031
29.824677
29.206306
28.595342
27.991922
27.396173
26.808211
26.228144
25.65607
25.092077
24.536243
23.988636
23.449317
22.918336
22.395735
21.881547
21.375796
20.878499
20.389663
19.90929
19.437371
18.973893
18.518834
18.072166
17.633855
17.203859
16.782133
16.368625
15.963278
15.56603
15.176813
14.795558
14.422188
14.056626
13.698787
13.348587
13.005936
12.670742
12.342912
12.022348
11.708951
11.402621
11.103255
10.810748
10.524996
10.245894
9.9733333
9.7072107
9.4474272
9.1938998
8.9465924
8.7055978
8.4713813
8.2453832
8.032049
7.8438566
7.7133297
7.7312422
8.0771817
9.1151392
11.049295
13.570334
16.057002
18.119422
19.646326
20.673213
21.32978
21.730491
52.972075
52.241323
51.509125
50.775819
50.041742
49.30723
48.572617
47.838235
47.104414
46.371483
45.639767
44.909588
44.181266
43.455118
42.731455
42.010585
41.292811
40.578431
39.867735
39.161009
38.458531
37.760572
37.067394
36.379253
35.696395
35.01906
34.347476
33.681865
33.02244
32.369402
31.722945
31.083254
30.450504
29.82486
29.206478
28.595504
27.992075
27.396317
26.808347
26.228273
25.656192
25.092192
24.536351
23.988739
23.449414
22.918428
22.395822
21.881629
21.375874
20.878572
20.389732
19.909354
19.437432
18.97395
18.518888
18.072216
17.633902
17.203903
16.782174
16.368663
15.963314
15.566063
15.176844
14.795586
14.422215
14.05665
13.69881
13.348608
13.005955
12.67076
12.342928
12.022363
11.708965
11.402633
11.103266
10.810758
10.525005
10.2459
9.9733355
9.7072035
9.4473962
9.1938052
8.9463255
8.7048602
8.4693349
8.239741
8.0162654
7.79966
7.59225
7.4014202
7.2467832
7.1870517
7.3554343
8.0267462
9.5729036
11.862421
14.268486
16.3573
17.956384
19.079916
52.972525
52.241805
51.509635
50.776351
50.042292
49.307791
48.573185
47.838806
47.104984
46.372048
45.640323
44.910134
44.1818
43.455637
42.731959
42.011073
41.293282
40.578884
39.86817
39.161425
38.458928
37.760949
37.067752
36.379592
35.696716
35.019363
34.347762
33.682135
33.022693
32.36964
31.723169
31.083465
30.450702
29.825046
29.206653
28.595669
27.992231
27.396464
26.808486
26.228404
25.656316
25.092309
24.536462
23.988844
23.449513
22.918521
22.39591
21.881712
21.375952
20.878646
20.389802
19.90942
19.437494
18.974008
18.518942
18.072267
17.633949
17.203948
16.782216
16.368702
15.96335
15.566096
15.176875
14.795615
14.422242
14.056675
13.698832
13.348629
13.005975
12.670778
12.342944
12.022378
11.708978
11.402645
11.103277
10.810768
10.525014
10.245908
9.9733425
9.7072092
9.4473998
9.1938044
8.9463139
8.7048196
8.4692134
8.2393919
8.0152643
7.7967759
7.5839791
7.3772611
7.1779472
6.9904499
6.8278193
6.7271954
6.7915748
7.2362722
8.4688188
10.472689
12.784457
14.908624
52.97298
52.242291
51.510147
50.776886
50.042843
49.308356
48.573757
47.83938
47.105557
46.372616
45.640885
44.910685
44.182339
43.456163
42.73247
42.011568
41.29376
40.579344
39.868611
39.161848
38.459331
37.761333
37.068117
36.379938
35.697044
35.019672
34.348053
33.682409
33.022951
32.369883
31.723398
31.08368
30.450904
29.825236
29.206832
28.595838
27.99239
27.396614
26.808628
26.228538
25.656442
25.092428
24.536575
23.98895
23.449614
22.918616
22.396
21.881797
21.376032
20.878721
20.389872
19.909486
19.437556
18.974067
18.518997
18.072318
17.633997
17.203992
16.782257
16.368741
15.963386
15.56613
15.176906
14.795644
14.422268
14.0567
13.698855
13.34865
13.005994
12.670795
12.342961
12.022392
11.708992
11.402658
11.103288
10.810778
10.525023
10.245916
9.9733495
9.7072154
9.4474051
9.1938088
8.9463171
8.7048205
8.469209
8.2393733
8.0152053
7.7965989
7.5834556
7.3756984
7.173314
6.9764936
6.786051
6.6047064
6.4414963
6.3219666
6.3274998
6.6253459
7.6792803
9.4408402
52.973441
52.24278
51.510663
50.777423
50.043397
49.308921
48.57433
47.839957
47.106133
46.373189
45.64145
44.911242
44.182884
43.456695
42.732987
42.012068
41.294243
40.579809
39.869059
39.162276
38.459741
37.761724
37.068488
36.38029
35.697377
35.019987
34.34835
33.682689
33.023215
32.370131
31.723631
31.083899
30.45111
29.82543
29.207015
28.59601
27.992552
27.396767
26.808772
26.228674
25.65657
25.092549
24.536689
23.989058
23.449716
22.918713
22.396091
21.881883
21.376113
20.878797
20.389944
19.909554
19.437619
18.974126
18.519052
18.07237
17.634045
17.204037
16.782299
16.36878
15.963422
15.566163
15.176937
14.795673
14.422295
14.056724
13.698878
13.34867
13.006013
12.670813
12.342976
12.022407
11.709005
11.402669
11.103298
10.810788
10.525031
10.245923
9.9733561
9.7072212
9.4474101
9.1938131
8.9463207
8.7048234
8.469211
8.2393741
8.0152032
7.7965893
7.5834245
7.3756023
7.1730211
6.9755931
6.7832716
6.5961405
6.4147186
6.2408188
6.0811091
5.9536848
5.9469477
6.1468047
52.973907
52.243274
51.51118
50.777962
50.043953
49.309489
48.574906
47.840536
47.106712
46.373764
45.642019
44.911802
44.183433
43.457231
42.733509
42.012575
41.294733
40.580281
39.869512
39.162711
38.460156
37.762119
37.068865
36.380647
35.697715
35.020306
34.348652
33.682973
33.023482
32.370383
31.723868
31.084122
30.45132
29.825628
29.2072
28.596185
27.992716
27.396922
26.808918
26.228812
25.6567
25.092672
24.536805
23.989167
23.449819
22.91881
22.396182
21.881969
21.376194
20.878874
20.390016
19.909621
19.437683
18.974185
18.519108
18.072422
17.634094
17.204082
16.782341
16.368819
15.963458
15.566197
15.176968
14.795701
14.422321
14.056748
13.6989
13.34869
13.006031
12.67083
12.342992
12.022421
11.709017
11.402681
11.103308
10.810796
10.525039
10.24593
9.9733622
9.7072264
9.4474146
9.1938169
8.9463238
8.7048259
8.4692129
8.2393754
8.015204
7.7965892
7.5834228
7.3755963
7.1730028
6.9755367
6.7830955
6.5955862
6.4129444
6.2351958
6.062697
5.8966853
5.7452338
5.614933
52.974378
52.243771
51.511701
50.778502
50.04451
49.310058
48.575483
47.841117
47.107294
46.374343
45.642592
44.912366
44.183987
43.457772
42.734035
42.013086
41.295227
40.580758
39.869971
39.163151
38.460577
37.762521
37.069247
36.38101
35.698058
35.020631
34.348959
33.683262
33.023755
32.370639
31.724109
31.084348
30.451533
29.825828
29.207389
28.596362
27.992883
27.397079
26.809066
26.228952
25.656832
25.092797
24.536922
23.989278
23.449923
22.918908
22.396275
21.882056
21.376276
20.878951
20.390088
19.909689
19.437746
18.974245
18.519163
18.072474
17.634142
17.204127
16.782383
16.368857
15.963494
15.56623
15.176999
14.795729
14.422347
14.056772
13.698921
13.34871
13.006049
12.670846
12.343006
12.022434
11.709029
11.402691
11.103318
10.810805
10.525046
10.245937
9.9733677
9.7072311
9.4474184
9.1938201
8.9463263
8.7048278
8.4692143
8.2393763
8.0152043
7.7965891
7.5834222
7.3755952
7.1730006
6.975532
6.7830833
6.5955501
6.4128307
6.2348299
6.0614749
5.8927573
5.729176
5.5710591
52.974854
52.244271
51.512224
50.779045
50.045068
49.310628
48.576061
47.8417
47.107877
46.374924
45.643168
44.912934
44.184544
43.458317
42.734567
42.013602
41.295727
40.58124
39.870435
39.163596
38.461003
37.762927
37.069634
36.381378
35.698407
35.020961
34.34927
33.683556
33.024032
32.370899
31.724354
31.084579
30.45175
29.826032
29.207581
28.596542
27.993053
27.397239
26.809217
26.229093
25.656966
25.092923
24.537041
23.98939
23.450029
22.919008
22.396368
21.882144
21.376359
20.879028
20.390161
19.909757
19.43781
18.974304
18.519219
18.072526
17.63419
17.204172
16.782424
16.368896
15.963529
15.566263
15.177029
14.795757
14.422372
14.056795
13.698942
13.348729
13.006066
12.670862
12.34302
12.022446
11.70904
11.402701
11.103327
10.810812
10.525053
10.245942
9.9733724
9.707235
9.4474216
9.1938225
8.9463281
8.704829
8.4692149
8.2393764
8.015204
7.7965884
7.583421
7.3755937
7.1729988
6.9755297
6.7830803
6.5955455
6.4128212
6.2348047
6.0613941
5.8924978
5.7280388
5.568009
52.975334
52.244775
51.512749
50.779589
50.045627
49.3112
48.57664
47.842284
47.108462
46.375507
45.643746
44.913504
44.185105
43.458866
42.735102
42.014122
41.296231
40.581727
39.870903
39.164046
38.461434
37.763339
37.070026
36.38175
35.69876
35.021295
34.349586
33.683854
33.024312
32.371164
31.724602
31.084813
30.45197
29.826239
29.207775
28.596725
27.993225
27.397401
26.809369
26.229237
25.657101
25.09305
24.537161
23.989503
23.450135
22.919108
22.396462
21.882232
21.376442
20.879106
20.390234
19.909826
19.437874
18.974364
18.519274
18.072577
17.634238
17.204216
16.782465
16.368934
15.963564
15.566295
15.177058
14.795784
14.422397
14.056817
13.698963
13.348748
13.006083
12.670876
12.343034
12.022458
11.709051
11.40271
11.103335
10.810819
10.525059
10.245947
9.9733763
9.7072381
9.4474239
9.1938241
8.9463291
8.7048294
8.4692148
8.2393758
8.0152029
7.7965869
7.5834192
7.3755914
7.1729962
6.9755269
6.7830772
6.5955422
6.4128173
6.2347996
6.0613865
5.8924796
5.7279616
5.5678019
52.975818
52.245282
51.513277
50.780134
50.046187
49.311771
48.57722
47.842869
47.109049
46.376091
45.644325
44.914077
44.185668
43.459418
42.73564
42.014646
41.296739
40.582218
39.871376
39.1645
38.461869
37.763755
37.070422
36.382127
35.699118
35.021634
34.349906
33.684156
33.024597
32.371432
31.724854
31.08505
30.452193
29.826448
29.207972
28.596911
27.993399
27.397565
26.809523
26.229382
25.657238
25.093178
24.537282
23.989617
23.450242
22.919208
22.396557
21.882321
21.376525
20.879184
20.390307
19.909894
19.437937
18.974423
18.519329
18.072628
17.634285
17.20426
16.782506
16.368971
15.963599
15.566326
15.177087