# Selection     : all 
# Volume        : 2.33333000e+00
# Time          	min(p)	location	cell	min(k)	location	cell	min(omega)	location	cell	min(nut)	location	cell
0               	0.00000000e+00	(1.56631511e-03 4.00664797e-04 5.00000000e-01)	0	1.50000000e-04	(1.56631511e-03 4.00664797e-04 5.00000000e-01)	0	7.50000000e+02	(1.56631511e-03 4.00664797e-04 5.00000000e-01)	0	2.00000000e-07	(1.56631511e-03 4.00664797e-04 5.00000000e-01)	0
1               	2.15642681e-05	(1.96867370e+00 9.10418368e-01 5.00000000e-01)	7479	5.00913313e-05	(1.96867370e+00 9.10418368e-01 5.00000000e-01)	7479	1.36119379e+02	(4.24563479e-02 4.00664797e-04 5.00000000e-01)	11	2.33247136e-07	(2.21780719e-02 2.92730968e-03 5.00000000e-01)	306
2               	1.38492669e-05	(1.96867370e+00 4.00664797e-04 5.00000000e-01)	99	2.51738713e-05	(1.96867370e+00 9.10418368e-01 5.00000000e-01)	7479	6.19182316e+01	(1.96867370e+00 9.10418368e-01 5.00000000e-01)	7479	2.00748731e-07	(-2.84388080e-01 9.10418368e-01 5.00000000e-01)	5670
3               	-6.10210273e-06	(1.96867370e+00 4.00664797e-04 5.00000000e-01)	99	1.61796843e-05	(1.96867370e+00 9.10418368e-01 5.00000000e-01)	7479	3.24276658e+01	(1.96867370e+00 9.10418368e-01 5.00000000e-01)	7479	1.94109339e-07	(-2.84388080e-01 7.48729285e-01 5.00000000e-01)	5660
4               	-7.70595868e-06	(1.96867370e+00 4.00664797e-04 5.00000000e-01)	99	1.18534920e-05	(1.96867370e+00 9.10418368e-01 5.00000000e-01)	7479	2.17191953e+01	(1.96867370e+00 9.10418368e-01 5.00000000e-01)	7479	1.84805663e-07	(-2.00361109e-01 9.10418368e-01 5.00000000e-01)	5671
5               	-4.37935083e-06	(1.96867370e+00 4.00664797e-04 5.00000000e-01)	99	9.36714356e-06	(1.96867370e+00 9.10418368e-01 5.00000000e-01)	7479	1.65650458e+01	(1.96867370e+00 9.10418368e-01 5.00000000e-01)	7479	1.65207298e-07	(4.74706631e-03 4.00664797e-04 5.00000000e-01)	1
6               	-4.22841535e-06	(1.96867370e+00 4.00664797e-04 5.00000000e-01)	99	7.76377735e-06	(1.96867370e+00 9.10418368e-01 5.00000000e-01)	7479	1.36222000e+01	(1.96867370e+00 9.10418368e-01 5.00000000e-01)	7479	8.70639223e-08	(4.74706631e-03 4.00664797e-04 5.00000000e-01)	1
7               	-6.30222546e-06	(1.96867370e+00 4.00664797e-04 5.00000000e-01)	99	6.64379379e-06	(1.96867370e+00 9.10418368e-01 5.00000000e-01)	7479	1.17514849e+01	(1.96867370e+00 9.10418368e-01 5.00000000e-01)	7479	6.37702731e-08	(4.74706631e-03 4.00664797e-04 5.00000000e-01)	1
8               	-1.35917418e-05	(1.96867370e+00 4.00664797e-04 5.00000000e-01)	99	5.81410612e-06	(1.96867370e+00 9.10418368e-01 5.00000000e-01)	7479	1.04736004e+01	(1.96867370e+00 9.10418368e-01 5.00000000e-01)	7479	5.28613329e-08	(4.74706631e-03 4.00664797e-04 5.00000000e-01)	1
9               	-2.02179909e-05	(1.96867370e+00 4.00664797e-04 5.00000000e-01)	99	5.17113138e-06	(1.96867370e+00 9.10418368e-01 5.00000000e-01)	7479	9.55516314e+00	(1.96867370e+00 9.10418368e-01 5.00000000e-01)	7479	4.19352050e-08	(8.02553783e-03 4.00664797e-04 5.00000000e-01)	2
10              	-2.38648007e-05	(1.96867370e+00 4.00664797e-04 5.00000000e-01)	99	4.65483026e-06	(1.96867370e+00 9.10418368e-01 5.00000000e-01)	7479	8.86991367e+00	(1.96867370e+00 9.10418368e-01 5.00000000e-01)	7479	3.50083027e-08	(8.02553783e-03 4.00664797e-04 5.00000000e-01)	2
11              	-2.68709729e-05	(1.96867370e+00 4.00664797e-04 5.00000000e-01)	99	4.22829722e-06	(1.96867370e+00 9.10418368e-01 5.00000000e-01)	7479	8.34390391e+00	(1.96867370e+00 9.10418368e-01 5.00000000e-01)	7479	3.26155087e-08	(8.02553783e-03 4.00664797e-04 5.00000000e-01)	2
12              	-3.07277955e-05	(1.96867370e+00 4.00664797e-04 5.00000000e-01)	99	3.86781247e-06	(1.96867370e+00 9.10418368e-01 5.00000000e-01)	7479	7.93105115e+00	(1.96867370e+00 9.10418368e-01 5.00000000e-01)	7479	3.17538180e-08	(8.02553783e-03 4.00664797e-04 5.00000000e-01)	2
13              	-3.69543842e-05	(1.96867370e+00 4.00664797e-04 5.00000000e-01)	99	3.55762290e-06	(1.96867370e+00 9.10418368e-01 5.00000000e-01)	7479	7.60115474e+00	(1.96867370e+00 9.10418368e-01 5.00000000e-01)	7479	3.14287073e-08	(8.02553783e-03 4.00664797e-04 5.00000000e-01)	2
14              	-4.49192264e-05	(1.96867370e+00 4.00664797e-04 5.00000000e-01)	99	3.28703376e-06	(1.96867370e+00 9.10418368e-01 5.00000000e-01)	7479	7.33356228e+00	(1.96867370e+00 9.10418368e-01 5.00000000e-01)	7479	3.13005772e-08	(8.02553783e-03 4.00664797e-04 5.00000000e-01)	2
15              	-5.39074089e-05	(1.96867370e+00 4.00664797e-04 5.00000000e-01)	99	3.04869303e-06	(1.96867370e+00 9.10418368e-01 5.00000000e-01)	7479	7.11360591e+00	(1.96867370e+00 9.10418368e-01 5.00000000e-01)	7479	3.12451818e-08	(8.02553783e-03 4.00664797e-04 5.00000000e-01)	2
16              	-6.39769842e-05	(1.96867370e+00 4.00664797e-04 5.00000000e-01)	99	2.83751466e-06	(1.96867370e+00 9.10418368e-01 5.00000000e-01)	7479	6.93050044e+00	(1.96867370e+00 9.10418368e-01 5.00000000e-01)	7479	2.99825229e-08	(1.14047319e-02 4.00664797e-04 5.00000000e-01)	3
17              	-7.40180672e-05	(1.96867370e+00 4.00664797e-04 5.00000000e-01)	99	2.64994488e-06	(1.96867370e+00 9.10418368e-01 5.00000000e-01)	7479	6.77605902e+00	(1.96867370e+00 9.10418368e-01 5.00000000e-01)	7479	2.89427559e-08	(1.14047319e-02 4.00664797e-04 5.00000000e-01)	3
18              	-8.43495925e-05	(1.96867370e+00 4.00664797e-04 5.00000000e-01)	99	2.48341427e-06	(1.96867370e+00 9.10418368e-01 5.00000000e-01)	7479	6.64389613e+00	(1.96867370e+00 9.10418368e-01 5.00000000e-01)	7479	2.85997512e-08	(1.14047319e-02 4.00664797e-04 5.00000000e-01)	3
19              	-9.50326891e-05	(1.96867370e+00 4.00664797e-04 5.00000000e-01)	99	2.33589882e-06	(1.96867370e+00 9.10418368e-01 5.00000000e-01)	7479	6.52893800e+00	(1.96867370e+00 9.10418368e-01 5.00000000e-01)	7479	2.84799523e-08	(1.14047319e-02 4.00664797e-04 5.00000000e-01)	3
20              	-1.05624038e-04	(1.96867370e+00 4.00664797e-04 5.00000000e-01)	99	2.20556259e-06	(1.96867370e+00 9.10418368e-01 5.00000000e-01)	7479	6.42712924e+00	(1.96867370e+00 9.10418368e-01 5.00000000e-01)	7479	2.84327544e-08	(1.14047319e-02 4.00664797e-04 5.00000000e-01)	3
21              	-1.16125010e-04	(1.96867370e+00 4.00664797e-04 5.00000000e-01)	99	2.09048810e-06	(1.96867370e+00 9.10418368e-01 5.00000000e-01)	7479	6.33526734e+00	(1.96867370e+00 9.10418368e-01 5.00000000e-01)	7479	2.84108493e-08	(1.14047319e-02 4.00664797e-04 5.00000000e-01)	3
22              	-1.26493105e-04	(1.96867370e+00 4.00664797e-04 5.00000000e-01)	99	1.98851213e-06	(1.96867370e+00 9.10418368e-01 5.00000000e-01)	7479	6.25090891e+00	(1.96867370e+00 9.10418368e-01 5.00000000e-01)	7479	2.83991525e-08	(1.14047319e-02 4.00664797e-04 5.00000000e-01)	3
23              	-1.36777767e-04	(1.96867370e+00 4.00664797e-04 5.00000000e-01)	99	1.89718477e-06	(1.96867370e+00 9.10418368e-01 5.00000000e-01)	7479	6.17231095e+00	(1.96867370e+00 9.10418368e-01 5.00000000e-01)	7479	2.83893127e-08	(1.14047319e-02 4.00664797e-04 5.00000000e-01)	3
24              	-1.46758979e-04	(1.96867370e+00 4.00664797e-04 5.00000000e-01)	99	1.81385359e-06	(1.96867370e+00 9.10418368e-01 5.00000000e-01)	7479	6.09837485e+00	(1.96867370e+00 9.10418368e-01 5.00000000e-01)	7479	2.83770153e-08	(1.14047319e-02 4.00664797e-04 5.00000000e-01)	3
25              	-1.55717291e-04	(1.96867370e+00 4.00664797e-04 5.00000000e-01)	99	1.73585327e-06	(1.96867370e+00 9.10418368e-01 5.00000000e-01)	7479	6.02857359e+00	(1.96867370e+00 9.10418368e-01 5.00000000e-01)	7479	2.83695121e-08	(1.14047319e-02 4.00664797e-04 5.00000000e-01)	3
26              	-1.64212588e-04	(1.96867370e+00 4.00664797e-04 5.00000000e-01)	99	1.66075763e-06	(1.96867370e+00 9.10418368e-01 5.00000000e-01)	7479	5.96284876e+00	(1.96867370e+00 9.10418368e-01 5.00000000e-01)	7479	2.83645400e-08	(1.14047319e-02 4.00664797e-04 5.00000000e-01)	3
27              	-1.74370416e-04	(1.96867370e+00 4.00664797e-04 5.00000000e-01)	99	1.58663742e-06	(1.96867370e+00 9.10418368e-01 5.00000000e-01)	7479	5.90148014e+00	(1.96867370e+00 9.10418368e-01 5.00000000e-01)	7479	2.83610367e-08	(1.14047319e-02 4.00664797e-04 5.00000000e-01)	3
28              	-1.86540529e-04	(1.96867370e+00 4.00664797e-04 5.00000000e-01)	99	1.51226389e-06	(1.96867370e+00 9.10418368e-01 5.00000000e-01)	7479	5.84493756e+00	(1.96867370e+00 9.10418368e-01 5.00000000e-01)	7479	2.83598870e-08	(1.14047319e-02 4.00664797e-04 5.00000000e-01)	3
29              	-1.99939725e-04	(1.96867370e+00 4.00664797e-04 5.00000000e-01)	99	1.43721090e-06	(1.96867370e+00 9.10418368e-01 5.00000000e-01)	7479	5.79373304e+00	(1.96867370e+00 9.10418368e-01 5.00000000e-01)	7479	2.83597501e-08	(1.14047319e-02 4.00664797e-04 5.00000000e-01)	3
30              	-2.13636611e-04	(1.96867370e+00 4.00664797e-04 5.00000000e-01)	99	1.36183232e-06	(1.96867370e+00 9.10418368e-01 5.00000000e-01)	7479	5.74829136e+00	(1.96867370e+00 9.10418368e-01 5.00000000e-01)	7479	2.83599236e-08	(1.14047319e-02 4.00664797e-04 5.00000000e-01)	3
31              	-2.27147882e-04	(1.96867370e+00 4.00664797e-04 5.00000000e-01)	99	1.28712091e-06	(1.96867370e+00 9.10418368e-01 5.00000000e-01)	7479	5.70885537e+00	(1.96867370e+00 9.10418368e-01 5.00000000e-01)	7479	2.83600212e-08	(1.14047319e-02 4.00664797e-04 5.00000000e-01)	3
32              	-2.40021356e-04	(1.96867370e+00 4.00664797e-04 5.00000000e-01)	99	1.21448166e-06	(1.96867370e+00 9.10418368e-01 5.00000000e-01)	7479	5.67543496e+00	(1.96867370e+00 9.10418368e-01 5.00000000e-01)	7479	2.83600469e-08	(1.14047319e-02 4.00664797e-04 5.00000000e-01)	3
33              	-2.51868850e-04	(1.96867370e+00 4.00664797e-04 5.00000000e-01)	99	1.14546851e-06	(1.96867370e+00 9.10418368e-01 5.00000000e-01)	7479	5.64780071e+00	(1.96867370e+00 9.10418368e-01 5.00000000e-01)	7479	2.83601277e-08	(1.14047319e-02 4.00664797e-04 5.00000000e-01)	3
34              	-2.62592498e-04	(1.96867370e+00 4.00664797e-04 5.00000000e-01)	99	1.08153527e-06	(1.96867370e+00 9.10418368e-01 5.00000000e-01)	7479	5.62551462e+00	(1.96867370e+00 9.10418368e-01 5.00000000e-01)	7479	2.83600981e-08	(1.14047319e-02 4.00664797e-04 5.00000000e-01)	3
35              	-2.72097725e-04	(1.96867370e+00 4.00664797e-04 5.00000000e-01)	99	1.02384145e-06	(1.96867370e+00 9.10418368e-01 5.00000000e-01)	7479	5.60798617e+00	(1.96867370e+00 9.10418368e-01 5.00000000e-01)	7479	2.83601964e-08	(1.14047319e-02 4.00664797e-04 5.00000000e-01)	3
36              	-2.80572211e-04	(1.96867370e+00 4.00664797e-04 5.00000000e-01)	99	9.73136406e-07	(1.96867370e+00 9.10418368e-01 5.00000000e-01)	7479	5.59453778e+00	(1.96867370e+00 9.10418368e-01 5.00000000e-01)	7479	2.83603260e-08	(1.14047319e-02 4.00664797e-04 5.00000000e-01)	3
37              	-2.87823697e-04	(1.96867370e+00 4.00664797e-04 5.00000000e-01)	99	9.29722475e-07	(1.96867370e+00 9.10418368e-01 5.00000000e-01)	7479	5.58446954e+00	(1.96867370e+00 9.10418368e-01 5.00000000e-01)	7479	2.83605772e-08	(1.14047319e-02 4.00664797e-04 5.00000000e-01)	3
38              	-2.94312330e-04	(1.96867370e+00 4.00664797e-04 5.00000000e-01)	99	8.93486912e-07	(1.96867370e+00 9.10418368e-01 5.00000000e-01)	7479	5.57710939e+00	(1.96867370e+00 9.10418368e-01 5.00000000e-01)	7479	2.83608114e-08	(1.14047319e-02 4.00664797e-04 5.00000000e-01)	3
39              	-3.00173783e-04	(1.96867370e+00 4.00664797e-04 5.00000000e-01)	99	8.63980445e-07	(1.96867370e+00 9.10418368e-01 5.00000000e-01)	7479	5.57185098e+00	(1.96867370e+00 9.10418368e-01 5.00000000e-01)	7479	2.83610201e-08	(1.14047319e-02 4.00664797e-04 5.00000000e-01)	3
40              	-3.05381771e-04	(1.96867370e+00 4.00664797e-04 5.00000000e-01)	99	8.40518507e-07	(1.96867370e+00 9.10418368e-01 5.00000000e-01)	7479	5.56817470e+00	(1.96867370e+00 9.10418368e-01 5.00000000e-01)	7479	2.83611529e-08	(1.14047319e-02 4.00664797e-04 5.00000000e-01)	3
41              	-3.09973468e-04	(1.96867370e+00 4.00664797e-04 5.00000000e-01)	99	8.22284791e-07	(1.96867370e+00 9.10418368e-01 5.00000000e-01)	7479	5.56565613e+00	(1.96867370e+00 9.10418368e-01 5.00000000e-01)	7479	2.83612420e-08	(1.14047319e-02 4.00664797e-04 5.00000000e-01)	3
42              	-3.14098292e-04	(1.96867370e+00 4.00664797e-04 5.00000000e-01)	99	8.08422032e-07	(1.96867370e+00 9.10418368e-01 5.00000000e-01)	7479	5.56396252e+00	(1.96867370e+00 9.10418368e-01 5.00000000e-01)	7479	2.83612853e-08	(1.14047319e-02 4.00664797e-04 5.00000000e-01)	3
43              	-3.17742779e-04	(1.96867370e+00 4.00664797e-04 5.00000000e-01)	99	7.98102149e-07	(1.96867370e+00 9.10418368e-01 5.00000000e-01)	7479	5.56284243e+00	(1.96867370e+00 9.10418368e-01 5.00000000e-01)	7479	2.83613060e-08	(1.14047319e-02 4.00664797e-04 5.00000000e-01)	3
44              	-3.20983328e-04	(1.96867370e+00 4.00664797e-04 5.00000000e-01)	99	7.90573386e-07	(1.96867370e+00 9.10418368e-01 5.00000000e-01)	7479	5.56211183e+00	(1.96867370e+00 9.10418368e-01 5.00000000e-01)	7479	2.83613109e-08	(1.14047319e-02 4.00664797e-04 5.00000000e-01)	3
45              	-3.23860884e-04	(1.96867370e+00 4.00664797e-04 5.00000000e-01)	99	7.85186321e-07	(1.96867370e+00 9.10418368e-01 5.00000000e-01)	7479	5.56164013e+00	(1.96867370e+00 9.10418368e-01 5.00000000e-01)	7479	2.83613149e-08	(1.14047319e-02 4.00664797e-04 5.00000000e-01)	3
46              	-3.26406166e-04	(1.96867370e+00 4.00664797e-04 5.00000000e-01)	99	7.81402796e-07	(1.96867370e+00 9.10418368e-01 5.00000000e-01)	7479	5.56133743e+00	(1.96867370e+00 9.10418368e-01 5.00000000e-01)	7479	2.83613235e-08	(1.14047319e-02 4.00664797e-04 5.00000000e-01)	3
47              	-3.28651839e-04	(1.96867370e+00 4.00664797e-04 5.00000000e-01)	99	7.78792613e-07	(1.96867370e+00 9.10418368e-01 5.00000000e-01)	7479	5.56114359e+00	(1.96867370e+00 9.10418368e-01 5.00000000e-01)	7479	2.83613356e-08	(1.14047319e-02 4.00664797e-04 5.00000000e-01)	3
48              	-3.30601482e-04	(1.96867370e+00 4.00664797e-04 5.00000000e-01)	99	7.77022654e-07	(1.96867370e+00 9.10418368e-01 5.00000000e-01)	7479	5.56101954e+00	(1.96867370e+00 9.10418368e-01 5.00000000e-01)	7479	2.83613381e-08	(1.14047319e-02 4.00664797e-04 5.00000000e-01)	3
49              	-3.32299724e-04	(1.96867370e+00 4.00664797e-04 5.00000000e-01)	99	7.75842276e-07	(1.96867370e+00 9.10418368e-01 5.00000000e-01)	7479	5.56094064e+00	(1.96867370e+00 9.10418368e-01 5.00000000e-01)	7479	2.83613183e-08	(1.14047319e-02 4.00664797e-04 5.00000000e-01)	3
50              	-3.33749576e-04	(1.96867370e+00 4.00664797e-04 5.00000000e-01)	99	7.75067762e-07	(1.96867370e+00 9.10418368e-01 5.00000000e-01)	7479	5.56089182e+00	(1.96867370e+00 9.10418368e-01 5.00000000e-01)	7479	2.83613445e-08	(1.14047319e-02 4.00664797e-04 5.00000000e-01)	3
51              	-3.35063106e-04	(1.96867370e+00 4.00664797e-04 5.00000000e-01)	99	7.74567598e-07	(1.96867370e+00 9.10418368e-01 5.00000000e-01)	7479	5.56086364e+00	(1.96867370e+00 9.10418368e-01 5.00000000e-01)	7479	2.83614088e-08	(1.14047319e-02 4.00664797e-04 5.00000000e-01)	3
52              	-3.35990608e-04	(1.96867370e+00 4.00664797e-04 5.00000000e-01)	99	7.74249829e-07	(1.96867370e+00 9.10418368e-01 5.00000000e-01)	7479	5.56085100e+00	(1.96867370e+00 9.10418368e-01 5.00000000e-01)	7479	2.83616141e-08	(1.14047319e-02 4.00664797e-04 5.00000000e-01)	3
53              	-3.36713087e-04	(1.96867370e+00 4.00664797e-04 5.00000000e-01)	99	7.74051210e-07	(1.96867370e+00 9.10418368e-01 5.00000000e-01)	7479	5.56084914e+00	(1.96867370e+00 9.10418368e-01 5.00000000e-01)	7479	2.83618678e-08	(1.14047319e-02 4.00664797e-04 5.00000000e-01)	3
54              	-3.37295312e-04	(1.96867370e+00 4.00664797e-04 5.00000000e-01)	99	7.73929069e-07	(1.96867370e+00 9.10418368e-01 5.00000000e-01)	7479	5.56085382e+00	(1.96867370e+00 9.10418368e-01 5.00000000e-01)	7479	2.83620882e-08	(1.14047319e-02 4.00664797e-04 5.00000000e-01)	3
55              	-3.37939577e-04	(1.96867370e+00 4.00664797e-04 5.00000000e-01)	99	7.73854908e-07	(1.96867370e+00 9.10418368e-01 5.00000000e-01)	7479	5.56085976e+00	(1.96867370e+00 9.10418368e-01 5.00000000e-01)	7479	2.83622294e-08	(1.14047319e-02 4.00664797e-04 5.00000000e-01)	3
56              	-3.38426742e-04	(1.96867370e+00 4.00664797e-04 5.00000000e-01)	99	7.73810125e-07	(1.96867370e+00 9.10418368e-01 5.00000000e-01)	7479	5.56086261e+00	(1.96867370e+00 9.10418368e-01 5.00000000e-01)	7479	2.83622971e-08	(1.14047319e-02 4.00664797e-04 5.00000000e-01)	3
57              	-3.38606164e-04	(1.96867370e+00 4.00664797e-04 5.00000000e-01)	99	7.73782908e-07	(1.96867370e+00 9.10418368e-01 5.00000000e-01)	7479	5.56086001e+00	(1.96867370e+00 9.10418368e-01 5.00000000e-01)	7479	2.83623097e-08	(1.14047319e-02 4.00664797e-04 5.00000000e-01)	3
58              	-3.38463121e-04	(1.96867370e+00 4.00664797e-04 5.00000000e-01)	99	7.73766042e-07	(1.96867370e+00 9.10418368e-01 5.00000000e-01)	7479	5.56085194e+00	(1.96867370e+00 9.10418368e-01 5.00000000e-01)	7479	2.83623009e-08	(1.14047319e-02 4.00664797e-04 5.00000000e-01)	3
59              	-3.38128247e-04	(1.96867370e+00 4.00664797e-04 5.00000000e-01)	99	7.73755227e-07	(1.96867370e+00 9.10418368e-01 5.00000000e-01)	7479	5.56083959e+00	(1.96867370e+00 9.10418368e-01 5.00000000e-01)	7479	2.83624758e-08	(1.14047319e-02 4.00664797e-04 5.00000000e-01)	3
60              	-3.37661820e-04	(1.96867370e+00 4.00664797e-04 5.00000000e-01)	99	7.73747928e-07	(1.96867370e+00 9.10418368e-01 5.00000000e-01)	7479	5.56082428e+00	(1.96867370e+00 9.10418368e-01 5.00000000e-01)	7479	2.83627982e-08	(1.14047319e-02 4.00664797e-04 5.00000000e-01)	3
61              	-3.37116932e-04	(1.96867370e+00 4.00664797e-04 5.00000000e-01)	99	7.73742675e-07	(1.96867370e+00 9.10418368e-01 5.00000000e-01)	7479	5.56080723e+00	(1.96867370e+00 9.10418368e-01 5.00000000e-01)	7479	2.83629838e-08	(1.14047319e-02 4.00664797e-04 5.00000000e-01)	3
62              	-3.36481162e-04	(1.96867370e+00 4.00664797e-04 5.00000000e-01)	99	7.73738662e-07	(1.96867370e+00 9.10418368e-01 5.00000000e-01)	7479	5.56078974e+00	(1.96867370e+00 9.10418368e-01 5.00000000e-01)	7479	2.83632009e-08	(1.14047319e-02 4.00664797e-04 5.00000000e-01)	3
63              	-3.35768841e-04	(1.96867370e+00 4.00664797e-04 5.00000000e-01)	99	7.73735492e-07	(1.96867370e+00 9.10418368e-01 5.00000000e-01)	7479	5.56077312e+00	(1.96867370e+00 9.10418368e-01 5.00000000e-01)	7479	2.83633509e-08	(1.14047319e-02 4.00664797e-04 5.00000000e-01)	3
64              	-3.34961324e-04	(1.96867370e+00 4.00664797e-04 5.00000000e-01)	99	7.73733023e-07	(1.96867370e+00 9.10418368e-01 5.00000000e-01)	7479	5.56075885e+00	(1.96867370e+00 9.10418368e-01 5.00000000e-01)	7479	2.83634230e-08	(1.14047319e-02 4.00664797e-04 5.00000000e-01)	3
65              	-3.34110433e-04	(1.96867370e+00 4.00664797e-04 5.00000000e-01)	99	7.73731250e-07	(1.96867370e+00 9.10418368e-01 5.00000000e-01)	7479	5.56074832e+00	(1.96867370e+00 9.10418368e-01 5.00000000e-01)	7479	2.83633793e-08	(1.14047319e-02 4.00664797e-04 5.00000000e-01)	3
66              	-3.33164296e-04	(1.96867370e+00 4.00664797e-04 5.00000000e-01)	99	7.73730247e-07	(1.96867370e+00 9.10418368e-01 5.00000000e-01)	7479	5.56074289e+00	(1.96867370e+00 9.10418368e-01 5.00000000e-01)	7479	2.83632989e-08	(1.14047319e-02 4.00664797e-04 5.00000000e-01)	3
67              	-3.32274076e-04	(1.96867370e+00 4.00664797e-04 5.00000000e-01)	99	7.73730026e-07	(1.96867370e+00 9.10418368e-01 5.00000000e-01)	7479	5.56074303e+00	(1.96867370e+00 9.10418368e-01 5.00000000e-01)	7479	2.83633056e-08	(1.14047319e-02 4.00664797e-04 5.00000000e-01)	3
68              	-3.31104255e-04	(1.96867370e+00 4.00664797e-04 5.00000000e-01)	99	7.73730735e-07	(1.96867370e+00 9.10418368e-01 5.00000000e-01)	7479	5.56074997e+00	(1.96867370e+00 9.10418368e-01 5.00000000e-01)	7479	2.83633930e-08	(1.14047319e-02 4.00664797e-04 5.00000000e-01)	3
69              	-3.30068018e-04	(1.96867370e+00 4.00664797e-04 5.00000000e-01)	99	7.73732169e-07	(1.96867370e+00 9.10418368e-01 5.00000000e-01)	7479	5.56076212e+00	(1.96867370e+00 9.10418368e-01 5.00000000e-01)	7479	2.83637604e-08	(1.14047319e-02 4.00664797e-04 5.00000000e-01)	3
70              	-3.29085787e-04	(1.96867370e+00 4.00664797e-04 5.00000000e-01)	99	7.73734028e-07	(1.96867370e+00 9.10418368e-01 5.00000000e-01)	7479	5.56077716e+00	(1.96867370e+00 9.10418368e-01 5.00000000e-01)	7479	2.83641303e-08	(1.14047319e-02 4.00664797e-04 5.00000000e-01)	3
71              	-3.28338556e-04	(1.96867370e+00 4.00664797e-04 5.00000000e-01)	99	7.73735773e-07	(1.96867370e+00 9.10418368e-01 5.00000000e-01)	7479	5.56079100e+00	(1.96867370e+00 9.10418368e-01 5.00000000e-01)	7479	2.83645129e-08	(1.14047319e-02 4.00664797e-04 5.00000000e-01)	3
72              	-3.27560017e-04	(1.96867370e+00 4.00664797e-04 5.00000000e-01)	99	7.73736944e-07	(1.96867370e+00 9.10418368e-01 5.00000000e-01)	7479	5.56080018e+00	(1.96867370e+00 9.10418368e-01 5.00000000e-01)	7479	2.83648175e-08	(1.14047319e-02 4.00664797e-04 5.00000000e-01)	3
73              	-3.26655657e-04	(1.96867370e+00 4.00664797e-04 5.00000000e-01)	99	7.73737322e-07	(1.96867370e+00 9.10418368e-01 5.00000000e-01)	7479	5.56080312e+00	(1.96867370e+00 9.10418368e-01 5.00000000e-01)	7479	2.83650466e-08	(1.14047319e-02 4.00664797e-04 5.00000000e-01)	3
74              	-3.25662924e-04	(1.96867370e+00 4.00664797e-04 5.00000000e-01)	99	7.73736954e-07	(1.96867370e+00 9.10418368e-01 5.00000000e-01)	7479	5.56080023e+00	(1.96867370e+00 9.10418368e-01 5.00000000e-01)	7479	2.83651794e-08	(1.14047319e-02 4.00664797e-04 5.00000000e-01)	3
75              	-3.24675597e-04	(1.96867370e+00 4.00664797e-04 5.00000000e-01)	99	7.73736011e-07	(1.96867370e+00 9.10418368e-01 5.00000000e-01)	7479	5.56079284e+00	(1.96867370e+00 9.10418368e-01 5.00000000e-01)	7479	2.83652303e-08	(1.14047319e-02 4.00664797e-04 5.00000000e-01)	3
76              	-3.23751391e-04	(1.96867370e+00 4.00664797e-04 5.00000000e-01)	99	7.73734668e-07	(1.96867370e+00 9.10418368e-01 5.00000000e-01)	7479	5.56078232e+00	(1.96867370e+00 9.10418368e-01 5.00000000e-01)	7479	2.83652191e-08	(1.14047319e-02 4.00664797e-04 5.00000000e-01)	3
77              	-3.22923742e-04	(1.96867370e+00 4.00664797e-04 5.00000000e-01)	99	7.73733077e-07	(1.96867370e+00 9.10418368e-01 5.00000000e-01)	7479	5.56076988e+00	(1.96867370e+00 9.10418368e-01 5.00000000e-01)	7479	2.83651695e-08	(1.14047319e-02 4.00664797e-04 5.00000000e-01)	3
78              	-3.22147512e-04	(1.96867370e+00 4.00664797e-04 5.00000000e-01)	99	7.73731395e-07	(1.96867370e+00 9.10418368e-01 5.00000000e-01)	7479	5.56075679e+00	(1.96867370e+00 9.10418368e-01 5.00000000e-01)	7479	2.83650968e-08	(1.14047319e-02 4.00664797e-04 5.00000000e-01)	3
79              	-3.21420593e-04	(1.96867370e+00 4.00664797e-04 5.00000000e-01)	99	7.73729788e-07	(1.96867370e+00 9.10418368e-01 5.00000000e-01)	7479	5.56074442e+00	(1.96867370e+00 9.10418368e-01 5.00000000e-01)	7479	2.83649983e-08	(1.14047319e-02 4.00664797e-04 5.00000000e-01)	3
80              	-3.20721212e-04	(1.96867370e+00 4.00664797e-04 5.00000000e-01)	99	7.73728443e-07	(1.96867370e+00 9.10418368e-01 5.00000000e-01)	7479	5.56073425e+00	(1.96867370e+00 9.10418368e-01 5.00000000e-01)	7479	2.83648410e-08	(1.14047319e-02 4.00664797e-04 5.00000000e-01)	3
81              	-3.20090945e-04	(1.96867370e+00 4.00664797e-04 5.00000000e-01)	99	7.73727534e-07	(1.96867370e+00 9.10418368e-01 5.00000000e-01)	7479	5.56072764e+00	(1.96867370e+00 9.10418368e-01 5.00000000e-01)	7479	2.83646061e-08	(1.14047319e-02 4.00664797e-04 5.00000000e-01)	3
82              	-3.19456214e-04	(1.96867370e+00 4.00664797e-04 5.00000000e-01)	99	7.73727244e-07	(1.96867370e+00 9.10418368e-01 5.00000000e-01)	7479	5.56072597e+00	(1.96867370e+00 9.10418368e-01 5.00000000e-01)	7479	2.83643701e-08	(1.14047319e-02 4.00664797e-04 5.00000000e-01)	3
83              	-3.18963587e-04	(1.96867370e+00 4.00664797e-04 5.00000000e-01)	99	7.73727636e-07	(1.96867370e+00 9.10418368e-01 5.00000000e-01)	7479	5.56072966e+00	(1.96867370e+00 9.10418368e-01 5.00000000e-01)	7479	2.83642913e-08	(1.14047319e-02 4.00664797e-04 5.00000000e-01)	3
84              	-3.18251486e-04	(1.96867370e+00 4.00664797e-04 5.00000000e-01)	99	7.73728863e-07	(1.96867370e+00 9.10418368e-01 5.00000000e-01)	7479	5.56073972e+00	(1.96867370e+00 9.10418368e-01 5.00000000e-01)	7479	2.83643205e-08	(1.14047319e-02 4.00664797e-04 5.00000000e-01)	3
85              	-3.17756864e-04	(1.96867370e+00 4.00664797e-04 5.00000000e-01)	99	7.73730712e-07	(1.96867370e+00 9.10418368e-01 5.00000000e-01)	7479	5.56075437e+00	(1.96867370e+00 9.10418368e-01 5.00000000e-01)	7479	2.83645973e-08	(1.14047319e-02 4.00664797e-04 5.00000000e-01)	3
86              	-3.17380585e-04	(1.96867370e+00 4.00664797e-04 5.00000000e-01)	99	7.73732845e-07	(1.96867370e+00 9.10418368e-01 5.00000000e-01)	7479	5.56077094e+00	(1.96867370e+00 9.10418368e-01 5.00000000e-01)	7479	2.83648718e-08	(1.14047319e-02 4.00664797e-04 5.00000000e-01)	3
87              	-3.17206865e-04	(1.96867370e+00 4.00664797e-04 5.00000000e-01)	99	7.73734730e-07	(1.96867370e+00 9.10418368e-01 5.00000000e-01)	7479	5.56078538e+00	(1.96867370e+00 9.10418368e-01 5.00000000e-01)	7479	2.83651604e-08	(1.14047319e-02 4.00664797e-04 5.00000000e-01)	3
88              	-3.16974263e-04	(1.96867370e+00 4.00664797e-04 5.00000000e-01)	99	7.73735957e-07	(1.96867370e+00 9.10418368e-01 5.00000000e-01)	7479	5.56079458e+00	(1.96867370e+00 9.10418368e-01 5.00000000e-01)	7479	2.83653942e-08	(1.14047319e-02 4.00664797e-04 5.00000000e-01)	3
89              	-3.16621097e-04	(1.96867370e+00 4.00664797e-04 5.00000000e-01)	99	7.73736365e-07	(1.96867370e+00 9.10418368e-01 5.00000000e-01)	7479	5.56079740e+00	(1.96867370e+00 9.10418368e-01 5.00000000e-01)	7479	2.83655358e-08	(1.14047319e-02 4.00664797e-04 5.00000000e-01)	3
90              	-3.16204268e-04	(1.96867370e+00 4.00664797e-04 5.00000000e-01)	99	7.73736040e-07	(1.96867370e+00 9.10418368e-01 5.00000000e-01)	7479	5.56079453e+00	(1.96867370e+00 9.10418368e-01 5.00000000e-01)	7479	2.83655871e-08	(1.14047319e-02 4.00664797e-04 5.00000000e-01)	3
91              	-3.15814122e-04	(1.96867370e+00 4.00664797e-04 5.00000000e-01)	99	7.73735155e-07	(1.96867370e+00 9.10418368e-01 5.00000000e-01)	7479	5.56078731e+00	(1.96867370e+00 9.10418368e-01 5.00000000e-01)	7479	2.83655694e-08	(1.14047319e-02 4.00664797e-04 5.00000000e-01)	3
92              	-3.15490753e-04	(1.96867370e+00 4.00664797e-04 5.00000000e-01)	99	7.73733877e-07	(1.96867370e+00 9.10418368e-01 5.00000000e-01)	7479	5.56077705e+00	(1.96867370e+00 9.10418368e-01 5.00000000e-01)	7479	2.83655021e-08	(1.14047319e-02 4.00664797e-04 5.00000000e-01)	3
93              	-3.15242459e-04	(1.96867370e+00 4.00664797e-04 5.00000000e-01)	99	7.73732361e-07	(1.96867370e+00 9.10418368e-01 5.00000000e-01)	7479	5.56076500e+00	(1.96867370e+00 9.10418368e-01 5.00000000e-01)	7479	2.83654092e-08	(1.14047319e-02 4.00664797e-04 5.00000000e-01)	3
94              	-3.15014418e-04	(1.96867370e+00 4.00664797e-04 5.00000000e-01)	99	7.73730771e-07	(1.96867370e+00 9.10418368e-01 5.00000000e-01)	7479	5.56075249e+00	(1.96867370e+00 9.10418368e-01 5.00000000e-01)	7479	2.83653002e-08	(1.14047319e-02 4.00664797e-04 5.00000000e-01)	3
95              	-3.14822778e-04	(1.96867370e+00 4.00664797e-04 5.00000000e-01)	99	7.73729272e-07	(1.96867370e+00 9.10418368e-01 5.00000000e-01)	7479	5.56074087e+00	(1.96867370e+00 9.10418368e-01 5.00000000e-01)	7479	2.83651659e-08	(1.14047319e-02 4.00664797e-04 5.00000000e-01)	3
96              	-3.14627448e-04	(1.96867370e+00 4.00664797e-04 5.00000000e-01)	99	7.73728057e-07	(1.96867370e+00 9.10418368e-01 5.00000000e-01)	7479	5.56073165e+00	(1.96867370e+00 9.10418368e-01 5.00000000e-01)	7479	2.83649693e-08	(1.14047319e-02 4.00664797e-04 5.00000000e-01)	3
97              	-3.14472676e-04	(1.96867370e+00 4.00664797e-04 5.00000000e-01)	99	7.73727298e-07	(1.96867370e+00 9.10418368e-01 5.00000000e-01)	7479	5.56072617e+00	(1.96867370e+00 9.10418368e-01 5.00000000e-01)	7479	2.83647190e-08	(1.14047319e-02 4.00664797e-04 5.00000000e-01)	3
98              	-3.14304753e-04	(1.96867370e+00 4.00664797e-04 5.00000000e-01)	99	7.73727168e-07	(1.96867370e+00 9.10418368e-01 5.00000000e-01)	7479	5.56072572e+00	(1.96867370e+00 9.10418368e-01 5.00000000e-01)	7479	2.83644609e-08	(1.14047319e-02 4.00664797e-04 5.00000000e-01)	3
99              	-3.14182306e-04	(1.96867370e+00 4.00664797e-04 5.00000000e-01)	99	7.73727759e-07	(1.96867370e+00 9.10418368e-01 5.00000000e-01)	7479	5.56073091e+00	(1.96867370e+00 9.10418368e-01 5.00000000e-01)	7479	2.83643865e-08	(1.14047319e-02 4.00664797e-04 5.00000000e-01)	3
100             	-3.13898585e-04	(1.96867370e+00 4.00664797e-04 5.00000000e-01)	99	7.73729145e-07	(1.96867370e+00 9.10418368e-01 5.00000000e-01)	7479	5.56074214e+00	(1.96867370e+00 9.10418368e-01 5.00000000e-01)	7479	2.83644849e-08	(1.14047319e-02 4.00664797e-04 5.00000000e-01)	3
101             	-3.13769168e-04	(1.96867370e+00 4.00664797e-04 5.00000000e-01)	99	7.73731108e-07	(1.96867370e+00 9.10418368e-01 5.00000000e-01)	7479	5.56075760e+00	(1.96867370e+00 9.10418368e-01 5.00000000e-01)	7479	2.83647519e-08	(1.14047319e-02 4.00664797e-04 5.00000000e-01)	3
102             	-3.13806796e-04	(1.96867370e+00 4.00664797e-04 5.00000000e-01)	99	7.73733236e-07	(1.96867370e+00 9.10418368e-01 5.00000000e-01)	7479	5.56077408e+00	(1.96867370e+00 9.10418368e-01 5.00000000e-01)	7479	2.83650280e-08	(1.14047319e-02 4.00664797e-04 5.00000000e-01)	3
103             	-3.13931852e-04	(1.96867370e+00 4.00664797e-04 5.00000000e-01)	99	7.73735008e-07	(1.96867370e+00 9.10418368e-01 5.00000000e-01)	7479	5.56078758e+00	(1.96867370e+00 9.10418368e-01 5.00000000e-01)	7479	2.83652870e-08	(1.14047319e-02 4.00664797e-04 5.00000000e-01)	3
104             	-3.13953398e-04	(1.96867370e+00 4.00664797e-04 5.00000000e-01)	99	7.73736056e-07	(1.96867370e+00 9.10418368e-01 5.00000000e-01)	7479	5.56079537e+00	(1.96867370e+00 9.10418368e-01 5.00000000e-01)	7479	2.83654761e-08	(1.14047319e-02 4.00664797e-04 5.00000000e-01)	3
105             	-3.13843317e-04	(1.96867370e+00 4.00664797e-04 5.00000000e-01)	99	7.73736284e-07	(1.96867370e+00 9.10418368e-01 5.00000000e-01)	7479	5.56079677e+00	(1.96867370e+00 9.10418368e-01 5.00000000e-01)	7479	2.83655872e-08	(1.14047319e-02 4.00664797e-04 5.00000000e-01)	3