/*--------------------------------*- C++ -*----------------------------------*\
  =========                 |
  \\      /  F ield         | OpenFOAM: The Open Source CFD Toolbox
   \\    /   O peration     | Website:  https://openfoam.org
    \\  /    A nd           | Version:  12
     \\/     M anipulation  |
\*---------------------------------------------------------------------------*/
FoamFile
{
    format      ascii;
    class       volScalarField;
    location    "600";
    object      epsilon;
}
// * * * * * * * * * * * * * * * * * * * * * * * * * * * * * * * * * * * * * //

dimensions      [0 2 -3 0 0 0 0];

internalField   nonuniform List<scalar> 
13056
(
0.0035268134
0.0032784663
0.0031843952
0.0031532985
0.0031389559
0.0031300176
0.0031238401
0.0031194567
0.0031163255
0.0031141051
0.0031125752
0.0031115916
0.003111059
0.0031109152
0.003111122
0.0031116589
0.003112531
0.0031137507
0.0031154048
0.0031176925
0.0031195498
0.0031339168
0.0030761593
0.0043723344
66.978509
82.513919
76.542234
70.288904
65.388445
61.328356
57.883104
54.949884
52.441992
50.275023
48.379335
46.704536
45.214575
43.87779
42.66739
41.564554
40.554336
39.623975
38.763183
37.963495
37.217794
36.519967
35.864789
35.247738
34.665052
34.113442
33.589938
33.092042
32.617588
32.164574
31.731209
31.315975
30.917503
30.534496
30.165807
29.810444
29.467495
29.136094
28.815454
28.504891
28.203776
27.911508
27.627524
27.351324
27.082455
26.820488
26.565015
26.31565
26.072051
25.833899
25.60089
25.37273
25.149144
24.929881
24.714707
24.503393
24.295721
24.09148
23.890479
23.692534
23.497467
23.305105
23.11528
22.927835
22.742619
22.559485
22.378286
22.19888
22.02113
21.844903
21.670067
21.496491
21.324043
21.152596
20.982022
20.812195
20.642982
20.474254
20.30588
20.137728
19.969659
19.801534
19.633209
19.464538
19.295368
19.12554
18.954893
18.783251
18.610529
18.440039
18.276888
18.122434
17.975963
17.836828
17.704436
17.578255
17.45781
17.342676
17.232474
17.126861
17.025525
16.928179
16.834561
16.744418
16.657534
16.573615
16.492602
16.413672
16.338038
16.261081
16.194971
16.08548
0.0035240958
0.0032757754
0.0031816468
0.0031505098
0.003136148
0.0031271985
0.003121013
0.0031166236
0.0031134877
0.0031112637
0.0031097309
0.003108745
0.0031082107
0.0031080656
0.0031082716
0.0031088081
0.0031096803
0.0031109006
0.003112556
0.003114846
0.0031167021
0.0031311202
0.0030730658
0.0043623413
38.473281
44.63478
40.881343
37.314423
34.579231
32.338338
30.449691
28.849539
27.486673
26.312792
25.288615
24.385906
23.584492
22.86676
22.217936
21.627656
21.087681
20.591006
20.131994
19.706017
19.309187
18.938173
18.590134
18.262613
17.95357
17.66122
17.383956
17.120428
16.869462
16.62998
16.401015
16.181749
15.971444
15.769403
15.575008
15.387727
15.20707
15.032572
14.863812
14.700421
14.542065
14.388419
14.239185
14.094094
13.952904
13.815386
13.681321
13.550505
13.422754
13.2979
13.175779
13.056235
12.939122
12.824307
12.711664
12.601073
12.492417
12.385585
12.280475
12.176991
12.075037
11.974522
11.875357
11.777459
11.680749
11.585148
11.49058
11.396969
11.304244
11.212334
11.121171
11.030684
10.940806
10.851469
10.762606
10.674152
10.586036
10.498193
10.410552
10.323046
10.235602
10.148148
10.060609
9.9729086
9.884968
9.7967048
9.7080361
9.6188702
9.5291639
9.4406376
9.3559409
9.2757773
9.1997734
9.1275911
9.0589206
8.9934837
8.9310328
8.8713466
8.8142269
8.7594946
8.7069872
8.6565553
8.6080625
8.5613764
8.5163846
8.4729342
8.4309947
8.3901384
8.3509946
8.3111688
8.2769657
8.2203256
0.0035138694
0.003265213
0.0031707425
0.0031394323
0.0031249859
0.0031159839
0.0031097609
0.0031053431
0.0031021854
0.003099944
0.0030983974
0.0030974003
0.003096857
0.0030967045
0.0030969046
0.0030974367
0.0030983058
0.0030995242
0.003101179
0.0031034712
0.0031053209
0.0031198304
0.0030612166
0.0043425015
35.6743
37.295016
33.37035
30.150468
27.768033
25.850144
24.249521
22.902274
21.760626
20.781361
19.929991
19.18195
18.519709
17.928053
17.394382
16.909873
16.467493
16.061291
15.6865
15.339207
15.016136
14.714482
14.431862
14.166222
13.915853
13.679263
13.455113
13.242277
13.03978
12.846723
12.662306
12.48585
12.316742
12.154407
11.998335
11.848085
11.703253
11.563455
11.428345
11.29762
11.171004
11.048231
10.929056
10.813257
10.700638
10.59101
10.484194
10.380023
10.278347
10.179029
10.081934
9.9869357
9.8939154
9.8027643
9.7133806
9.6256661
9.5395263
9.4548712
9.3716181
9.2896884
9.2090058
9.1294961
9.0510879
8.9737142
8.8973111
8.8218158
8.7471662
8.6733023
8.6001665
8.527703
8.4558563
8.3845712
8.3137929
8.2434685
8.1735452
8.1039698
8.0346885
7.9656476
7.8967933
7.8280713
7.7594255
7.6907986
7.6221326
7.5533679
7.4844429
7.4152935
7.3458555
7.2760581
7.2058683
7.1366331
7.0704228
7.0077842
6.9484216
6.8920672
6.8384755
6.7874269
6.7387258
6.6921973
6.6476852
6.605048
6.5641577
6.5248965
6.4871567
6.4508342
6.4158404
6.3820553
6.3494544
6.3177038
6.2872943
6.2563579
6.2298049
6.185846
0.0034959428
0.0032465914
0.0031514857
0.0031198647
0.0031052656
0.0030961683
0.0030898771
0.0030854079
0.0030822103
0.0030799375
0.0030783655
0.0030773479
0.0030767878
0.0030766216
0.0030768107
0.003077334
0.0030781963
0.0030794102
0.0030810622
0.0030833557
0.0030851933
0.0030998112
0.0030404219
0.0043130352
36.134927
34.805125
30.548743
27.414438
25.163936
23.376796
21.894786
20.651637
19.60058
18.700521
17.919039
17.233186
16.626593
16.08507
15.59696
15.154114
14.750011
14.37915
14.037134
13.720353
13.425786
13.150852
12.893359
12.651419
12.423462
12.208117
12.004155
11.810542
11.626385
11.450857
11.283226
11.122871
10.96923
10.821774
10.680038
10.543619
10.412146
10.285269
10.16267
10.044073
9.9292241
9.8178819
9.7098207
9.6048402
9.502759
9.4034053
9.3066154
9.2122372
9.1201341
9.0301795
8.9422521
8.8562357
8.772022
8.689512
8.6086129
8.5292351
8.4512922
8.3747026
8.299391
8.2252857
8.1523173
8.080418
8.009523
7.9395716
7.8705055
7.8022675
7.7348014
7.6680526
7.601969
7.5364998
7.4715948
7.4072036
7.3432771
7.2797671
7.2166259
7.1538054
7.091257
7.0289321
6.9667825
6.9047589
6.8428109
6.7808869
6.7189348
6.656901
6.5947302
6.532365
6.4697477
6.4068155
6.3435386
6.2811331
6.2214653
6.165027
6.111551
6.0607943
6.0125348
5.9665733
5.9227331
5.8808561
5.8408009
5.8024397
5.7656565
5.730345
5.6964076
5.6637502
5.6322927
5.6019266
5.5726297
5.5441009
5.5167834
5.4889906
5.4651486
5.425685
0.0034700299
0.0032196257
0.0031235772
0.0030914992
0.0030766748
0.0030674369
0.0030610449
0.0030564997
0.0030532431
0.0030509236
0.0030493142
0.003048266
0.0030476809
0.0030474941
0.0030476664
0.0030481761
0.0030490278
0.0030502339
0.0030518803
0.0030541741
0.0030559928
0.0030707366
0.003010347
0.0042729065
36.060277
33.046569
28.59127
25.545128
23.412846
21.738816
20.357462
19.201337
18.225039
17.389623
16.664619
16.028563
15.46615
14.964121
14.511647
14.101164
13.726599
13.382844
13.065816
12.772167
12.499094
12.244203
12.005464
11.781128
11.56974
11.37003
11.180858
11.00127
10.830435
10.66759
10.512056
10.363258
10.220677
10.083822
9.9522626
9.8256264
9.7035694
9.5857666
9.4719251
9.3617891
9.2551235
9.1517039
9.0513217
8.9537915
8.8589454
8.766624
8.6766756
8.5889593
8.5033487
8.4197266
8.3379802
8.2580019
8.1796913
8.1029568
8.0277123
7.9538745
7.8813633
7.8101031
7.7400239
7.6710594
7.6031449
7.5362174
7.470217
7.4050872
7.3407737
7.2772236
7.2143843
7.1522052
7.0906379
7.0296351
6.96915
6.9091359
6.8495467
6.7903378
6.7314647
6.6728825
6.6145459
6.5564097
6.4984287
6.4405572
6.382748
6.324953
6.2671236
6.2092098
6.1511597
6.09292
6.034437
5.9756518
5.9165369
5.8582296
5.8024753
5.7497351
5.69976
5.6523236
5.6072185
5.5642592
5.5232809
5.4841365
5.446694
5.4108344
5.3764495
5.3434399
5.3117148
5.2811862
5.2517793
5.2233928
5.196006
5.1693367
5.1438017
5.1178172
5.0955345
5.0586526
0.0034357755
0.0031839603
0.0030866423
0.0030539494
0.0030388212
0.0030293933
0.0030228653
0.0030182173
0.0030148811
0.0030124985
0.0030108382
0.0030097486
0.0030091294
0.0030089144
0.0030090634
0.0030095541
0.0030103906
0.0030115851
0.0030132225
0.0030155148
0.0030173066
0.003032194
0.0029705664
0.0042207692
35.094283
31.377436
26.843248
23.899969
21.885622
20.320479
19.034765
17.960779
17.054734
16.27988
15.60767
15.018065
14.496789
14.031489
13.612118
13.231658
12.884468
12.565808
12.271895
11.999625
11.7464
11.510004
11.288556
11.080439
10.884305
10.698979
10.523406
10.356701
10.198098
10.046889
9.9024461
9.7642381
9.6317831
9.5046283
9.3823754
9.2646791
9.1512214
9.0417012
8.9358475
8.8334237
8.7342122
8.6380049
8.5446087
8.4538522
8.3655798
8.2796439
8.1959037
8.1142288
8.0345022
7.9566152
7.8804633
7.8059466
7.7329718
7.6614544
7.5913144
7.5224744
7.4548601
7.3884011
7.3230327
7.2586933
7.1953225
7.1328621
7.071256
7.0104519
6.9503994
6.891049
6.8323518
6.7742605
6.7167302
6.6597169
6.6031766
6.5470657
6.4913415
6.435962
6.3808858
6.3260708
6.2714745
6.2170547
6.1627693
6.108575
6.0544278
6.0002825
5.9460935
5.8918139
5.8373949
5.7827865
5.727938
5.6727945
5.6173297
5.5626122
5.5102815
5.4607722
5.4138521
5.3693096
5.3269505
5.2866018
5.2481093
5.2113355
5.1761574
5.1424635
5.1101527
5.0791319
5.0493162
5.0206232
4.9929827
4.9662998
4.9405552
4.9154833
4.8914779
4.8670444
4.8460968
4.8114233
0.0033927876
0.0031392048
0.0030402667
0.0030067859
0.0029912672
0.0029815951
0.0029748921
0.0029701121
0.0029666734
0.0029642095
0.0029624837
0.0029613405
0.002960677
0.0029604253
0.0029605437
0.0029610092
0.0029618252
0.0029630035
0.0029646275
0.0029669154
0.002968671
0.0029837192
0.0029206016
0.0041551825
33.431988
29.721978
25.194787
22.361621
20.462202
19.000737
17.805354
16.808673
15.968617
15.25059
14.627892
14.081831
13.599107
13.168236
12.779903
12.427594
12.106077
11.810959
11.538736
11.286533
11.051944
10.832919
10.627718
10.434846
10.253055
10.081258
9.9184799
9.7639018
9.6168149
9.4765653
9.3425725
9.2143449
9.0914372
8.9734306
8.859957
8.7506972
8.6453571
8.5436579
8.4453493
8.3502124
8.2580461
8.1686576
8.0818682
7.9975195
7.9154678
7.8355761
7.7577141
7.6817612
7.6076091
7.5351571
7.4643086
7.3949707
7.3270573
7.2604899
7.1951945
7.1310994
7.0681354
7.0062374
6.9453455
6.8854023
6.8263521
6.7681404
6.7107153
6.6540282
6.5980324
6.5426816
6.4879304
6.433735
6.3800533
6.3268443
6.2740673
6.2216815
6.1696469
6.1179246
6.0664757
6.015261
5.9642407
5.9133753
5.8626255
5.8119509
5.76131
5.7106606
5.6599599
5.6091641
5.5582272
5.5071023
5.455742
5.4040946
5.3521353
5.3008664
5.2518257
5.2054219
5.1614387
5.1196784
5.07996
5.0421217
5.00602
4.9715265
4.9385263
4.9069155
4.8765997
4.8474919
4.8195126
4.7925848
4.766643
4.7415981
4.7174325
4.6938963
4.671361
4.6484189
4.6287529
4.5961997
0.0033406748
0.003084974
0.0029840375
0.0029495775
0.0029335717
0.0029235951
0.002916674
0.0029117293
0.0029081625
0.0029055971
0.0029037891
0.0029025787
0.0029018595
0.0029015613
0.0029016409
0.0029020739
0.0029028628
0.0029040193
0.0029056244
0.0029079039
0.0029096121
0.0029248366
0.0028599661
0.0040746787
31.29191
28.084901
23.625947
20.904981
19.115569
17.751826
16.64113
15.716763
14.938359
14.273391
13.69691
13.191489
12.744745
12.346018
11.98667
11.660657
11.363126
11.090012
10.838068
10.604635
10.387484
10.184721
9.994736
9.8161465
9.6477988
9.4886879
9.337911
9.1947125
9.0584371
8.9284801
8.8043051
8.6854582
8.5715276
8.4621263
8.3569141
8.2555963
8.1579008
8.0635699
7.9723723
7.8841057
7.7985843
7.7156298
7.6350767
7.5567788
7.4806032
7.4064233
7.3341184
7.2635768
7.1946987
7.1273908
7.0615636
6.9971312
6.9340137
6.8721388
6.8114377
6.7518441
6.6932939
6.6357266
6.5790869
6.5233216
6.4683789
6.4142083
6.3607616
6.3079939
6.2558616
6.2043219
6.1533325
6.1028526
6.0528433
6.0032664
5.954084
5.905258
5.8567512
5.8085274
5.7605505
5.7127837
5.66519
5.6177325
5.5703745
5.5230782
5.475805
5.4285153
5.3811691
5.3337254
5.2861412
5.2383725
5.1903749
5.1421002
5.0935247
5.0455869
4.9997259
4.956325
4.9151829
4.8761153
4.8389534
4.8035468
4.7697614
4.737478
4.7065893
4.6769985
4.6486176
4.6213656
4.5951681
4.5699534
4.5456603
4.5222054
4.4995727
4.4775275
4.4564193
4.4349256
4.4165031
4.3860076
0.0032790876
0.0030209336
0.0029175897
0.0028819381
0.0028653367
0.002854988
0.0028478005
0.0028426543
0.0028389309
0.0028362409
0.0028343322
0.002833039
0.002832251
0.0028318953
0.0028319262
0.0028323182
0.0028330724
0.0028342
0.0028357792
0.0028380448
0.0028396922
0.0028551057
0.0027882163
0.0039778207
28.839296
26.476486
22.131796
19.522181
17.837024
16.564943
15.533404
14.676529
13.955617
13.340108
12.806701
12.33915
11.925934
11.55717
11.224848
10.923355
10.648199
10.395614
10.162598
9.946687
9.745822
9.5582499
9.382485
9.2172475
9.0614714
8.9142276
8.7746816
8.6421355
8.5159839
8.3956679
8.2806925
8.1706382
8.0651249
7.9637946
7.8663336
7.7724696
7.6819513
7.5945403
7.510023
7.4282129
7.348938
7.2720335
7.1973465
7.1247421
7.0540975
6.9852955
6.9182246
6.8527815
6.7888739
6.7264159
6.6653244
6.6055199
6.5469285
6.4894835
6.4331213
6.3777805
6.3234015
6.2699285
6.2173102
6.1654976
6.1144425
6.064098
6.0144196
5.9653657
5.9168958
5.8689702
5.8215497
5.7745963
5.728074
5.6819474
5.6361811
5.5907397
5.5455888
5.5006946
5.4560235
5.4115414
5.3672136
5.3230059
5.278884
5.2348128
5.1907561
5.1466771
5.1025386
5.058302
5.0139274
4.9693735
4.9245989
4.8795587
4.8342303
4.7894909
4.7466845
4.7061699
4.6677596
4.6312822
4.5965806
4.5635147
4.53196
4.5018054
4.4729512
4.4453072
4.4187915
4.3933287
4.3688494
4.3452869
4.3225841
4.3006632
4.2795094
4.2589029
4.2391715
4.219076
4.2018524
4.1733416
0.0032077626
0.00294685
0.0028406569
0.0028035771
0.0027862579
0.002775461
0.0027679525
0.0027625636
0.0027586512
0.0027558108
0.0027537802
0.0027523866
0.0027515149
0.0027510885
0.0027510596
0.0027514003
0.0027521106
0.0027532006
0.0027547451
0.0027569892
0.0027585601
0.0027741702
0.0027050088
0.0038632828
26.1948
24.902841
20.709794
18.209032
16.622094
15.435782
14.478151
13.684239
13.016934
12.447529
11.954269
11.522011
11.140042
10.799211
10.492089
10.213463
9.9591754
9.7257444
9.51039
9.3108354
9.1251755
8.9517912
8.7893103
8.6365494
8.4925238
8.3563753
8.2273324
8.104751
7.9880723
7.87678
7.7704171
7.6685968
7.5709678
7.4771996
7.3870029
7.3001264
7.2163379
7.1354172
7.0571671
6.9814156
6.908004
6.8367799
6.7676019
6.7003457
6.6348981
6.5711508
6.5090004
6.4483516
6.3891195
6.3312245
6.2745899
6.219142
6.1648127
6.1115404
6.0592662
6.0079334
5.9574867
5.9078747
5.8590499
5.8109669
5.7635813
5.7168495
5.6707302
5.625185
5.5801766
5.535668
5.4916228
5.4480059
5.4047839
5.3619241
5.3193934
5.2771592
5.2351894
5.1934527
5.1519178
5.1105531
5.0693263
5.0282056
4.9871592
4.9461543
4.9051573
4.8641339
4.8230495
4.7818681
4.7405524
4.6990641
4.6573645
4.6154116
4.5731844
4.531501
4.4916147
4.4538602
4.4180634
4.3840648
4.3517184
4.3208941
4.291476
4.2633609
4.2364563
4.2106783
4.1859507
4.1622033
4.1393717
4.1173937
4.0962163
4.0757668
4.0560316
4.0368053
4.0183947
3.9996408
3.9835666
3.9569591
0.0031265676
0.0028626388
0.0027531235
0.0027143527
0.0026961779
0.0026848469
0.0026769563
0.0026712781
0.0026671402
0.0026641201
0.0026619434
0.0026604292
0.0026594566
0.0026589447
0.0026588426
0.0026591201
0.0026597753
0.0026608171
0.0026623158
0.0026645282
0.0026660044
0.0026818107
0.0026101628
0.0037299625
23.449322
23.366169
19.357672
16.962549
15.467745
14.361549
13.472881
12.737704
12.120392
11.593977
11.138153
10.738802
10.385969
10.071191
9.7875773
9.5302854
9.2954722
9.0799182
8.8810524
8.6967704
8.5253116
8.3651817
8.2151135
8.0740137
7.9409733
7.8151997
7.6959802
7.5827209
7.4749063
7.3720594
7.273759
7.1796485
7.0894036
7.0027194
6.919329
6.839001
6.7615208
6.6866852
6.6143124
6.5442438
6.476333
6.4104393
6.346432
6.2841968
6.2236292
6.1646292
6.1071013
6.0509574
5.9961194
5.9425139
5.8900699
5.8387194
5.7883995
5.7390533
5.6906266
5.6430669
5.596323
5.5503475
5.5050965
5.4605283
5.4166015
5.3732758
5.3305132
5.2882782
5.2465362
5.205253
5.1643949
5.1239293
5.0838254
5.044053
5.0045814
4.9653803
4.9264199
4.8876713
4.8491056
4.8106932
4.7724043
4.7342094
4.696079
4.6579826
4.6198889
4.581766
4.5435819
4.5053031
4.4668949
4.4283216
4.3895472
4.3505326
4.3112581
4.2724855
4.2353818
4.2002583
4.1669533
4.1353189
4.1052194
4.0765339
4.0491551
4.0229872
3.997944
3.973948
3.9509282
3.9288194
3.9075618
3.8870976
3.8673776
3.848334
3.8299545
3.812047
3.7948986
3.777427
3.7624505
3.7376611
0.0030355479
0.0027684091
0.0026550783
0.0026143261
0.0025951407
0.0025831793
0.0025748376
0.0025688178
0.0025644132
0.0025611801
0.0025588301
0.0025571724
0.0025560791
0.0025554645
0.0025552737
0.0025554739
0.0025560605
0.0025570411
0.0025584803
0.0025606482
0.0025620086
0.0025779988
0.002503727
0.0035771195
20.67573
21.865539
18.073248
15.780477
14.371772
13.340272
12.515901
11.835493
11.264802
10.778476
10.357564
9.9889019
9.663244
9.3727713
9.1110927
8.8737103
8.6570744
8.4582101
8.2747411
8.1047234
7.9465308
7.7987856
7.6603182
7.5301191
7.4073497
7.2912786
7.1812479
7.0767102
6.9771902
6.8822479
6.7914953
6.7046038
6.6212743
6.5412255
6.4642119
6.3900202
6.3184525
6.2493212
6.1824588
6.1177195
6.0549683
5.9940752
5.9349198
5.8773966
5.8214098
5.7668668
5.7136795
5.6617668
5.6110566
5.5614816
5.5129759
5.4654769
5.4189264
5.3732722
5.3284644
5.2844543
5.2411947
5.1986418
5.1567553
5.1154965
5.0748273
5.0347106
4.9951109
4.9559958
4.9173332
4.8790916
4.8412397
4.8037475
4.7665865
4.7297287
4.6931458
4.6568097
4.6206928
4.5847685
4.54901
4.5133898
4.4778804
4.4424544
4.4070844
4.3717424
4.3363991
4.3010251
4.2655906
4.2300646
4.1944148
4.158608
4.1226108
4.086387
4.0499179
4.0139121
3.9794539
3.9468327
3.9158982
3.8865133
3.8585522
3.8319028
3.8064656
3.7821517
3.7588814
3.7365827
3.7151897
3.694642
3.6748842
3.6558624
3.6375311
3.6198273
3.6027398
3.5860892
3.5701436
3.5538942
3.5399633
3.5169059
0.0029349604
0.0026645156
0.0025468658
0.0025038144
0.0024834451
0.0024707454
0.002461876
0.0024554559
0.0024507385
0.0024472552
0.002444701
0.0024428736
0.0024416372
0.0024408999
0.0024406025
0.0024407088
0.0024412109
0.0024421149
0.0024434779
0.0024455848
0.0024468059
0.0024629511
0.0023860493
0.0034045353
17.936407
20.397488
16.854381
14.66111
13.33258
12.370569
11.606063
10.976682
10.44944
10.000482
9.6121156
9.2720664
8.9717475
8.7039434
8.4627281
8.2439218
8.0442495
7.8609638
7.6918692
7.5351716
7.38937
7.2531946
7.1255672
7.0055558
6.8923877
6.7853885
6.683951
6.5875712
6.4958113
6.4082656
6.3245769
6.2444429
6.167588
6.0937528
6.0227115
5.9542682
5.88824
5.8244542
5.7627566
5.7030132
5.6450996
5.5888959
5.5342909
5.4811882
5.4294993
5.3791389
5.3300256
5.2820849
5.2352506
5.1894604
5.144654
5.1007731
5.0577646
5.0155802
4.9741741
4.9335012
4.8935181
4.8541843
4.8154629
4.7773182
4.739715
4.7026189
4.6659974
4.6298205
4.5940588
4.558683
4.5236643
4.4889749
4.4545887
4.4204798
4.3866222
4.3529895
4.3195566
4.2862989
4.2531915
4.2202091
4.1873261
4.1545173
4.1217575
4.0890205
4.0562794
4.0235069
3.9906754
3.9577562
3.9247194
3.8915342
3.8581697
3.8245922
3.7907841
3.7574035
3.7254562
3.6952104
3.6665267
3.6392781
3.6133482
3.5886332
3.5650408
3.5424889
3.5209037
3.5002182
3.4803718
3.4613083
3.4429763
3.4253261
3.4083153
3.3918856
3.3760266
3.3605714
3.3457695
3.3306826
3.3177458
3.296335
0.0028253029
0.0025515973
0.0024291321
0.0023834388
0.0023616936
0.0023481364
0.0023386544
0.0023317693
0.0023266878
0.0023229126
0.0023201196
0.0023180933
0.0023166883
0.0023158059
0.0023153814
0.0023153744
0.0023157735
0.0023165824
0.0023178494
0.0023198751
0.0023209311
0.002337179
0.0022578471
0.0032126778
15.284218
18.957696
15.698826
13.603122
12.34901
11.45147
10.7426
10.160694
9.6738995
9.2597388
8.9016855
8.5882911
8.311581
8.0649029
7.842763
7.6412765
7.4574237
7.2886694
7.1329861
6.9887188
6.8544828
6.729109
6.6116039
6.5011079
6.3969094
6.2983869
6.2049804
6.1162263
6.0317217
5.9510928
5.8740111
5.8001987
5.7294016
5.6613811
5.5959299
5.5328677
5.4720263
5.4132463
5.3563862
5.3013228
5.2479417
5.1961324
5.1457926
5.0968336
5.0491744
5.0027361
4.957444
4.9132292
4.8700312
4.8277929
4.7864583
4.7459739
4.7062908
4.6673648
4.6291536
4.5916158
4.5547113
4.5184027
4.4826563
4.4474392
4.412719
4.3784638
4.3446439
4.3112316
4.2781999
4.2455218
4.2131705
4.1811207
4.1493483
4.1178293
4.0865398
4.0554556
4.0245533
3.9938103
3.9632038
3.9327103
3.9023062
3.8719683
3.8416732
3.8113969
3.7811145
3.7508006
3.7204298
3.6899758
3.6594107
3.628706
3.5978331
3.5667609
3.5354728
3.5045789
3.4750106
3.4470158
3.4204655
3.3952421
3.3712381
3.3483574
3.3265147
3.3056341
3.2856473
3.2664925
3.2481134
3.2304581
3.2134792
3.1971306
3.1813731
3.1661525
3.1514597
3.1371391
3.1234227
3.1094395
3.0974459
3.0775977
0.0027073309
0.0024306054
0.0023028607
0.0022541634
0.0022308332
0.0022162882
0.0022061013
0.0021986806
0.0021931789
0.0021890662
0.0021859963
0.0021837386
0.0021821367
0.0021810837
0.0021805088
0.0021803667
0.0021806413
0.0021813336
0.0021824816
0.002184402
0.002185266
0.0022015329
0.0021202737
0.0030028543
12.768545
17.538451
14.604022
12.605377
11.420171
10.582267
9.9249837
9.387167
8.9379654
8.5561595
8.2263017
7.9377061
7.6829655
7.4559508
7.2515708
7.0662137
6.8970965
6.7418812
6.5986963
6.4660159
6.3425633
6.2272629
6.1191998
6.0175814
5.9217533
5.8311429
5.7452342
5.663601
5.5858727
5.511705
5.4407965
5.3728915
5.3077566
5.2451721
5.1849476
5.1269178
5.0709277
5.0168306
4.9644969
4.9138132
4.8646745
4.8169789
4.7706325
4.725554
4.6816689
4.6389049
4.5971928
4.5564696
4.5166798
4.4777708
4.4396914
4.402392
4.3658278
4.3299584
4.2947448
4.2601489
4.2261337
4.1926651
4.159712
4.1272443
4.0952319
4.0636457
4.0324583
4.0016442
3.9711788
3.941037
3.9111943
3.8816273
3.8523139
3.8232321
3.7943598
3.7656747
3.7371554
3.708781
3.6805305
3.6523824
3.6243147
3.5963062
3.5683354
3.5403801
3.5124172
3.4844235
3.4563756
3.4282491
3.4000182
3.3716567
3.3431382
3.3144338
3.2855281
3.2569856
3.2296672
3.2038018
3.1792698
3.1559627
3.1337812
3.1126367
3.0924503
3.0731519
3.0546785
3.036973
3.0199835
3.0036619
2.9879645
2.9728486
2.9582783
2.9442031
2.9306149
2.9173691
2.9046811
2.8917438
2.8806437
2.8622756
0.0025820604
0.0023028115
0.002169392
0.0021173202
0.0020921816
0.0020765099
0.0020655197
0.002057488
0.002051506
0.0020470066
0.0020436187
0.0020410943
0.0020392644
0.002038013
0.0020372619
0.0020369601
0.0020370862
0.0020376376
0.0020386404
0.0020404272
0.0020410726
0.0020572348
0.0019749771
0.0027773141
10.43252
16.131679
13.566849
11.666736
10.545281
9.7623646
9.1527889
8.6558267
8.2414975
7.8897214
7.5860436
7.3204817
7.0861516
6.8774093
6.6895377
6.5191776
6.363765
6.2211449
6.0895901
5.9676943
5.8542809
5.7483608
5.6490921
5.5557446
5.4677163
5.3844806
5.3055619
5.2305687
5.1591603
5.0910201
5.0258713
4.9634794
4.9036296
4.8461198
4.7907757
4.7374457
4.6859871
4.6362652
4.5881608
4.5415703
4.496397
4.4525475
4.4099351
4.3684856
4.3281308
4.2888041
4.2504418
4.2129862
4.1763865
4.1405945
4.1055629
4.0712462
4.0376033
4.0045973
3.9721925
3.9403536
3.9090467
3.8782405
3.8479066
3.8180172
3.7885449
3.7594627
3.7307454
3.70237
3.6743135
3.6465532
3.6190662
3.5918313
3.564828
3.5380365
3.511436
3.4850063
3.4587275
3.4325807
3.4065465
3.380605
3.354736
3.3289201
3.3031376
3.277368
3.2515899
3.2257822
3.1999232
3.1739904
3.1479602
3.1218083
3.0955104
3.0690399
3.0423821
3.0160588
2.9908644
2.9670092
2.944383
2.9228856
2.9024255
2.8829209
2.8642992
2.8464957
2.8294523
2.8131164
2.79744
2.7823789
2.7678927
2.7539421
2.740494
2.7275016
2.7149578
2.7027283
2.6910127
2.6790644
2.6688093
2.6518405
0.0024507515
0.0021697916
0.0020304214
0.0019746122
0.0019474341
0.0019304914
0.0019185963
0.0019098758
0.001903351
0.0018984134
0.0018946641
0.0018918356
0.0018897448
0.001888265
0.0018873099
0.0018868219
0.0018867729
0.0018871567
0.0018879857
0.0018896071
0.0018900093
0.0019058943
0.0018241452
0.0025392551
8.3053252
14.733991
12.583298
10.785867
9.723527
8.9911585
8.425581
7.9663852
7.5843343
7.2603726
6.980955
6.7367463
6.5213426
6.3295473
6.1569918
6.0005499
5.8578594
5.7269349
5.6061826
5.4943067
5.3902231
5.2930225
5.2019306
5.1162751
5.0355026
4.9591286
4.8867154
4.8179033
4.7523795
4.6898526
4.6300689
4.5728134
4.5178884
4.4651085
4.4143141
4.3653662
4.3181335
4.2724923
4.2283336
4.1855623
4.1440898
4.1038301
4.0647038
4.0266429
3.989585
3.953469
3.9182362
3.8838338
3.8502154
3.8173367
3.7851545
3.7536268
3.722716
3.6923883
3.6626111
3.633352
3.6045796
3.5762655
3.5483836
3.5209086
3.4938151
3.4670784
3.4406754
3.4145851
3.3887864
3.3632584
3.3379803
3.3129322
3.2880959
3.2634528
3.2389841
3.214671
3.1904954
3.16644
3.142487
3.1186181
3.0948148
3.0710592
3.0473332
3.0236181
2.9998943
2.9761422
2.952342
2.9284731
2.9045137
2.8804413
2.8562339
2.8318665
2.8073258
2.7830927
2.759899
2.7379379
2.7171074
2.6973153
2.6784776
2.6605188
2.6433721
2.626978
2.6112829
2.5962383
2.5818003
2.5679279
2.5545841
2.5417327
2.529343
2.5173722
2.5058137
2.4945431
2.4837449
2.4727303
2.4632726
2.4476242
0.0023148731
0.0020333808
0.0018879682
0.0018280901
0.0017986433
0.0017802861
0.0017673857
0.0017578989
0.0017507691
0.0017453416
0.0017411871
0.0017380164
0.0017356307
0.0017338917
0.0017327035
0.0017320013
0.0017317496
0.0017319374
0.0017325622
0.0017339835
0.0017341227
0.0017495047
0.0016705343
0.0022926878
6.4096826
13.342997
11.648166
9.9610729
8.9539491
8.2679368
7.7428251
7.3184554
6.9662142
6.6679591
6.4109749
6.1865204
5.9886304
5.8125203
5.6541448
5.5105935
5.379689
5.2596028
5.1488641
5.0462789
4.9508484
4.8617371
4.7782328
4.6997169
4.6256808
4.555679
4.4893087
4.4262396
4.3661842
4.3088751
4.2540797
4.2016005
4.1512563
4.1028768
4.0563158
4.0114461
3.9681472
3.9263054
3.885821
3.846607
3.808582
3.7716671
3.7357894
3.700887
3.6669027
3.6337803
3.601466
3.5699115
3.5390744
3.5089142
3.4793911
3.4504666
3.4221064
3.3942796
3.3669563
3.3401069
3.3137024
3.2877169
3.2621266
3.2369083
3.2120389
3.1874954
3.1632568
3.139304
3.1156178
3.0921788
3.0689678
3.045967
3.0231594
3.0005283
2.9780562
2.955726
2.9335211
2.9114257
2.8894234
2.8674976
2.8456311
2.8238077
2.8020109
2.7802234
2.7584272
2.7366043
2.7147368
2.6928056
2.6707906
2.6486715
2.6264277
2.6040364
2.581485
2.5592164
2.5379033
2.5177227
2.4985804
2.4803919
2.4630798
2.4465748
2.4308155
2.415747
2.4013203
2.3874908
2.3742178
2.361464
2.3491953
2.3373783
2.3259849
2.3149757
2.3043447
2.2939769
2.2840426
2.2739073
2.2652007
2.2507957
0.002176048
0.0018955987
0.0017443075
0.0016800939
0.001648166
0.0016282599
0.001614261
0.0016039362
0.0015961429
0.0015901767
0.0015855751
0.0015820255
0.0015793119
0.0015772832
0.0015758332
0.0015748888
0.0015744063
0.0015743695
0.0015747598
0.0015759449
0.0015758086
0.0015904143
0.0015166149
0.0020430467
4.7621128
11.95737
10.755061
9.1901447
8.2353499
7.5918059
7.1038202
6.7114902
6.3867179
6.1121699
5.8758855
5.6696673
5.4879498
5.3263254
5.1810498
5.0494115
4.9294022
4.8193381
4.7178619
4.6238728
4.5364509
4.4548281
4.3783499
4.306447
4.2386519
4.1745553
4.1137866
4.0560422
4.0010585
3.9485896
3.8984224
3.850376
3.8042839
3.7599899
3.7173603
3.6762787
3.6366344
3.598323
3.5612535
3.5253462
3.4905266
3.4567221
3.4238662
3.391902
3.3607776
3.3304412
3.3008435
3.2719403
3.243693
3.2160645
3.1890183
3.1625191
3.1365356
3.1110396
3.0860037
3.0614008
3.0372044
3.0133906
2.989938
2.9668253
2.9440312
2.9215346
2.8993166
2.8773594
2.8556457
2.8341578
2.8128779
2.7917898
2.7708781
2.7501274
2.7295219
2.7090456
2.6886835
2.6684212
2.6482439
2.628136
2.608082
2.588067
2.5680761
2.5480932
2.528102
2.5080861
2.4880289
2.4679131
2.4477201
2.4274314
2.4070281
2.3864893
2.3658032
2.3453767
2.3258272
2.3073165
2.2897578
2.2730736
2.2571927
2.2420518
2.2275943
2.2137699
2.2005337
2.1878445
2.1756653
2.1639616
2.1527022
2.1418565
2.1313987
2.1212925
2.1115327
2.102013
2.0928902
2.0835814
2.0755809
2.0623439
0.0020359814
0.0017585447
0.0016018659
0.0015331583
0.0014985732
0.0014770045
0.0014618294
0.0014506065
0.0014421003
0.0014355533
0.0014304678
0.0014265066
0.0014234355
0.0014210893
0.0014193509
0.0014181383
0.0014173987
0.0014171099
0.0014172371
0.0014181506
0.0014177361
0.0014312628
0.001364714
0.001796579
3.373538
10.57562
9.897368
8.4702552
7.5662198
6.9616401
6.5076553
6.1447421
5.8452314
5.5925028
5.3752795
5.1858619
5.0190475
4.8707724
4.7375725
4.6169199
4.5069604
4.4061436
4.3132162
4.2271632
4.1471371
4.0724316
4.002445
3.936654
3.8746284
3.8159924
3.7604049
3.707587
3.6572966
3.609308
3.563426
3.5194848
3.4773314
3.4368226
3.3978362
3.3602658
3.3240096
3.288972
3.2550698
3.2222301
3.1903845
3.1594668
3.1294156
3.1001794
3.0717106
3.0439617
3.0168875
2.9904478
2.9646071
2.9393318
2.9145882
2.8903441
2.8665707
2.8432427
2.8203348
2.7978223
2.7756807
2.7538885
2.732426
2.7112738
2.6904123
2.6698225
2.6494867
2.6293892
2.6095138
2.5898444
2.5703649
2.5510602
2.5319166
2.5129199
2.4940556
2.4753091
2.4566667
2.4381155
2.4196416
2.4012311
2.3828695
2.3645436
2.3462395
2.3279426
2.3096379
2.2913105
2.2729454
2.2545265
2.236037
2.2174597
2.1987776
2.1799714
2.16103
2.1423268
2.1244274
2.1074791
2.0914023
2.0761258
2.0615846
2.0477205
2.0344816
2.021822
2.0097003
1.998079
1.986924
1.9762038
1.9658897
1.9559538
1.9463725
1.9371124
1.9281688
1.9194441
1.9110818
1.9025481
1.8952098
1.8830679
0.0018963814
0.0016242729
0.0014630815
0.0013898802
0.0013525229
0.0013292125
0.0013128086
0.0013006471
0.0012913934
0.0012842352
0.0012786387
0.0012742408
0.0012707887
0.0012681027
0.001266054
0.0012645512
0.0012635322
0.001262968
0.001262808
0.0012634172
0.0012627335
0.0012748763
0.0012171643
0.0015595513
2.2518115
9.1964478
9.0678945
7.79782
6.9446754
6.376049
5.9531849
5.617242
5.340926
5.1082452
4.9085427
4.7345744
4.5814671
4.4454694
4.3233778
4.2128345
4.1121254
4.0198223
3.934768
3.8560259
3.7828146
3.7144847
3.650483
3.5903281
3.5336245
3.4800266
3.429221
3.3809511
3.3349944
3.291144
3.249221
3.2090732
3.1705603
3.133551
3.0979336
3.0636106
3.0304889
2.9984806
2.9675098
2.9375098
2.908418
2.8801735
2.8527204
2.8260116
2.8000035
2.7746529
2.749918
2.7257623
2.7021535
2.6790608
2.6564534
2.6343016
2.6125796
2.5912639
2.5703316
2.5497601
2.5295269
2.5096124
2.4899989
2.4706684
2.4516032
2.4327857
2.4141999
2.3958315
2.3776658
2.359688
2.3418833
2.3242381
2.3067399