/*--------------------------------*- C++ -*----------------------------------*\
  =========                 |
  \\      /  F ield         | OpenFOAM: The Open Source CFD Toolbox
   \\    /   O peration     | Website:  https://openfoam.org
    \\  /    A nd           | Version:  12
     \\/     M anipulation  |
\*---------------------------------------------------------------------------*/
FoamFile
{
    format      ascii;
    class       volScalarField;
    location    "600";
    object      k;
}
// * * * * * * * * * * * * * * * * * * * * * * * * * * * * * * * * * * * * * //

dimensions      [0 2 -2 0 0 0 0];

internalField   nonuniform List<scalar> 
13056
(
0.00011025733
8.9611623e-05
8.4881895e-05
8.3105569e-05
8.2171666e-05
8.1564147e-05
8.1137102e-05
8.0825611e-05
8.0592353e-05
8.0414235e-05
8.0276411e-05
8.0169013e-05
8.0085303e-05
8.0020575e-05
7.9971534e-05
7.9935858e-05
7.9912184e-05
7.9899517e-05
7.9899124e-05
7.9909753e-05
7.9942821e-05
8.0011445e-05
7.9937088e-05
8.2474838e-05
0.00016822334
0.00020723991
0.00019224843
0.00017655287
0.00016425503
0.00015406482
0.00014541622
0.0001380518
0.00013175447
0.00012631267
0.00012155172
0.00011734521
0.0001136027
0.00011024482
0.00010720428
0.00010443378
0.00010189584
9.9558433e-05
9.7395726e-05
9.5386475e-05
9.3512809e-05
9.1759385e-05
9.0113086e-05
8.856255e-05
8.7098334e-05
8.5712175e-05
8.4396611e-05
8.3145375e-05
8.1953026e-05
8.0814532e-05
7.9725399e-05
7.8681817e-05
7.7680344e-05
7.6717722e-05
7.579107e-05
7.4897898e-05
7.4035917e-05
7.3202946e-05
7.239701e-05
7.1616391e-05
7.0859512e-05
7.012486e-05
6.9411022e-05
6.8716739e-05
6.8040876e-05
6.7382356e-05
6.6740148e-05
6.6113289e-05
6.5500915e-05
6.490223e-05
6.4316465e-05
6.3742883e-05
6.3180793e-05
6.2629564e-05
6.2088607e-05
6.1557351e-05
6.1035242e-05
6.0521756e-05
6.0016407e-05
5.9518738e-05
5.9028301e-05
5.8544658e-05
5.8067388e-05
5.7596097e-05
5.7130407e-05
5.6669946e-05
5.6214347e-05
5.576325e-05
5.5316314e-05
5.4873205e-05
5.4433591e-05
5.3997139e-05
5.3563521e-05
5.3132417e-05
5.2703508e-05
5.2276471e-05
5.1850978e-05
5.1426703e-05
5.1003316e-05
5.0580484e-05
5.0157863e-05
4.9735098e-05
4.9311831e-05
4.8887692e-05
4.8462298e-05
4.803525e-05
4.7606144e-05
4.7174535e-05
4.6740211e-05
4.6311503e-05
4.5901249e-05
4.5512869e-05
4.5144563e-05
4.4794705e-05
4.4461803e-05
4.4144517e-05
4.3841654e-05
4.3552148e-05
4.3275042e-05
4.3009474e-05
4.2754658e-05
4.2509875e-05
4.2274466e-05
4.2047792e-05
4.1829312e-05
4.1618283e-05
4.1414563e-05
4.1216073e-05
4.1025872e-05
4.0832333e-05
4.0666065e-05
4.0390703e-05
0.00011026244
8.9593031e-05
8.4852412e-05
8.307137e-05
8.2134797e-05
8.1525524e-05
8.1097229e-05
8.0784806e-05
8.0550834e-05
8.0372155e-05
8.0233882e-05
8.0126123e-05
8.0042117e-05
7.9977146e-05
7.9927904e-05
7.9892064e-05
7.9868257e-05
7.9855485e-05
7.9855016e-05
7.9865591e-05
7.9898664e-05
7.9967253e-05
7.9892193e-05
8.2423786e-05
0.0018310523
0.0022434755
0.00208396
0.001916902
0.0017857324
0.0016768094
0.0015841837
0.0015051768
0.0014375185
0.0013789776
0.0013277041
0.0012823569
0.0012419764
0.001205718
0.001172863
0.0011429062
0.0011154477
0.0010901447
0.0010667209
0.0010449489
0.001024637
0.0010056208
0.00098775948
0.00097093091
0.0009550337
0.00093997899
0.00092568649
0.00091208879
0.00089912737
0.00088674798
0.00087490222
0.00086354907
0.0008526514
0.00084217406
0.00083208598
0.0008223603
0.0008129723
0.00080389843
0.00079511734
0.0007866105
0.00077836085
0.00077035202
0.00076256874
0.0007549974
0.00074762573
0.00074044206
0.00073343523
0.00072659481
0.00071991145
0.00071337653
0.00070698171
0.00070071901
0.00069458092
0.00068856062
0.00068265172
0.00067684802
0.0006711435
0.00066553247
0.00066000968
0.00065457014
0.00064920898
0.00064392146
0.000638703
0.00063354931
0.00062845627
0.00062341985
0.00061843604
0.00061350093
0.00060861079
0.000603762
0.00059895094
0.00059417397
0.00058942751
0.00058470807
0.00058001218
0.0005753363
0.00057067686
0.00056603027
0.00056139294
0.00055676124
0.00055213137
0.00054749948
0.00054286163
0.00053821377
0.0005335517
0.00052887105
0.00052416739
0.00051943582
0.00051467402
0.00050997334
0.00050547462
0.00050121538
0.00049717595
0.00049333855
0.00048968683
0.00048620616
0.00048288348
0.0004797071
0.00047666658
0.00047375245
0.00047095613
0.00046826975
0.00046568607
0.00046319812
0.00046079995
0.00045848343
0.00045624701
0.00045406786
0.00045197958
0.00044985447
0.00044802862
0.00044500474
0.00011026227
8.9506815e-05
8.4731912e-05
8.2936124e-05
8.1991242e-05
8.1376492e-05
8.0944285e-05
8.0628946e-05
8.0392738e-05
8.0212305e-05
8.0072631e-05
7.9963736e-05
7.98788e-05
7.9813062e-05
7.9763184e-05
7.9726817e-05
7.9702575e-05
7.9689447e-05
7.9688702e-05
7.9699051e-05
7.9732048e-05
7.9800325e-05
7.9724415e-05
8.2239521e-05
0.0039391916
0.004753851
0.0044312816
0.0040953964
0.0038304929
0.0036093925
0.0034204368
0.0032585267
0.0031193094
0.0029984182
0.0028921944
0.0027979761
0.0027138582
0.0026381483
0.0025693957
0.0025065824
0.0024489004
0.002395655
0.0023462847
0.0023003265
0.0022573897
0.0022171383
0.0021792836
0.0021435751
0.0021098044
0.0020777889
0.0020473628
0.0020183872
0.0019907413
0.0019643128
0.0019390014
0.0019147222
0.0018913982
0.0018689562
0.0018473316
0.0018264686
0.0018063157
0.0017868237
0.001767948
0.0017496499
0.0017318938
0.0017146455
0.0016978727
0.0016815472
0.001665643
0.0016501358
0.0016350021
0.0016202198
0.0016057693
0.0015916324
0.0015777917
0.0015642302
0.001550932
0.0015378827
0.0015250688
0.0015124772
0.0015000951
0.0014879103
0.0014759119
0.0014640891
0.0014524316
0.0014409292
0.0014295722
0.0014183515
0.0014072582
0.0013962837
0.0013854193
0.0013746567
0.0013639879
0.0013534051
0.0013429004
0.001332466
0.0013220942
0.0013117773
0.001301508
0.0012912783
0.0012810807
0.0012709073
0.0012607502
0.0012506015
0.0012404528
0.0012302958
0.0012201218
0.0012099218
0.0011996867
0.0011894066
0.001179072
0.0011686719
0.0011582012
0.0011478607
0.0011379607
0.0011285842
0.0011196885
0.0011112349
0.0011031878
0.0010955153
0.0010881889
0.0010811831
0.0010744752
0.0010680445
0.0010618722
0.0010559411
0.0010502355
0.00104474
0.0010394417
0.0010343228
0.0010293798
0.0010245623
0.0010199449
0.0010152451
0.0010112062
0.001004516
0.00011025786
8.9352224e-05
8.4518506e-05
8.2697426e-05
8.1738299e-05
8.1114151e-05
8.0675229e-05
8.0354885e-05
8.0114837e-05
7.993139e-05
7.9789308e-05
7.9678462e-05
7.9591927e-05
7.9524867e-05
7.9473892e-05
7.9436611e-05
7.9411613e-05
7.9397861e-05
7.9396622e-05
7.9406555e-05
7.9439379e-05
7.950704e-05
7.9430386e-05
8.1921157e-05
0.005832829
0.0069671997
0.0065226793
0.0060628248
0.0056992195
0.0053944242
0.0051327092
0.0049074222
0.0047128872
0.0045433074
0.0043937768
0.0042607169
0.0041415662
0.0040340302
0.0039361267
0.0038464662
0.0037639451
0.00368761
0.0036166891
0.0035505449
0.0034886384
0.0034305043
0.003375743
0.0033240058
0.0032750033
0.0032284809
0.0031842072
0.003141988
0.0031016547
0.0030630497
0.0030260322
0.0029904831
0.002956294
0.0029233619
0.0028915956
0.0028609163
0.0028312514
0.002802531
0.0027746921
0.0027476798
0.0027214435
0.0026959346
0.0026711072
0.002646921
0.0026233391
0.0026003268
0.0025778502
0.002555878
0.0025343821
0.0025133364
0.0024927157
0.0024724957
0.0024526535
0.0024331684
0.002414021
0.0023951921
0.0023766634
0.0023584172
0.0023404373
0.0023227085
0.0023052157
0.0022879439
0.0022708789
0.0022540073
0.0022373162
0.002220793
0.0022044248
0.0021881994
0.0021721048
0.0021561296
0.002140262
0.0021244904
0.0021088033
0.0020931892
0.0020776369
0.0020621349
0.0020466714
0.0020312345
0.0020158124
0.002000393
0.0019849637
0.0019695114
0.001954023
0.0019384849
0.0019228826
0.0019072014
0.0018914261
0.00187554
0.0018595348
0.0018437177
0.0018285641
0.0018142026
0.001800569
0.0017876053
0.001775258
0.001763479
0.0017522256
0.0017414594
0.0017311459
0.001721254
0.0017117554
0.0017026242
0.0016938364
0.0016853688
0.0016772019
0.0016693084
0.0016616835
0.0016542495
0.0016471217
0.001639864
0.0016336248
0.0016232861
0.00011025096
8.9128216e-05
8.4209359e-05
8.2351627e-05
8.1371843e-05
8.0734063e-05
8.0285395e-05
7.9957786e-05
7.9712162e-05
7.9524339e-05
7.9378759e-05
7.9265076e-05
7.9176214e-05
7.910723e-05
7.9054655e-05
7.901604e-05
7.8989931e-05
7.8975259e-05
7.8973282e-05
7.8982587e-05
7.9015118e-05
7.9081818e-05
7.9004842e-05
8.1464456e-05
0.0072923564
0.0087035894
0.0081750889
0.007630638
0.0072004276
0.0068391898
0.0065282375
0.0062598532
0.0060275105
0.0058244933
0.0056450865
0.0054851139
0.0053415887
0.0052118235
0.0050934848
0.004984937
0.0048848821
0.0047921954
0.0047059657
0.0046254392
0.0045499778
0.0044790306
0.004412123
0.0043488405
0.0042888392
0.004231816
0.0041774949
0.0041256446
0.0040760638
0.0040285643
0.0039829777
0.0039391616
0.0038969863
0.0038563282
0.0038170778
0.0037791409
0.00374243
0.0037068612
0.0036723586
0.0036388561
0.003606293
0.0035746104
0.003543753
0.003513672
0.0034843232
0.0034556642
0.0034276542
0.0034002551
0.003373433
0.0033471561
0.003321394
0.0032961168
0.0032712969
0.003246909
0.0032229293
0.0031993346
0.0031761023
0.0031532108
0.0031306405
0.0031083724
0.0030863879
0.0030646689
0.0030431976
0.0030219576
0.003000933
0.002980108
0.0029594667
0.0029389939
0.0029186748
0.0028984949
0.0028784397
0.0028584946
0.002838645
0.0028188766
0.0027991753
0.0027795264
0.0027599149
0.002740326
0.0027207445
0.002701155
0.0026815413
0.0026618867
0.0026421745
0.0026223868
0.0026025055
0.0025825111
0.0025623841
0.0025421029
0.0025216563
0.0025014371
0.0024820538
0.0024636726
0.002446213
0.0024296019
0.0024137723
0.0023986636
0.0023842219
0.0023703988
0.0023571509
0.002344439
0.0023322274
0.0023204831
0.002309176
0.0022982767
0.0022877605
0.0022775926
0.0022677671
0.0022581844
0.0022489931
0.002239631
0.0022315799
0.0022182339
0.00011024407
8.883383e-05
8.3801072e-05
8.1894207e-05
8.08867e-05
8.0230617e-05
7.9768861e-05
7.9431489e-05
7.9178372e-05
7.8984665e-05
7.8834381e-05
7.8716881e-05
7.8624886e-05
7.8553308e-05
7.8498573e-05
7.8458153e-05
7.8430537e-05
7.8414609e-05
7.8411615e-05
7.8420043e-05
7.8452129e-05
7.8517469e-05
7.8441038e-05
8.086276e-05
0.0083537637
0.010058941
0.0094735625
0.0088683194
0.0083907642
0.0079895389
0.0076436986
0.0073447309
0.007085511
0.0068586858
0.0066579755
0.0064787849
0.0063178291
0.0061721482
0.0060391617
0.0059170591
0.005804406
0.005699958
0.005602705
0.0055118119
0.0054265706
0.0053463695
0.0052706815
0.0051990454
0.0051310787
0.005066444
0.0050048336
0.0049459899
0.0048896887
0.00483572
0.0047838957
0.0047340569
0.004686059
0.0046397635
0.0045950481
0.0045518074
0.0045099436
0.0044693626
0.0044299792
0.0043917197
0.0043545159
0.0043183017
0.004283015
0.0042486009
0.0042150099
0.0041821943
0.0041501083
0.0041187088
0.0040879577
0.0040578194
0.0040282593
0.003999244
0.003970742
0.003942725
0.003915166
0.0038880387
0.0038613176
0.0038349783
0.0038089983
0.0037833562
0.003758031
0.0037330019
0.0037082488
0.003683753
0.0036594962
0.0036354604
0.0036116276
0.0035879802
0.0035645012
0.0035411742
0.0035179824
0.0034949088
0.0034719369
0.00344905
0.0034262317
0.0034034652
0.0033807331
0.003358018
0.0033353024
0.0033125682
0.0032897966
0.0032669682
0.0032440631
0.0032210608
0.0031979396
0.0031746768
0.0031512495
0.003127632
0.0031038111
0.0030802443
0.003057642
0.003036199
0.0030158228
0.0029964292
0.0029779409
0.0029602882
0.0029434088
0.002927247
0.0029117526
0.0028968804
0.002882589
0.0028688405
0.0028555999
0.0028428333
0.002830512
0.0028185955
0.0028070774
0.0027958407
0.0027850605
0.002774077
0.0027646287
0.0027489628
0.00011024068
8.8468669e-05
8.3290181e-05
8.132027e-05
8.0277136e-05
7.9597518e-05
7.9118926e-05
7.8768993e-05
7.8506229e-05
7.8304944e-05
7.8148598e-05
7.8026176e-05
7.7930139e-05
7.7855211e-05
7.779768e-05
7.7754918e-05
7.7725342e-05
7.770777e-05
7.7703433e-05
7.7710689e-05
7.7742139e-05
7.7805643e-05
7.7730808e-05
8.0108239e-05
0.0090918372
0.011137935
0.010517491
0.0098668529
0.0093539181
0.0089227935
0.0085508178
0.0082288871
0.0079494443
0.0077046768
0.0074878917
0.0072941824
0.0071200438
0.0069623176
0.0068182383
0.0066858626
0.0065636551
0.0064502822
0.00634466
0.0062458921
0.0061532181
0.0060659813
0.0059836149
0.0059056227
0.0058315928
0.0057611622
0.0056939991
0.0056298264
0.0055684025
0.0055095008
0.0054529185
0.0053984844
0.0053460423
0.0052954428
0.0052465537
0.0051992614
0.0051534601
0.005109048
0.0050659331
0.0050240356
0.0049832817
0.0049436
0.0049049231
0.0048671916
0.004830352
0.0047943525
0.0047591434
0.0047246781
0.0046909151
0.0046578158
0.0046253428
0.0045934596
0.004562132
0.0045313293
0.0045010221
0.0044711819
0.0044417807
0.004412792
0.0043841914
0.0043559555
0.0043280613
0.004300486
0.0042732079
0.0042462062
0.0042194612
0.0041929531
0.0041666621
0.0041405688
0.0041146547
0.0040889017
0.0040632913
0.0040378049
0.0040124241
0.0039871306
0.0039619064
0.0039367327
0.0039115904
0.0038864601
0.0038613225
0.0038361575
0.0038109441
0.0037856609
0.0037602857
0.0037347955
0.0037091662
0.0036833725
0.0036573888
0.0036311862
0.0036047499
0.0035785878
0.003553489
0.0035296709
0.0035070315
0.0034854783
0.0034649259
0.0034452975
0.0034265246
0.0034085455
0.0033913051
0.0033747534
0.0033588448
0.0033435374
0.0033287925
0.0033145727
0.0033008461
0.0032875681
0.0032747317
0.0032622065
0.0032501879
0.0032379404
0.0032274023
0.0032099263
0.00011024544
8.8033493e-05
8.2673764e-05
8.0625148e-05
7.9537445e-05
7.8828369e-05
7.8328694e-05
7.7963022e-05
7.7688165e-05
7.7477376e-05
7.7313421e-05
7.7184818e-05
7.70837e-05
7.7004556e-05
7.6943502e-05
7.6897781e-05
7.6865717e-05
7.6846049e-05
7.683998e-05
7.684571e-05
7.6876278e-05
7.6937374e-05
7.6865272e-05
7.9192398e-05
0.0095670943
0.012012961
0.011376892
0.010692062
0.010151935
0.0096976689
0.0093053561
0.0089654771
0.0086701696
0.0084112886
0.0081818331
0.0079766581
0.0077920912
0.0076248273
0.0074719568
0.0073314305
0.0072016357
0.0070811701
0.0069688925
0.0068638586
0.0067652671
0.0066724262
0.0065847382
0.0065016789
0.0064228137
0.0063477594
0.006276165
0.006207738
0.0061422232
0.006079381
0.0060189969
0.00596089
0.0059048951
0.0058508539
0.0057986267
0.0057480931
0.0056991412
0.0056516631
0.0056055611
0.0055607508
0.0055171542
0.0054746953
0.0054333025
0.0053929131
0.0053534702
0.0053149189
0.0052772063
0.0052402829
0.0052041047
0.0051686308
0.0051338212
0.0050996373
0.0050660426
0.0050330043
0.0050004915
0.0049684736
0.0049369208
0.0049058048
0.0048750996
0.0048447804
0.0048148226
0.0047852019
0.0047558949
0.0047268796
0.0046981349
0.0046696396
0.0046413725
0.0046133128
0.0045854408
0.0045577368
0.0045301813
0.0045027542
0.0044754356
0.0044482061
0.0044210461
0.0043939355
0.0043668535
0.0043397796
0.0043126926
0.004285571
0.0042583921
0.0042311326
0.0042037687
0.0041762755
0.0041486267
0.0041207951
0.0040927527
0.0040644683
0.0040359256
0.0040076731
0.0039805636
0.0039548325
0.0039303702
0.0039070772
0.0038848619
0.0038636419
0.0038433433
0.0038238999
0.0038052525
0.0037873472
0.003770135
0.0037535708
0.003737613
0.0037222213
0.0037073615
0.0036929852
0.0036790851
0.0036655202
0.0036525019
0.0036392339
0.003627815
0.0036088765
0.00011026431
8.7530907e-05
8.1950162e-05
7.9805103e-05
7.866265e-05
7.791736e-05
7.7391754e-05
7.7006709e-05
7.6716958e-05
7.6494455e-05
7.6321118e-05
7.6184886e-05
7.6077491e-05
7.5993129e-05
7.5927708e-05
7.587831e-05
7.5843141e-05
7.5820842e-05
7.5812577e-05
7.5816351e-05
7.5845722e-05
7.590372e-05
7.5835594e-05
7.8106603e-05
0.00982241
0.012730505
0.012097728
0.011387726
0.01082652
0.010354026
0.0099455317
0.009591266
0.0092831688
0.0090128616
0.008773115
0.0085586002
0.0083655173
0.0081904526
0.0080303817
0.0078831685
0.0077471409
0.0076208422
0.0075030855
0.0073928886
0.0072894171
0.0071919515
0.0070998693
0.0070126235
0.0069297613
0.0068508826
0.0067756212
0.0067036721
0.006634769
0.0065686615
0.006505126
0.0064439736
0.0063850317
0.0063281347
0.0062731367
0.0062199121
0.0061683436
0.0061183184
0.0060697344
0.0060225033
0.0059765435
0.0059317752
0.0058881237
0.0058455233
0.0058039143
0.0057632394
0.005723443
0.0056844732
0.0056462839
0.0056088324
0.0055720766
0.0055359759
0.0055004921
0.0054655909
0.0054312397
0.0053974065
0.0053640598
0.00533117
0.0052987098
0.005266653
0.0052349739
0.0052036467
0.0051726469
0.0051419513
0.0051115378
0.0050813839
0.0050514673
0.0050217661
0.0049922595
0.0049629268
0.0049337472
0.0049046995
0.0048757627
0.0048469164
0.0048181397
0.0047894114
0.0047607096
0.0047320122
0.004703297
0.0046745412
0.0046457206
0.0046168106
0.0045877856
0.0045586195
0.0045292841
0.0044997505
0.0044699889
0.0044399661
0.0044096643
0.0043796664
0.0043508781
0.00432355
0.0042975659
0.0042728205
0.0042492171
0.0042266683
0.0042050959
0.0041844301
0.0041646078
0.0041455723
0.0041272715
0.0041096576
0.0040926867
0.004076316
0.0040605093
0.0040452152
0.004030426
0.0040159918
0.0040021374
0.0039880158
0.0039758591
0.0039556958
0.00011030479
8.6966138e-05
8.1119804e-05
7.885815e-05
7.7649309e-05
7.6860067e-05
7.6302966e-05
7.5894373e-05
7.5586503e-05
7.534974e-05
7.5164971e-05
7.5019436e-05
7.4904376e-05
7.4813636e-05
7.4742863e-05
7.4688946e-05
7.4649946e-05
7.462438e-05
7.461336e-05
7.4614654e-05
7.4642427e-05
7.4696486e-05
7.4633706e-05
7.6842755e-05
0.0098876865
0.013319782
0.012710192
0.011982937
0.011405572
0.01091868
0.010497187
0.010131233
0.0098126577
0.0095329308
0.0092846607
0.0090623778
0.0088621868
0.0086805962
0.0085144894
0.008361658
0.0082203835
0.0080891668
0.0079667842
0.0078522226
0.007744621
0.0076432376
0.0075474296
0.0074566312
0.0073703744
0.0072882457
0.0072098656
0.0071349191
0.0070631308
0.0069942413
0.0069280193
0.0068642694
0.0068028128
0.0067434778
0.0066861135
0.0066305898
0.006576785
0.0065245821
0.0064738751
0.0064245727
0.0063765904
0.0063298451
0.0062842592
0.0062397647
0.0061962998
0.0061538048
0.0061122219
0.0060714972
0.006031583
0.0059924348
0.005954009
0.0059162632
0.0058791576
0.0058426568
0.0058067268
0.0057713342
0.0057364464
0.0057020323
0.0056680637
0.0056345134
0.0056013544
0.00556856
0.0055361045
0.0055039638
0.0054721148
0.0054405342
0.0054091985
0.0053780849
0.0053471716
0.0053164372
0.0052858598
0.0052554173
0.0052250878
0.0051948497
0.0051646814
0.0051345605
0.0051044642
0.0050743692
0.0050442525
0.0050140899
0.0049838562
0.0049535254
0.0049230708
0.0048924648
0.004861678
0.0048306797
0.0047994388
0.0047679201
0.004736105
0.0047046055
0.0046743733
0.0046456717
0.0046183787
0.0045923844
0.0045675871
0.0045438956
0.0045212278
0.0044995105
0.0044786778
0.0044586699
0.0044394326
0.0044209156
0.0044030729
0.0043858595
0.0043692376
0.0043531532
0.0043375983
0.0043224151
0.00430784
0.0042929826
0.0042801887
0.0042589678
0.00011037595
8.6347891e-05
8.0186146e-05
7.7784988e-05
7.649643e-05
7.5654355e-05
7.5059359e-05
7.4622408e-05
7.4292696e-05
7.4038728e-05
7.3840152e-05
7.3683371e-05
7.3559033e-05
7.3460559e-05
7.3383283e-05
7.3323857e-05
7.3280166e-05
7.3250575e-05
7.3236123e-05
7.3234297e-05
7.3259959e-05
7.3309063e-05
7.3253139e-05
7.5393978e-05
0.0097843729
0.013798375
0.01323454
0.012497347
0.011908062
0.011409944
0.010978034
0.010602554
0.010275333
0.0099877664
0.0097323555
0.0095035276
0.0092973185
0.0091101851
0.0089389377
0.0087813064
0.0086355381
0.0085001005
0.0083737401
0.0082554191
0.0081442546
0.0080394872
0.0079404574
0.0078465835
0.0077573851
0.0076724373
0.0075913497
0.0075137987
0.0074395014
0.0073681909
0.0072996293
0.0072336159
0.0071699665
0.0071085045
0.0070490745
0.0069915428
0.006935784
0.0068816771
0.0068291134
0.0067779987
0.0067282458
0.0066797693
0.0066324887
0.0065863343
0.0065412423
0.0064971512
0.0064540011
0.0064117364
0.006370308
0.00632967
0.0062897774
0.0062505862
0.0062120555
0.0061741485
0.0061368304
0.0061000665
0.006063823
0.0060280679
0.0059927719
0.0059579071
0.0059234453
0.005889359
0.0058556215
0.005822208
0.0057890945
0.0057562568
0.0057236706
0.0056913123
0.0056591593
0.0056271893
0.0055953798
0.0055637077
0.0055321501
0.0055006849
0.0054692896
0.0054379409
0.0054066149
0.0053752877
0.0053439352
0.0053125322
0.0052810526
0.0052494691
0.0052177542
0.0051858789
0.0051538127
0.0051215236
0.0050889789
0.0050561421
0.0050229935
0.0049901711
0.004958667
0.0049287556
0.00490031
0.0048732156
0.004847367
0.004822669
0.0047990364
0.0047763929
0.00475467
0.0047338056
0.004713743
0.00469443
0.0046758188
0.0046578624
0.0046405215
0.0046237399
0.0046075094
0.0045916649
0.0045764532
0.0045609457
0.0045475878
0.0045254308
0.00011048846
8.568925e-05
7.9156713e-05
7.659004e-05
7.5206511e-05
7.4301407e-05
7.3661156e-05
7.3190296e-05
7.2834438e-05
7.2559851e-05
7.2344714e-05
7.2174425e-05
7.2038928e-05
7.1931135e-05
7.1846004e-05
7.1779902e-05
7.1730498e-05
7.1695975e-05
7.1677275e-05
7.1671549e-05
7.1694453e-05
7.1737374e-05
7.1689956e-05
7.3755273e-05
0.0095286098
0.014176099
0.013684396
0.012944461
0.012347139
0.011840574
0.01140045
0.011017262
0.010682923
0.01038882
0.010127401
0.0098930235
0.0096816781
0.0094897938
0.0093141236
0.0091523462
0.0090026835
0.008863578
0.0087337526
0.0086121498
0.0084978691
0.0083901368
0.0082882802
0.0081917042
0.0080999181
0.0080124873
0.0079290122
0.0078491622
0.0077726481
0.0076991964
0.0076285639
0.0075605453
0.007494952
0.0074316028
0.007370339
0.0073110235
0.0072535277
0.0071977275
0.0071435114
0.0070907831
0.0070394531
0.0069894335
0.0069406419
0.0068930066
0.0068464626
0.0068009464
0.0067563965
0.0067127557
0.0066699739
0.0066280039
0.0065867992
0.0065463147
0.0065065084
0.0064673425
0.0064287812
0.0063907889
0.0063533306
0.0063163734
0.0062798875
0.0062438438
0.0062082136
0.0061729683
0.0061380804
0.0061035246
0.006069276
0.0060353098
0.0060016008
0.0059681247
0.0059348582
0.0059017785
0.0058688621
0.0058360852
0.0058034243
0.0057708566
0.0057383587
0.0057059067
0.0056734758
0.0056410412
0.0056085782
0.0055760607
0.0055434615
0.0055107525
0.0054779053
0.0054448898
0.0054116743
0.0053782257
0.0053445103
0.0053104898
0.0052761438
0.0052421337
0.0052094879
0.0051784907
0.0051490104
0.0051209287
0.0050941364
0.005068535
0.0050440363
0.0050205615
0.0049980393
0.0049764057
0.0049556019
0.0049355739
0.004916272
0.0048976479
0.0048796606
0.0048622519
0.0048454135
0.0048289738
0.0048131887
0.0047970957
0.0047832284
0.004760226
0.00011065448
8.5008575e-05
7.8044221e-05
7.5282607e-05
7.378669e-05
7.2806873e-05
7.2112906e-05
7.1601738e-05
7.121476e-05
7.09156e-05
7.06807e-05
7.049427e-05
7.0345418e-05
7.022645e-05
7.0131876e-05
7.005772e-05
7.0001393e-05
6.9960854e-05
6.9936919e-05
6.9926342e-05
6.9945676e-05
6.9980947e-05
6.9943806e-05
7.1924086e-05
0.0091346319
0.014456524
0.014068859
0.013333652
0.01273207
0.012219616
0.011773253
0.011383959
0.011043829
0.010744313
0.010477853
0.010238771
0.010023032
0.0098270598
0.0096475651
0.0094821843
0.0093291223
0.0091868041
0.0090539345
0.0089294406
0.0088124079
0.0087020519
0.0085976891
0.0084987134
0.0084046255
0.0083149831
0.0082293783
0.008147475
0.0080689786
0.0079936099
0.0079211215
0.0078513043
0.0077839657
0.0077189205
0.0076560073
0.0075950864
0.0075360262
0.0074786998
0.0074229934
0.0073688088
0.0073160547
0.007264641
0.0072144833
0.0071655086
0.0071176506
0.0070708442
0.0070250264
0.0069801386
0.0069361297
0.0068929516
0.0068505566
0.0068088982
0.0067679336
0.0067276242
0.0066879334
0.0066488246
0.0066102619
0.0065722115
0.006534643
0.0064975268
0.0064608331
0.0064245326
0.0063885973
0.006353001
0.0063177185
0.0062827241
0.0062479919
0.006213497
0.0061792155
0.006145124
0.0061111985
0.0060774142
0.0060437472
0.0060101739
0.0059766705
0.0059432122
0.0059097734
0.0058763289
0.005842853
0.0058093189
0.0057756987
0.0057419634
0.0057080836
0.0056740285
0.0056397652
0.0056052596
0.0055704768
0.0055353776
0.0054999403
0.0054648478
0.0054311617
0.0053991753
0.0053687526
0.0053397714
0.0053121193
0.0052856948
0.0052604071
0.0052361745
0.0052129239
0.005190589
0.0051691094
0.0051484292
0.0051284973
0.0051092637
0.0050906864
0.005072705
0.0050553112
0.0050383275
0.0050220179
0.0050053892
0.0049910546
0.0049672769
0.0001108873
8.4330327e-05
7.6867755e-05
7.3878095e-05
7.2249994e-05
7.1182125e-05
7.0424745e-05
6.9865913e-05
6.9442073e-05
6.9113763e-05
6.8855386e-05
6.8649752e-05
6.8484984e-05
6.835267e-05
6.8246787e-05
6.8162953e-05
6.8098265e-05
6.8050417e-05
6.8020058e-05
6.8003479e-05
6.8018236e-05
6.8044121e-05
6.801908e-05
6.9901306e-05
0.0086160876
0.014638481
0.014393808
0.013671404
0.013069452
0.012553585
0.012102831
0.011708901
0.011364185
0.011060262
0.010789622
0.010546578
0.010327097
0.010127612
0.0099448106
0.0097762927
0.0096202552
0.0094751123
0.0093395557
0.0092125014
0.0090930238
0.0089803308
0.0088737306
0.008772608
0.0086764572
0.0085848289
0.0084973087
0.0084135559
0.0083332713
0.0082561711
0.0081820043
0.0081105585
0.0080416378
0.0079750539
0.0079106428
0.0078482626
0.0077877791
0.0077290631
0.0076719988
0.0076164864
0.0075624328
0.0075097462
0.0074583404
0.0074081413
0.0073590814
0.0073110942
0.0072641153
0.0072180851
0.0071729515
0.0071286656
0.0070851785
0.0070424428
0.0070004147
0.006959055
0.0069183263
0.0068781913
0.006838613
0.0067995572
0.0067609927
0.0067228893
0.0066852166
0.0066479446
0.0066110444
0.0065744896
0.0065382544
0.0065023123
0.006466637
0.0064312027
0.0063959853
0.0063609608
0.0063261044
0.0062913909
0.0062567957
0.0062222947
0.0061878636
0.0061534767
0.006119108
0.0060847316
0.0060503211
0.0060158492
0.0059812869
0.0059466046
0.0059117723
0.0058767581
0.0058415284
0.0058060479
0.005770281
0.005734187
0.0056977434
0.0056616531
0.0056270082
0.00559411
0.0055628186
0.0055330083
0.0055045637
0.0054773805
0.0054513652
0.0054264339
0.0054025116
0.0053795299
0.0053574267
0.0053361445
0.005315631
0.0052958346
0.0052767121
0.0052582014
0.0052402941
0.0052228071
0.0052060118
0.0051888874
0.0051741188
0.0051496208
0.0001112008
8.3685697e-05
7.565391e-05
7.2399269e-05
7.0616646e-05
6.9445593e-05
6.8613747e-05
6.7998825e-05
6.7531523e-05
6.7168785e-05
6.6882632e-05
6.6654241e-05
6.6470575e-05
6.6322379e-05
6.6203e-05
6.6107576e-05
6.6032828e-05
6.5976131e-05
6.5937926e-05
6.591396e-05
6.5922898e-05
6.5937382e-05
6.5926164e-05
6.7695896e-05
0.0079864565
0.014717133
0.014662693
0.013962081
0.013363974
0.012847202
0.012393862
0.011996706
0.01164854
0.01134115
0.011067122
0.010820799
0.010598164
0.010395686
0.01021004
0.0100388
0.0098801624
0.0097325365
0.0095946064
0.0094652804
0.0093436254
0.0092288442
0.009120239
0.0090171877
0.0089191791
0.0088257589
0.0087365069
0.0086510786
0.0085691714
0.0084904975
0.008414803
0.008341873
0.0082715086
0.0082035187
0.0081377375
0.0080740212
0.0080122334
0.0079522426
0.0078939316
0.0078371991
0.0077819506
0.0077280926
0.0076755373
0.0076242099
0.0075740417
0.0075249651
0.0074769142
0.0074298287
0.0073836557
0.0073383453
0.007293848
0.0072501151
0.0072071021
0.0071647695
0.007123079
0.0070819925
0.0070414724
0.0070014837
0.0069619948
0.006922975
0.0068843932
0.0068462186
0.006808422
0.0067709765
0.0067338556
0.0066970324
0.00666048
0.006624172
0.006588084
0.0065521913
0.0065164688
0.0064808905
0.0064454314
0.0064100669
0.0063747721
0.0063395209
0.0063042866
0.0062690425
0.006233762
0.006198417
0.0061629778
0.0061274141
0.0060916951
0.0060557884
0.0060196593
0.0059832717
0.005946589
0.0059095695
0.0058721899
0.0058351713
0.0057996346
0.0057658885
0.0057337891
0.0057032077
0.0056740259
0.0056461369
0.0056194447
0.0055938634
0.0055693158
0.005545732
0.0055230481
0.0055012054
0.0054801499
0.0054598288
0.005440198
0.0054211936
0.0054028071
0.0053848502
0.005367601
0.0053500134
0.0053348382
0.0053096646
0.00011160991
8.3111027e-05
7.4437803e-05
7.0877444e-05
6.8915366e-05
6.762412e-05
6.6705311e-05
6.602472e-05
6.5506415e-05
6.5103193e-05
6.4784316e-05
6.4529061e-05
6.4323041e-05
6.4156013e-05
6.4020588e-05
6.3911333e-05
6.3824524e-05
6.3757157e-05
6.3709414e-05
6.3676411e-05
6.3678019e-05
6.3678806e-05
6.3682766e-05
6.5323959e-05
0.0072601166
0.014684278
0.014876927
0.01420837
0.013618907
0.01310388
0.012649793
0.012250813
0.01190031
0.01159036
0.011313705
0.011064749
0.010839516
0.010634529
0.010446467
0.010272887
0.010111992
0.0099621947
0.0098221751
0.009690838
0.009567246
0.009450599
0.0093401962
0.0092354101
0.0091357259
0.0090406851
0.0089498631
0.0088629127
0.0087795283
0.0086994189
0.0086223286
0.0085480403
0.0084763527
0.0084070723
0.0083400319
0.0082750864
0.0082120973
0.008150931
0.0080914693
0.0080336097
0.0079772564
0.0079223143
0.0078686945
0.0078163212
0.0077651251
0.0077150373
0.0076659909
0.0076179246
0.007570785
0.0075245216
0.0074790838
0.0074344222
0.0073904916
0.0073472519
0.0073046644
0.0072626903
0.0072212911
0.0071804313
0.007140079
0.0071002029
0.0070607714
0.0070217531
0.0069831181
0.0069448393
0.0069068897
0.006869242
0.0068318685
0.0067947426
0.0067578393
0.0067211336
0.0066845998
0.0066482114
0.0066119429
0.0065757694
0.0065396654
0.0065036043
0.0064675586
0.0064315016
0.0063954058
0.0063592426
0.0063229816
0.0062865919
0.0062500422
0.0062132992
0.0061763275
0.0061390902
0.0061015498
0.0060636634
0.0060254072
0.0059875193
0.0059511474
0.0059166074
0.0058837514
0.0058524479
0.0058225758
0.0057940257
0.0057666995
0.0057405091
0.0057153756
0.0056912274
0.0056679991
0.0056456305
0.0056240665
0.0056032531
0.005583145
0.0055636768
0.00554484
0.0055264413
0.0055087648
0.0054907417
0.0054751827
0.005449371
0.00011212924
8.2647838e-05
7.3263748e-05
6.9353439e-05
6.7184512e-05
6.575422e-05
6.4734491e-05
6.3977456e-05
6.3399618e-05
6.2949025e-05
6.2591771e-05
6.2304944e-05
6.2072592e-05
6.1883327e-05
6.1728897e-05
6.1603204e-05
6.1501998e-05
6.1421825e-05
6.1362552e-05
6.1318562e-05
6.1311024e-05
6.1295572e-05
6.1315255e-05
6.2810265e-05
0.006453659
0.014529744
0.015035266
0.014411517
0.013836399
0.013326031
0.01287314
0.012473782
0.012122074
0.011810477
0.011531948
0.011280994
0.011053704
0.010846675
0.010656608
0.010481053
0.010318225
0.010166549
0.010024705
0.0098916001
0.0097662938
0.0096479867
0.0095359767
0.0094296337
0.0093284402
0.0092319349
0.0091396901
0.0090513563
0.0089666261
0.008885206
0.0088068384
0.008731305
0.0086584021
0.0085879346
0.0085197343
0.0084536548
0.0083895559
0.0083273025
0.0082667753
0.0082078711