/*--------------------------------*- C++ -*----------------------------------*\
  =========                 |
  \\      /  F ield         | OpenFOAM: The Open Source CFD Toolbox
   \\    /   O peration     | Website:  https://openfoam.org
    \\  /    A nd           | Version:  12
     \\/     M anipulation  |
\*---------------------------------------------------------------------------*/
FoamFile
{
    format      ascii;
    class       volScalarField;
    location    "600";
    object      nut;
}
// * * * * * * * * * * * * * * * * * * * * * * * * * * * * * * * * * * * * * //

dimensions      [0 2 -1 0 0 0 0];

internalField   nonuniform List<scalar> 
7480
(
2.2885266e-06
3.6650745e-06
4.9325463e-06
5.9881021e-06
6.8068522e-06
7.4025506e-06
7.8066955e-06
8.0569413e-06
8.190359e-06
8.2393119e-06
8.2297789e-06
8.1813642e-06
8.1082099e-06
8.0201722e-06
7.9239447e-06
7.8240285e-06
7.7235655e-06
7.6249389e-06
7.5299519e-06
7.4401146e-06
7.3567992e-06
7.2812993e-06
7.2147833e-06
7.1581974e-06
7.1121557e-06
7.0766519e-06
7.0505473e-06
7.0319828e-06
7.018314e-06
7.0066514e-06
6.9946157e-06
6.9808204e-06
6.9649024e-06
6.947288e-06
6.9286594e-06
6.9095579e-06
6.8902088e-06
6.870577e-06
6.8505361e-06
6.8300331e-06
6.8091602e-06
6.78811e-06
6.7670834e-06
6.7462108e-06
6.7255386e-06
6.7050701e-06
6.6848071e-06
6.6647617e-06
6.6449472e-06
6.6253713e-06
6.6060338e-06
6.5869287e-06
6.5680497e-06
6.549394e-06
6.5309592e-06
6.5127393e-06
6.4947264e-06
6.4769164e-06
6.4593087e-06
6.4418957e-06
6.4246706e-06
6.4076275e-06
6.3907607e-06
6.3740662e-06
6.3575406e-06
6.3411806e-06
6.3249825e-06
6.308943e-06
6.2930583e-06
6.2773249e-06
6.2617393e-06
6.246298e-06
6.2309976e-06
6.2158349e-06
6.2008068e-06
6.1859101e-06
6.1711419e-06
6.1564992e-06
6.1419792e-06
6.1275792e-06
6.1132964e-06
6.0991282e-06
6.085072e-06
6.0711252e-06
6.0572854e-06
6.0435501e-06
6.0299166e-06
6.0163823e-06
6.0029447e-06
5.9896002e-06
5.9763467e-06
5.9631765e-06
5.9500934e-06
5.9370668e-06
5.9241437e-06
5.9111606e-06
5.8984416e-06
5.8850076e-06
5.8736589e-06
5.8526407e-06
9.0001134e-06
2.6198564e-06
1.2375494e-06
9.3206457e-07
9.4620525e-07
1.0674978e-06
1.2309994e-06
1.4151446e-06
1.6074079e-06
1.8004309e-06
1.9935673e-06
2.1885542e-06
2.3868312e-06
2.5938788e-06
2.8206117e-06
3.0831474e-06
3.4096489e-06
3.8224569e-06
4.2917782e-06
4.8152956e-06
5.3972981e-06
6.0407999e-06
6.7439641e-06
7.5075699e-06
8.3153604e-06
9.1379479e-06
9.9411978e-06
1.0689002e-05
1.1348004e-05
1.1903053e-05
1.2359964e-05
1.2737838e-05
1.306005e-05
1.3345368e-05
1.3603781e-05
1.383682e-05
1.4042039e-05
1.4218093e-05
1.4367414e-05
1.449594e-05
1.4610617e-05
1.4716683e-05
1.4816951e-05
1.4911589e-05
1.5000125e-05
1.5082651e-05
1.5159923e-05
1.5232802e-05
1.5301795e-05
1.5367025e-05
1.5428484e-05
1.5486279e-05
1.5540628e-05
1.5591725e-05
1.5639662e-05
1.5684505e-05
1.5726361e-05
1.576536e-05
1.5801514e-05
1.5835079e-05
1.5866094e-05
1.589462e-05
1.5920756e-05
1.5944611e-05
1.5966286e-05
1.5985871e-05
1.6003455e-05
1.6019116e-05
1.603293e-05
1.6044972e-05
1.6055314e-05
1.6064023e-05
1.607117e-05
1.6076817e-05
1.6081029e-05
1.6083867e-05
1.6085389e-05
1.6085652e-05
1.608471e-05
1.6082616e-05
1.607942e-05
1.6075171e-05
1.6069915e-05
1.6063698e-05
1.6056562e-05
1.604855e-05
1.60397e-05
1.6030053e-05
1.6019643e-05
1.6008509e-05
1.599668e-05
1.5984201e-05
1.5971076e-05
1.5957405e-05
1.5943045e-05
1.5928452e-05
1.5912725e-05
1.5897304e-05
1.5882621e-05
1.585288e-05
6.5251513e-05
3.0832934e-05
1.5352662e-05
8.7257978e-06
5.5675722e-06
3.8621046e-06
2.8513767e-06
2.2129235e-06
1.7904938e-06
1.501155e-06
1.2980138e-06
1.1530031e-06
1.0485406e-06
9.7339621e-07
9.2057298e-07
8.8570726e-07
8.6840389e-07
8.6382692e-07
9.0399344e-07
9.9896719e-07
1.1534724e-06
1.3736092e-06
1.6672108e-06
2.0229645e-06
2.46847e-06
3.0432406e-06
3.8245642e-06
4.7876323e-06
5.8946645e-06
7.1037535e-06
8.3727785e-06
9.6490065e-06
1.0870429e-05
1.198804e-05
1.297506e-05
1.3830823e-05
1.4575204e-05
1.5238061e-05
1.5846742e-05
1.6418183e-05
1.6957431e-05
1.7462309e-05
1.7929259e-05
1.8359214e-05
1.8757215e-05
1.912972e-05
1.9481761e-05
1.981583e-05
2.0132701e-05
2.0432943e-05
2.071771e-05
2.0988511e-05
2.124661e-05
2.1492807e-05
2.1727632e-05
2.195162e-05
2.2165359e-05
2.2369391e-05
2.2564126e-05
2.2749735e-05
2.2926711e-05
2.3095493e-05
2.3256448e-05
2.3409902e-05
2.3556156e-05
2.3695488e-05
2.3828162e-05
2.3954423e-05
2.4074502e-05
2.4188622e-05
2.4296994e-05
2.4399823e-05
2.4497305e-05
2.4589631e-05
2.4676984e-05
2.4759543e-05
2.4837478e-05
2.4910956e-05
2.4980137e-05
2.5045177e-05
2.5106226e-05
2.516343e-05
2.5216929e-05
2.5266861e-05
2.5313358e-05
2.5356548e-05
2.5396554e-05
2.5433498e-05
2.5467495e-05
2.5498662e-05
2.55271e-05
2.5552939e-05
2.5576234e-05
2.5597228e-05
2.56157e-05
2.5632559e-05
2.5646026e-05
2.56604e-05
2.5667748e-05
2.567962e-05
0.00010717176
8.5819991e-05
6.2980359e-05
4.5584078e-05
3.3737033e-05
2.5740497e-05
2.0212616e-05
1.6278351e-05
1.3401782e-05
1.1248426e-05
9.6030386e-06
8.3222754e-06
7.307606e-06
6.4901053e-06
5.8195319e-06
5.2589458e-06
4.7796966e-06
4.3590256e-06
3.9799456e-06
3.6334339e-06
3.2997288e-06
2.9982489e-06
2.7031662e-06
2.4233383e-06
2.16251e-06
1.9338843e-06
1.7505171e-06
1.632715e-06
1.6647398e-06
1.8788808e-06
2.2555875e-06
2.8084153e-06
3.5792138e-06
4.6495436e-06
5.9560482e-06
7.4023547e-06
8.9295785e-06
1.0461972e-05
1.192375e-05
1.3264949e-05
1.4468487e-05
1.5547147e-05
1.6530924e-05
1.7450589e-05
1.8325942e-05
1.9162795e-05
1.9958437e-05
2.0709619e-05
2.1417435e-05
2.2087029e-05
2.2724281e-05
2.3333097e-05
2.3915163e-05
2.4471391e-05
2.5003113e-05
2.5512105e-05
2.5999989e-05
2.6467947e-05
2.6916884e-05
2.7347592e-05
2.7760944e-05
2.8157767e-05
2.8538788e-05
2.8904669e-05
2.925603e-05
2.9593444e-05
2.9917438e-05
3.0228502e-05
3.0527096e-05
3.0813655e-05
3.1088592e-05
3.1352296e-05
3.1605145e-05
3.1847495e-05
3.2079694e-05
3.2302074e-05
3.2514955e-05
3.2718647e-05
3.2913451e-05
3.3099657e-05
3.3277544e-05
3.3447386e-05
3.3609449e-05
3.376399e-05
3.3911258e-05
3.4051497e-05
3.4184943e-05
3.4311824e-05
3.4432364e-05
3.4546784e-05
3.4655287e-05
3.4758106e-05
3.485538e-05
3.4947484e-05
3.5034195e-05
3.5116796e-05
3.519269e-05
3.5269667e-05
3.5326278e-05
3.5427121e-05
0.00011689283
0.00011108932
0.00010074173
8.8164885e-05
7.5765978e-05
6.4787145e-05
5.5539574e-05
4.7905199e-05
4.1636725e-05
3.6481759e-05
3.2222401e-05
2.8681113e-05
2.5715998e-05
2.3213048e-05
2.1082927e-05
1.9254773e-05
1.7671072e-05
1.628485e-05
1.5057492e-05
1.3955854e-05
1.2952432e-05
1.2023898e-05
1.1148369e-05
1.0305712e-05
9.4746674e-06
8.6476321e-06
7.7921629e-06
6.939375e-06
6.0700993e-06
5.2366692e-06
4.4637781e-06
3.7765842e-06
3.2161863e-06
2.7957597e-06
2.5791957e-06
2.675231e-06
3.0138758e-06
3.6206473e-06
4.5424608e-06
5.8203946e-06
7.328643e-06
8.9773657e-06
1.0679215e-05
1.2343753e-05
1.3910196e-05
1.5354863e-05
1.6686999e-05
1.7933537e-05
1.9120932e-05
2.0263382e-05
2.1362462e-05
2.2414529e-05
2.3418242e-05
2.4376798e-05
2.5295413e-05
2.6178106e-05
2.7026869e-05
2.7842866e-05
2.8627589e-05
2.9382831e-05
3.0110208e-05
3.0810981e-05
3.1486251e-05
3.2137102e-05
3.276457e-05
3.3369584e-05
3.3952981e-05
3.4515544e-05
3.5058006e-05
3.5581053e-05
3.6085326e-05
3.6571433e-05
3.7039952e-05
3.7491431e-05
3.7926395e-05
3.8345348e-05
3.8748775e-05
3.9137141e-05
3.9510898e-05
3.9870481e-05
4.0216314e-05
4.0548807e-05
4.086836e-05
4.1175362e-05
4.1470191e-05
4.1753215e-05
4.2024795e-05
4.228528e-05
4.2535012e-05
4.2774329e-05
4.3003549e-05
4.3223021e-05
4.3432984e-05
4.3633947e-05
4.382571e-05
4.4009937e-05
4.4183049e-05
4.4357491e-05
4.4492126e-05
4.473256e-05
0.00011907937
0.00011777969
0.00011471734
0.00010965148
0.00010302199
9.5558758e-05
8.7915825e-05
8.0532343e-05
7.3647478e-05
6.7362151e-05
6.1694856e-05
5.6620004e-05
5.2092638e-05
4.8058641e-05
4.4462829e-05
4.1252782e-05
3.838013e-05
3.5801003e-05
3.3476012e-05
3.1369042e-05
2.9448171e-05
2.7683263e-05
2.6047209e-05
2.4513853e-05
2.3059577e-05
2.1664474e-05
2.0302894e-05
1.8952959e-05
1.7590447e-05
1.6203654e-05
1.4783308e-05
1.3319266e-05
1.1839268e-05
1.0338759e-05
8.8577473e-06
7.4794817e-06
6.2414683e-06
5.194229e-06
4.3875191e-06
3.8219879e-06
3.6543621e-06
3.8376498e-06
4.3673475e-06
5.283853e-06
6.6120654e-06
8.1972226e-06
9.954629e-06
1.1778658e-05
1.3578303e-05
1.5295807e-05
1.6913621e-05
1.8444112e-05
1.9910028e-05
2.1327351e-05
2.2699869e-05
2.4024502e-05
2.5299226e-05
2.6526171e-05
2.7709504e-05
2.8852434e-05
2.9956582e-05
3.1023129e-05
3.2053617e-05
3.3049743e-05
3.4012965e-05
3.4944488e-05
3.5845441e-05
3.6716922e-05
3.7559948e-05
3.8375447e-05
3.916429e-05
3.9927302e-05
4.0665263e-05
4.1378908e-05
4.2068938e-05
4.2736026e-05
4.3380812e-05
4.4003916e-05
4.4605933e-05
4.5187439e-05
4.5748994e-05
4.6291141e-05
4.6814408e-05
4.7319312e-05
4.7806355e-05
4.8276028e-05
4.872881e-05
4.9165172e-05
4.9585572e-05
4.9990467e-05
5.0380287e-05
5.0755497e-05
5.1116445e-05
5.1463767e-05
5.1797297e-05
5.2119106e-05
5.2424405e-05
5.273156e-05
5.2973742e-05
5.3405072e-05
0.00012007617
0.00011970274
0.00011886951
0.00011726247
0.00011470341
0.00011121363
0.00010697078
0.00010221742
9.7189858e-05
9.2082304e-05
8.7037981e-05
8.2153937e-05
7.7491096e-05
7.3083416e-05
6.8945796e-05
6.5080211e-05
6.1480113e-05
5.8133495e-05
5.5025062e-05
5.213731e-05
4.9451782e-05
4.6949223e-05
4.4610159e-05
4.2414891e-05
4.0343558e-05
3.8376875e-05
3.6494711e-05
3.4675394e-05
3.2895979e-05
3.1133474e-05
2.9368555e-05
2.7580801e-05
2.5760368e-05
2.3891537e-05
2.1960731e-05
1.9962077e-05
1.7927856e-05
1.5856493e-05
1.3809197e-05
1.1812954e-05
9.9577889e-06
8.2977659e-06
6.8944359e-06
5.8137247e-06
5.0581199e-06
4.8266004e-06
5.0027709e-06
5.6168309e-06
6.7264422e-06
8.2100141e-06
9.9536446e-06
1.1851025e-05
1.3794629e-05
1.570483e-05
1.7544061e-05
1.9310745e-05
2.1019765e-05
2.2683085e-05
2.4302537e-05
2.5874486e-05
2.7396953e-05
2.887165e-05
3.0301516e-05
3.1688506e-05
3.3033686e-05
3.4338181e-05
3.5603404e-05
3.6830716e-05
3.8021273e-05
3.9176142e-05
4.0296374e-05
4.1382967e-05
4.2436849e-05
4.3458902e-05
4.444997e-05
4.5410859e-05
4.634234e-05
4.7245155e-05
4.8120019e-05
4.8967625e-05
4.9788645e-05
5.0583734e-05
5.1353529e-05
5.2098654e-05
5.2819717e-05
5.3517316e-05
5.4192034e-05
5.4844447e-05
5.5475118e-05
5.6084609e-05
5.6673453e-05
5.7242223e-05
5.7791364e-05
5.8321635e-05
5.8832895e-05
5.9327651e-05
5.9799681e-05
6.0274439e-05
6.0653918e-05
6.1327221e-05
0.00012105481
0.00012082737
0.00012050189
0.00011996127
0.00011906733
0.00011770879
0.00011583067
0.00011344342
0.00011060815
0.00010741409
0.00010395884
0.00010033497
9.6623191e-05
9.2889826e-05
8.9186982e-05
8.5554013e-05
8.2019463e-05
7.860301e-05
7.5317234e-05
7.2168998e-05
6.9160682e-05
6.6291081e-05
6.355613e-05
6.0949444e-05
5.8462669e-05
5.6085902e-05
5.38079e-05
5.1615862e-05
4.9495325e-05
4.7430302e-05
4.5404215e-05
4.3401997e-05
4.1396735e-05
3.9366759e-05
3.7295156e-05
3.516717e-05
3.2973431e-05
3.0700011e-05
2.8353395e-05
2.5926274e-05
2.3454698e-05
2.0935728e-05
1.8414247e-05
1.5952687e-05
1.3584445e-05
1.1431758e-05
9.5321934e-06
7.9875046e-06
6.8158416e-06
6.1879377e-06
6.0881072e-06
6.4981704e-06
7.470296e-06
8.8899691e-06
1.0638365e-05
1.260079e-05
1.46593e-05
1.6722695e-05
1.8743969e-05
2.0714129e-05
2.264056e-05
2.4528077e-05
2.6374033e-05
2.8173851e-05
2.9926037e-05
3.1631815e-05
3.3292602e-05
3.490911e-05
3.6481971e-05
3.8012134e-05
3.9500643e-05
4.0948439e-05
4.2356417e-05
4.372548e-05
4.5056512e-05
4.6350357e-05
4.7607835e-05
4.8829745e-05
5.0016861e-05
5.116994e-05
5.2289719e-05
5.3376921e-05
5.4432252e-05
5.5456407e-05
5.6450066e-05
5.7413901e-05
5.8348572e-05
5.9254733e-05
6.0133027e-05
6.0984095e-05
6.1808556e-05
6.2607066e-05
6.3380155e-05
6.4128685e-05
6.4852525e-05
6.5554639e-05
6.6227167e-05
6.6903673e-05
6.7450027e-05
6.8415709e-05
0.0001221752
0.00012196206
0.00012172555
0.00012143872
0.00012105136
0.00012049897
0.00011971677
0.00011865412
0.0001172833
0.00011560131
0.00011362619
0.00011139087
0.00010893673
0.00010630823
0.00010354907
0.00010069981
9.7796553e-05
9.4870406e-05
9.1947494e-05
8.9049153e-05
8.6192318e-05
8.3389957e-05
8.065149e-05
7.7983184e-05
7.5388476e-05
7.2868273e-05
7.0421272e-05
6.8044131e-05
6.5731505e-05
6.3476157e-05
6.1269031e-05
5.910087e-05
5.6958043e-05
5.4824871e-05
5.2685676e-05
5.0525289e-05
4.8329691e-05
4.6085547e-05
4.37729e-05
4.1373566e-05
3.8884965e-05
3.6304797e-05
3.3605962e-05
3.0858856e-05
2.8015381e-05
2.5138199e-05
2.2247863e-05
1.9409399e-05
1.6654895e-05
1.4100832e-05
1.1826244e-05
9.9374886e-06
8.474809e-06
7.6219182e-06
7.3706543e-06
7.7111936e-06
8.6790051e-06
1.0123751e-05
1.1945794e-05
1.4012959e-05
1.6197656e-05
1.8407637e-05
2.0598252e-05
2.2759098e-05
2.489032e-05
2.6988504e-05
2.9047131e-05
3.1061755e-05
3.3031238e-05
3.4955661e-05
3.6834927e-05
3.8668993e-05
4.0458202e-05
4.2203111e-05
4.39043e-05
4.5562383e-05
4.7178028e-05
4.8751922e-05
5.0284759e-05
5.1777242e-05
5.3230075e-05
5.4643961e-05
5.6019601e-05
5.7357694e-05
5.8658935e-05
5.9924016e-05
6.1153625e-05
6.234845e-05
6.3509174e-05
6.4636482e-05
6.5731044e-05
6.6793569e-05
6.7824642e-05
6.88252e-05
6.9795104e-05
7.0737772e-05
7.164354e-05
7.2554947e-05
7.3297274e-05
7.4604767e-05
0.00012344643
0.00012323159
0.00012300559
0.0001227662
0.00012250131
0.00012218861
0.00012179711
0.00012129151
0.00012063762
0.00011980739
0.00011878214
0.00011755378
0.00011612427
0.0001145039
0.00011270913
0.00011076043
0.00010868036
0.00010649208
0.00010421827
0.00010188028
9.9497702e-05
9.7088022e-05
9.4666487e-05
9.2246042e-05
8.9837339e-05
8.7448766e-05
8.5086555e-05
8.2754907e-05
8.0456026e-05
7.8190225e-05
7.5955901e-05
7.3750172e-05
7.1568036e-05
6.9402169e-05
6.7243463e-05
6.508161e-05
6.290557e-05
6.0704368e-05
5.8464446e-05
5.6170046e-05
5.380826e-05
5.1370333e-05
4.8838841e-05
4.622245e-05
4.3489643e-05
4.0644931e-05
3.7679746e-05
3.4634799e-05
3.1489545e-05
2.8299051e-05
2.5096154e-05
2.1944807e-05
1.8887152e-05
1.6051114e-05
1.3531492e-05
1.144203e-05
9.842613e-06
8.9727638e-06
8.7356856e-06
9.1910643e-06
1.0283577e-05
1.1883049e-05
1.386856e-05
1.609338e-05
1.8429877e-05
2.0798374e-05
2.3164917e-05
2.5518347e-05
2.7850642e-05
3.0152343e-05
3.241608e-05
3.463815e-05
3.6816799e-05
3.8950716e-05
4.1038974e-05
4.3081183e-05
4.5077289e-05
4.70274e-05
4.8931766e-05
5.0790753e-05
5.2604804e-05
5.4374416e-05
5.6100129e-05
5.7782517e-05
5.9422176e-05
6.1019725e-05
6.2575799e-05
6.4091045e-05
6.5566121e-05
6.70017e-05
6.8398449e-05
6.9757081e-05
7.1078199e-05
7.2362771e-05
7.3610622e-05
7.4825605e-05
7.5996105e-05
7.7174373e-05
7.8141026e-05
7.983853e-05
0.00012486442
0.00012464704
0.00012442024
0.00012418679
0.0001239453
0.00012369032
0.0001234117
0.00012309457
0.00012272035
0.00012226857
0.00012171906
0.00012105409
0.00012025991
0.00011932765
0.00011825348
0.00011703836
0.00011568731
0.00011420861
0.00011261295
0.00011091259
0.00010912064
0.0001072505
0.00010531531
0.00010332764
0.00010129913
9.9240318e-05
9.7160431e-05
9.5067355e-05
9.2967542e-05
9.0865994e-05
8.8766206e-05
8.6670329e-05
8.4579023e-05
8.2491238e-05
8.0404158e-05
7.8313324e-05
7.6212832e-05
7.4095832e-05
7.1954068e-05
6.9777335e-05
6.7554523e-05
6.5275681e-05
6.292774e-05
6.0504874e-05
5.7991832e-05
5.5377957e-05
5.2653127e-05
4.9820437e-05
4.6870452e-05
4.3771037e-05
4.0571229e-05
3.7251222e-05
3.3831167e-05
3.0364418e-05
2.6893326e-05
2.3487974e-05
2.0204279e-05
1.7202744e-05
1.4580419e-05
1.243567e-05
1.0954668e-05
1.0221175e-05
1.0224363e-05
1.097416e-05
1.2341642e-05
1.4218966e-05
1.6447142e-05
1.8873268e-05
2.1389798e-05
2.3940548e-05
2.6500477e-05
2.9054056e-05
3.1587537e-05
3.4090441e-05
3.6556472e-05
3.8981816e-05
4.136371e-05
4.3700199e-05
4.5990069e-05
4.8232592e-05
5.0427351e-05
5.2574179e-05
5.4673099e-05
5.6724271e-05
5.8727964e-05
6.0684531e-05
6.2594394e-05
6.4458029e-05
6.6275957e-05
6.8048737e-05
6.9776951e-05
7.1461243e-05
7.3102168e-05
7.4700661e-05
7.625647e-05
7.777384e-05
7.9239077e-05
8.0714764e-05
8.1933101e-05
8.4067309e-05
0.00012642574
0.00012620608
0.00012597739
0.00012574324
0.0001255044
0.00012526015
0.00012500803
0.00012474343
0.00012445926
0.00012414599
0.00012379209
0.0001233849
0.00012291155
0.00012236005
0.00012172004
0.00012098348
0.00012014492
0.00011920162
0.00011815341
0.00011700244
0.00011575281
0.00011441019
0.00011298143
0.00011147412
0.0001098963
0.00010825611
0.0001065615
0.00010482006
0.00010303879
0.00010122401
9.9381185e-05
9.7514944e-05
9.5628936e-05
9.3725711e-05
9.1806575e-05
8.9871484e-05
8.7919026e-05
8.594657e-05
8.3950254e-05
8.1924744e-05
7.9863232e-05
7.775836e-05
7.5600973e-05
7.3383338e-05
7.1095438e-05
6.8726718e-05
6.6265987e-05
6.370594e-05
6.1039351e-05
5.8248121e-05
5.5333371e-05
5.2286634e-05
4.9092745e-05
4.5778352e-05
4.2315167e-05
3.8732469e-05
3.5053915e-05
3.1335591e-05
2.7642961e-05
2.4035229e-05
2.0636075e-05
1.7589657e-05
1.5013019e-05
1.3061343e-05
1.192552e-05
1.1570282e-05
1.2037155e-05
1.3218535e-05
1.5013174e-05
1.7250469e-05
1.975958e-05
2.2413612e-05
2.5139152e-05
2.7898141e-05
3.066658e-05
3.3425736e-05
3.616197e-05
3.8866488e-05
4.153343e-05
4.4158552e-05
4.673884e-05
4.9272231e-05
5.1757301e-05
5.419309e-05
5.6578995e-05
5.8914683e-05
6.1200029e-05
6.3435066e-05
6.5619957e-05
6.775497e-05
6.9840448e-05
7.1876835e-05
7.3864534e-05
7.5804349e-05
7.7695877e-05
7.9543687e-05
8.1331873e-05
8.3133877e-05
8.4629969e-05
8.7245756e-05
0.00012812738
0.00012790564
0.00012767507
0.00012743939
0.00012719964
0.00012695608
0.00012670834
0.00012645537
0.00012619508
0.00012592411
0.00012563766
0.00012532953
0.00012499229
0.00012461768
0.00012419712
0.00012372216
0.00012318498
0.00012257882
0.00012189823
0.00012113929
0.00012029962
0.00011937836
0.0001183761
0.00011729465
0.00011613689
0.0001149065
0.00011360778
0.00011224544
0.00011082436
0.00010934946
0.00010782553
0.00010625712
0.0001046484
0.00010300304
0.00010132404
9.9613622e-05
9.7873059e-05
9.6102661e-05
9.4301733e-05
9.2468479e-05
9.0599852e-05
8.8691817e-05
8.6738953e-05
8.4735408e-05
8.2674306e-05
8.0547767e-05
7.8346759e-05
7.6062596e-05
7.3687434e-05
7.1209232e-05
6.8619468e-05
6.5909093e-05
6.3066457e-05
6.0090109e-05
5.6965494e-05
5.3676347e-05
5.0256294e-05
4.6679561e-05
4.2953055e-05
3.9108601e-05
3.5180851e-05
3.124067e-05
2.7366333e-05
2.3656774e-05
2.0285943e-05
1.7374233e-05
1.5090332e-05
1.3655725e-05
1.3056704e-05
1.3337062e-05
1.4418738e-05
1.619442e-05
1.8479988e-05
2.109226e-05
2.3892812e-05
2.6797077e-05
2.9756781e-05
3.2740273e-05
3.5724195e-05
3.8692094e-05
4.1632939e-05
4.4539015e-05
4.7404723e-05
5.0226051e-05
5.300013e-05
5.5724898e-05
5.8398888e-05
6.102109e-05
6.3590837e-05
6.6107733e-05
6.8571583e-05
7.0982393e-05
7.3340214e-05
7.5645552e-05
7.7897723e-05
8.0101502e-05
8.2238615e-05
8.4393804e-05
8.6192078e-05
8.9332083e-05
0.00012996642
0.00012974267
0.00012951028
0.00012927299
0.00012903181
0.00012878712
0.000128539
0.00012828732
0.00012803162
0.00012777098
0.00012750382
0.00012722775
0.00012693952
0.00012663499
0.00012630922
0.00012595664
0.00012557132
0.00012514717
0.0001246783
0.00012415923
0.00012358511
0.00012295189
0.00012225643
0.00012149654
0.00012067099
0.00011977941
0.00011882228
0.00011780077
0.00011671665
0.00011557216
0.00011436987
0.00011311263
0.00011180336
0.000110445
0.00010904034
0.00010759192
0.00010610183
0.00010457163
0.00010300228
0.000101394
9.9746162e-05
9.8057284e-05
9.6324842e-05
9.4545477e-05
9.2714967e-05
9.0828171e-05
8.8878854e-05
8.6860044e-05
8.4764736e-05
8.2584207e-05
8.0309669e-05
7.7932109e-05
7.5440908e-05
7.2828259e-05
7.0083281e-05
6.7192173e-05
6.4153965e-05
6.0959404e-05
5.7577194e-05
5.4058783e-05
5.0361597e-05
4.6505393e-05
4.250273e-05
3.838852e-05
3.4235332e-05
3.0130465e-05
2.617464e-05
2.2555619e-05
1.9396556e-05
1.6910805e-05
1.5291555e-05
1.4576016e-05
1.4789577e-05
1.5884249e-05
1.7727691e-05
2.0121531e-05
2.2875461e-05
2.5846561e-05
2.8944741e-05
3.2114882e-05
3.5319571e-05
3.8531988e-05
4.1733536e-05
4.4911389e-05
4.805637e-05
5.1161815e-05
5.422288e-05
5.7236017e-05
6.0198622e-05
6.3108794e-05
6.5965165e-05
6.8766796e-05
7.1513e-05
7.4203663e-05
7.6837576e-05
7.9419513e-05
8.1928604e-05
8.4461245e-05
8.6583966e-05
9.0287996e-05
0.00013193982
0.00013171413
0.00013147992
0.00013124098
0.00013099829
0.00013075217
0.00013050276
0.00013025013
0.00012999423
0.00012973488
0.00012947166
0.00012920383
0.00012893023
0.00012864918
0.00012835845
0.00012805521
0.00012773608
0.00012739723
0.00012703443
0.00012664327
0.00012621927
0.00012575807
0.00012525556
0.00012470803
0.00012411224
0.00012346551
0.00012276574
0.00012201146
0.00012120176
0.00012033629
0.00011941519
0.00011843907
0.00011740891
0.00011632599
0.00011519178
0.00011400787
0.00011277582
0.00011149707
0.00011017283
0.00010880397
0.0001073909
0.00010593351
0.000104431
0.0001028819
0.00010128398
9.9634277e-05
9.7928955e-05
9.616328e-05
9.4331988e-05
9.2428808e-05
9.0446731e-05
8.8378177e-05
8.6214393e-05
8.3946919e-05
8.156637e-05
7.9060967e-05
7.6421946e-05
7.3640628e-05
7.0698638e-05
6.7597703e-05
6.4322899e-05
6.0866069e-05
5.7223629e-05
5.3394616e-05
4.9400291e-05
4.5243866e-05
4.0953259e-05
3.6611563e-05
3.2297919e-05
2.8147021e-05
2.4344003e-05
2.1026118e-05
1.8465042e-05
1.6788178e-05
1.6085871e-05
1.6370423e-05
1.7602854e-05
1.9610896e-05
2.2183224e-05
2.5127238e-05
2.8301743e-05
3.161597e-05
3.501132e-05
3.8447146e-05
4.1894821e-05
4.5334472e-05
4.875207e-05
5.2137458e-05
5.5483226e-05
5.8783915e-05
6.2035471e-05
6.5234892e-05
6.8379903e-05
7.146912e-05
7.4500307e-05
7.7477842e-05
8.0377878e-05
8.3308691e-05
8.5775193e-05
9.0079282e-05
0.00013404452
0.00013381689
0.00013358083
0.00013334019
0.00013309591
0.00013284826
0.00013259739
0.00013234334
0.00013208618
0.0001318259
0.00013156241
0.00013129553
0.00013102491
0.00013074998
0.00013046988
0.00013018344
0.00012988909
0.00012958488
0.00012926844
0.00012893705
0.00012858769
0.00012821709
0.00012782183
0.00012739846
0.0001269436
0.00012645397
0.00012592655
0.00012535861
0.00012474777
0.000124092
0.00012338972
0.0001226397
0.00012184116
0.00012099367
0.00012009711
0.00011915168
0.00011815776
0.00011711587
0.00011602659
0.00011489045
0.00011370788
0.00011247907
0.00011120388
0.00010988174
0.00010851164
0.00010709198
0.00010562058
0.00010409451
0.00010251024
0.00010086348
9.9149158e-05
9.7361546e-05
9.5493955e-05
9.353919e-05
9.1489414e-05
8.9335272e-05
8.7067349e-05
8.4676696e-05
8.2149787e-05
7.9478244e-05
7.6650302e-05
7.3655606e-05
7.0480189e-05
6.7111966e-05
6.3549961e-05
5.978809e-05
5.5820546e-05
5.1667215e-05
4.7348809e-05
4.288312e-05
3.8360717e-05
3.3860413e-05
2.9565507e-05
2.5641372e-05
2.2274375e-05
1.9757362e-05
1.816015e-05
1.7606806e-05
1.8125238e-05
1.9616429e-05
2.1881491e-05
2.4699865e-05
2.7882578e-05
3.1295291e-05
3.4849997e-05
3.8487498e-05
4.2166419e-05
4.5857857e-05
4.9541519e-05
5.3202838e-05
5.6831202e-05
6.04188e-05
6.3959786e-05
6.7450048e-05
7.0885232e-05
7.4268514e-05
7.7572353e-05
8.0916898e-05
8.374231e-05
8.8677177e-05
0.0001362773
0.0001360477
0.00013580974
0.00013556733
0.00013532137
0.00013507212
0.00013481967
0.00013456409
0.00013430542
0.00013404368
0.00013377888
0.00013351098
0.00013323989
0.00013296543
0.00013268733
0.00013240514
0.00013211825
0.00013182581
0.00013152672
0.00013121958
0.00013090273
0.00013057418
0.00013023173
0.00012987291
0.00012949512
0.00012909561
0.0001286716
0.0001282203
0.00012773901
0.00012722517
0.00012667638
0.0001260905
0.00012546563
0.00012480015
0.00012409275
0.00012334237
0.00012254821
0.00012170972
0.00012082651
0.00011989835
0.00011892506
0.00011790647
0.00011684234
0.00011573228
0.00011457563
0.00011337147
0.00011211847
0.00011081484
0.00010945829
0.00010804597
0.00010657441
0.00010503951
0.00010343642
0.00010175961
0.00010000295
9.8159228e-05
9.6220497e-05
9.4178645e-05
9.2023334e-05
8.9744881e-05
8.7332498e-05
8.4775133e-05
8.2059721e-05
7.9173256e-05
7.6103843e-05
7.2839539e-05
6.9365896e-05
6.5679291e-05
6.177834e-05
5.765566e-05
5.3330253e-05
4.8831314e-05
4.4188459e-05
3.9489379e-05
3.4838549e-05
3.0450683e-05
2.6481505e-05
2.3206097e-05
2.081353e-05
1.9453561e-05
1.9229053e-05
2.0128902e-05
2.1993573e-05
2.460011e-05
2.7725339e-05
3.119135e-05
3.4874887e-05
3.8693245e-05
4.2589362e-05
4.6523356e-05
5.0467274e-05
5.4401189e-05
5.8310637e-05
6.2185235e-05
6.6015979e-05
6.9803027e-05
7.3513674e-05
7.7279432e-05
8.0472474e-05
8.6060903e-05
0.00013863485
0.00013840321
0.00013816328
0.000137919
0.00013767126
0.0001374203
0.00013716619
0.00013690897
0.00013664868
0.00013638533
0.00013611894
0.00013584951
0.00013557701
0.00013530139
0.00013502255
0.00013474035
0.00013445457
0.00013416486
0.00013387078
0.00013357171
0.00013326684
0.00013295517
0.00013263548
0.00013230632
0.00013196601
0.0001316127
0.00013124434
0.00013085875
0.00013045365
0.0001300267
0.00012957554
0.00012909789
0.00012859153
0.00012805435
0.00012748442
0.00012687996
0.00012623939
0.00012556133
0.00012484458
0.00012408809
0.000123291
0.00012245252
0.00012157195
0.00012064859
0.00011968167
0.00011867035
0.00011761357
0.00011651004
0.00011535816
0.00011415597
0.00011290104
0.00011159049
0.00011022086
0.00010878812
0.00010728763
0.00010571402
0.0001040611
0.00010232221
0.0001004894
9.8554205e-05
9.6507312e-05
9.4338741e-05
9.2037168e-05
8.9590228e-05
8.6985124e-05
8.4208468e-05
8.1246854e-05
7.8084373e-05
7.4709866e-05
7.1110157e-05
6.7278529e-05
6.3214352e-05
5.8915033e-05
5.4398408e-05
4.9699238e-05
4.4879381e-05
4.0015855e-05
3.527131e-05
3.0834274e-05
2.6943693e-05
2.3863498e-05
2.1761592e-05
2.0815651e-05
2.1098547e-05
2.2507402e-05
2.4838356e-05
2.7850925e-05
3.1329928e-05
3.5114977e-05
3.9095953e-05
4.3197276e-05
4.7366266e-05
5.1566018e-05
5.57706e-05
5.9959965e-05
6.4126891e-05
6.8230198e-05
7.2411055e-05
7.5970002e-05
8.2222143e-05
0.0001411137
0.00014087995
0.00014063793
0.00014039166
0.00014014203
0.00013988925
0.00013963336
0.00013937439
0.00013911236
0.0001388473
0.0001385792
0.00013830807
0.00013803389
0.00013775664
0.00013747627
0.00013719274
0.00013690596
0.0001366158
0.00013632207
0.00013602453
0.00013572282
0.00013541648
0.00013510492
0.00013478739
0.00013446295
0.00013413052
0.00013378881
0.00013343637
0.0001330716
0.00013269273
0.00013229791
0.0001318852
0.0001314526
0.00013099811
0.00013051973
0.00013001552
0.00012948362
0.00012892226
0.00012832976
0.0001277046
0.00012704537
0.00012635075
0.00012561957
0.00012485068
0.00012404302
0.00012319551
0.00012230702
0.00012137636
0.00012040214
0.00011938282
0.00011831657
0.00011720123
0.00011603428
0.00011481276
0.00011353322
0.00011219169
0.00011078352
0.00010930352
0.00010774565
0.00010610315
0.00010436846
0.00010253327
0.00010058824
9.8522883e-05
9.6325771e-05
9.3984491e-05
9.1486015e-05
8.8815153e-05
8.5958395e-05
8.2899067e-05
7.9621376e-05
7.61126e-05
7.2361412e-05
6.8357823e-05
6.410041e-05
5.9600099e-05
5.4872815e-05
4.9974358e-05
4.4972475e-05
3.9978846e-05
3.5184582e-05
3.0806692e-05
2.7139644e-05
2.4380501e-05
2.2768577e-05
2.2448534e-05
2.3382906e-05
2.5402045e-05
2.8263728e-05
3.1724968e-05
3.5590141e-05
3.9719786e-05
4.4017582e-05
4.8416791e-05
5.2869256e-05
5.7349063e-05
6.179851e-05
6.6363644e-05
7.0268542e-05
7.7173086e-05
0.00014371025
0.00014347427
0.00014323005
0.00014298166
0.00014273
0.00014247525
0.00014221745
0.00014195661
0.00014169274
0.00014142584
0.00014115592
0.00014088297
0.00014060697
0.00014032792
0.00014004577
0.0001397605
0.00013947207
0.0001391804
0.00013888542
0.00013858703
0.00013828506
0.00013797932
0.00013766952
0.00013735531
0.00013703622
0.00013671165
0.00013638089
0.00013604309
0.00013569724
0.00013534219
0.00013497665
0.00013459923
0.00013420841
0.00013380258
0.00013338006
0.00013293913
0.00013247804
0.00013199504
0.00013148841
0.00013095645
0.00013039754
0.00012981009
0.00012919262
0.0001285437
0.00012786194
0.00012714603
0.00012639464
0.00012560646
0.00012478012
0.00012391416
0.000123007
0.00012205687
0.00012106177
0.00012001941
0.00011892718
0.00011778207
0.0001165806
0.0001153188
0.00011399212
0.00011259536
0.00011112261
0.00010956728
0.00010792192
0.00010617811
0.00010432644
0.00010235642
0.00010025669
9.8014215e-05
9.5615594e-05
9.3045701e-05
9.0287979e-05
8.7327595e-05
8.4145913e-05
8.0725646e-05
7.7054095e-05
7.3119933e-05
6.8912685e-05
6.4438264e-05
5.9710775e-05
5.4759059e-05
4.9657997e-05
4.4493263e-05
3.9430454e-05
3.4667716e-05
3.0501331e-05
2.7175276e-05
2.4972109e-05
2.4091592e-05
2.4563672e-05
2.6262003e-05
2.8954577e-05
3.2380328e-05
3.6312645e-05
4.0583169e-05
4.5072224e-05
4.9705532e-05
5.4388225e-05
5.9258146e-05
6.345482e-05
7.0961386e-05
0.00014642073
0.0001461824
0.00014593583
0.00014568518
0.00014543133
0.00014517447
0.00014491462
0.00014465176
0.00014438591
0.00014411705
0.00014384518
0.00014357029
0.00014329237
0.00014301138
0.00014272731
0.00014244013
0.0001421498
0.00014185628
0.00014155952
0.00014125945
0.00014095601
0.00014064908
0.00014033853
0.00014002418
0.0001397058
0.00013938308
0.00013905564
0.000138723
0.00013838458
0.00013803969
0.00013768753
0.00013732718
0.00013695763
0.00013657773
0.00013618625
0.00013578186
0.00013536315
0.00013492867
0.00013447687
0.00013400623
0.00013351517
0.00013300213
0.00013246557
0.00013190394
0.00013131576
0.00013069955
0.00013005386
0.00012937726
0.00012866831
0.00012792553
0.0001271474
0.00012633233
0.00012547856
0.00012458419
0.00012364712
0.00012266496
0.00012163502
0.00012055427
0.00011941922
0.00011822589
0.00011696978
0.00011564576
0.00011424805
0.00011277006
0.00011120437
0.00010954257
0.00010777533
0.00010589206
0.00010388117
0.00010172974
9.9423193e-05
9.6946652e-05
9.4282904e-05
9.1415149e-05
8.8322984e-05
8.4989126e-05
8.1395684e-05
7.7528892e-05
7.3377386e-05
6.8934971e-05
6.4214919e-05
5.9238015e-05
5.4060026e-05
4.8765419e-05
4.3497715e-05
3.8431954e-05
3.38501e-05
3.0039983e-05
2.7323037e-05
2.594142e-05
2.5986866e-05
2.7379527e-05
2.9905043e-05
3.3292719e-05
3.7288382e-05
4.1705018e-05
4.6361481e-05
5.1352861e-05
5.5717983e-05
6.3699462e-05
0.00014924124
0.00014900041
0.00014875135
0.00014849826
0.00014824206
0.00014798292
0.00014772085
0.00014745583
0.00014718784
0.00014691688
0.00014664292
0.00014636596