/*--------------------------------*- C++ -*----------------------------------*\
  =========                 |
  \\      /  F ield         | OpenFOAM: The Open Source CFD Toolbox
   \\    /   O peration     | Website:  https://openfoam.org
    \\  /    A nd           | Version:  12
     \\/     M anipulation  |
\*---------------------------------------------------------------------------*/
FoamFile
{
    format      ascii;
    class       volScalarField;
    location    "600";
    object      p;
}
// * * * * * * * * * * * * * * * * * * * * * * * * * * * * * * * * * * * * * //

dimensions      [0 2 -2 0 0 0 0];

internalField   nonuniform List<scalar> 
7480
(
0.0087574932
0.0080198195
0.0068941206
0.0063211587
0.006016153
0.0057379617
0.005473782
0.0052475201
0.005050955
0.0048736338
0.0047087891
0.0045542253
0.0044105896
0.0042724905
0.0041403286
0.0040125522
0.0038890501
0.0037725078
0.0036639626
0.0035628809
0.0034699767
0.0033860787
0.0033119607
0.0032483969
0.0031957281
0.0031529087
0.0031198154
0.0030947502
0.0030733786
0.0030526052
0.0030299338
0.0030042701
0.0029755635
0.0029456874
0.0029155081
0.0028840221
0.002851216
0.002816909
0.0027812845
0.0027453511
0.002709286
0.0026726331
0.002635608
0.0025984841
0.002561784
0.0025253301
0.0024886327
0.0024517001
0.0024150804
0.0023788037
0.0023422954
0.0023055733
0.0022690041
0.0022325905
0.0021959077
0.0021590025
0.0021221164
0.0020851742
0.0020478675
0.0020103798
0.0019727618
0.0019348015
0.0018965154
0.001857988
0.0018190975
0.0017797988
0.0017401687
0.0017000997
0.0016595694
0.0016186186
0.0015771456
0.0015351654
0.0014926625
0.001449584
0.001405936
0.0013616739
0.0013167917
0.0012712687
0.0012250767
0.001178205
0.00113064
0.0010823705
0.0010333893
0.00098369431
0.00093329068
0.00088219157
0.00083042652
0.00077803378
0.00072510089
0.00067169099
0.00061808185
0.00056422447
0.00051127063
0.00045784446
0.00041006469
0.00035651681
0.0003338919
0.00025955865
0.0005289163
-0.00042275536
0.008276374
0.0076126133
0.0067782419
0.0063199029
0.0060665731
0.0058205615
0.0055742257
0.0053535157
0.0051585259
0.0049777799
0.0048075946
0.0046467546
0.0044969718
0.0043530934
0.0042157289
0.0040838599
0.0039570735
0.0038363841
0.0037231192
0.0036179227
0.0035211733
0.0034333933
0.0033552896
0.0032875017
0.0032300237
0.0031816279
0.0031425641
0.0031118762
0.0030857371
0.0030613744
0.0030365445
0.0030100552
0.002981465
0.0029522437
0.0029228107
0.0028917974
0.0028591299
0.002824728
0.0027889163
0.0027527953
0.0027165517
0.0026797197
0.0026425098
0.0026051819
0.0025682624
0.0025315794
0.0024946514
0.0024574917
0.0024206483
0.0023841486
0.0023474184
0.0023104804
0.0022737033
0.0022370886
0.0022002102
0.002163117
0.002126051
0.0020889358
0.0020514628
0.0020138169
0.0019760474
0.0019379416
0.0018995169
0.0018608572
0.0018218401
0.0017824206
0.0017426752
0.0017024959
0.0016618605
0.0016208094
0.0015792406
0.0015371691
0.001494579
0.0014514173
0.0014076901
0.0013633522
0.0013183978
0.0012728058
0.0012265482
0.0011796136
0.0011319888
0.0010836621
0.0010346264
0.00098487932
0.00093442597
0.00088327941
0.00083146905
0.00077903307
0.00072605895
0.00067260969
0.00061896313
0.00056507
0.00051208262
0.00045862392
0.00041081581
0.00035723814
0.00033457503
0.00026033992
0.00052975755
-0.00042209295
0.0079991135
0.0075239728
0.0068433086
0.006369142
0.0060735317
0.005800593
0.0055368318
0.00530375
0.0051012343
0.0049169285
0.0047464479
0.0045881988
0.0044409104
0.0043020074
0.0041701174
0.0040444141
0.0039243824
0.00381032
0.0037037134
0.0036056461
0.003516315
0.0034360629
0.0033653722
0.0033046226
0.0032537143
0.0032115433
0.0031765217
0.0031469048
0.0031201715
0.003093614
0.0030653707
0.0030346688
0.0030013201
0.0029673941
0.0029340478
0.0029002428
0.0028658437
0.0028306159
0.0027946375
0.0027587412
0.0027227872
0.0026860829
0.0026488116
0.0026113003
0.0025741584
0.0025372482
0.0025001032
0.0024627426
0.0024257111
0.0023890255
0.002352111
0.0023149985
0.0022780566
0.0022412826
0.0022042467
0.0021670011
0.0021297887
0.0020925316
0.0020549196
0.0020171406
0.0019792426
0.0019410123
0.0019024678
0.0018636931
0.0018245648
0.0017850382
0.0017451901
0.0017049116
0.0016641809
0.0016230383
0.0015813812
0.0015392251
0.0014965538
0.001453314
0.0014095118
0.0013651019
0.0013200786
0.0012744203
0.0012280991
0.0011811035
0.0011334201
0.0010850373
0.0010359477
0.00098614906
0.00093564619
0.00088445214
0.00083259625
0.00078011662
0.00072710068
0.00067361134
0.0006199265
0.0005659966
0.00051297463
0.00045948192
0.00041164449
0.00035803297
0.0003353509
0.00026120192
0.00053064183
-0.00042142707
0.0077643483
0.0073694011
0.0067656243
0.0063126352
0.0060250667
0.0057716422
0.0055271672
0.0053100772
0.0051194054
0.0049439889
0.0047795739
0.0046256846
0.0044791442
0.0043410974
0.0042086877
0.0040816028
0.0039595317
0.0038428151
0.0037330054
0.0036311899
0.003537617
0.00345275
0.0033772363
0.0033117469
0.0032566629
0.0032115799
0.0031744039
0.0031435838
0.0031176772
0.0030936737
0.0030692307
0.0030430472
0.003014726
0.0029844198
0.0029523783
0.0029186476
0.002883125
0.0028457766
0.0028070475
0.0027684354
0.0027303346
0.0026922365
0.0026542226
0.0026164722
0.0025794058
0.0025426333
0.0025055219
0.0024680759
0.0024309008
0.0023940441
0.0023569466
0.0023196613
0.0022825554
0.0022456185
0.0022084193
0.0021710182
0.0021336586
0.0020962589
0.0020585062
0.0020205926
0.0019825649
0.0019442085
0.0019055428
0.0018666514
0.0018274098
0.0017877739
0.0017478206
0.0017074403
0.0016666114
0.0016253743
0.0015836259
0.0015413821
0.0014986262
0.001455305
0.0014114246
0.0013669394
0.0013218437
0.0012761159
0.0012297278
0.0011826681
0.001134923
0.001086481
0.0010373346
0.00098748139
0.00093692617
0.00088568188
0.0008337778
0.00078125194
0.00072819168
0.00067465983
0.00062093431
0.00056696533
0.00051390632
0.00046037742
0.00041250748
0.00035885993
0.00033615895
0.00026196164
0.00053151112
-0.00042082046
0.0075481843
0.0072124068
0.006693857
0.0062864289
0.0060110383
0.005766599
0.0055262299
0.0053100348
0.0051174926
0.0049397288
0.0047729605
0.0046168313
0.0044690927
0.0043304026
0.0041979942
0.0040714994
0.0039506145
0.0038355949
0.0037277044
0.0036278787
0.0035364146
0.0034537338
0.0033803481
0.0033167551
0.0032631366
0.00321885
0.0031817173
0.0031502218
0.003122846
0.003096666
0.0030697022
0.0030412639
0.0030117332
0.0029807873
0.0029488894
0.0029168699
0.002884153
0.0028503501
0.0028153385
0.002779195
0.0027420213
0.0027039331
0.0026650106
0.0026256766
0.0025869177
0.0025487621
0.0025107384
0.0024727912
0.0024354653
0.0023986358
0.0023615511
0.0023242171
0.0022870207
0.0022499663
0.0022126334
0.0021751017
0.0021376147
0.0021000856
0.0020622014
0.0020241626
0.0019860134
0.001947537
0.0019087551
0.0018697514
0.0018303998
0.0017906569
0.0017506005
0.0017101192
0.0016691925
0.0016278609
0.0015860203
0.0015436875
0.0015008455
0.0014574409
0.0014134799
0.0013689168
0.001323746
0.0012779456
0.0012314875
0.0011843603
0.0011365502
0.0010880456
0.0010388388
0.00098892753
0.00093831642
0.00088701837
0.00083506258
0.000782487
0.00072937896
0.00067580118
0.00062203156
0.00056802015
0.00051492055
0.00046135228
0.00041344533
0.00035975912
0.00033703073
0.00026274271
0.00053240711
-0.00042010372
0.007352625
0.0070707439
0.0066285961
0.0062579969
0.0059882845
0.0057477456
0.0055135787
0.0053016537
0.0051120234
0.0049371166
0.0047730969
0.0046194985
0.0044742996
0.0043374337
0.0042067193
0.0040816791
0.0039620898
0.0038481827
0.0037410305
0.0036415326
0.0035500966
0.0034671851
0.0033932619
0.0033287559
0.0032738308
0.00322792
0.0031891728
0.0031561425
0.0031273638
0.003100202
0.0030727858
0.0030443651
0.0030148686
0.0029837063
0.0029513173
0.0029183624
0.0028843238
0.0028493016
0.002813588
0.0027770708
0.0027402937
0.0027037761
0.0026672706
0.0026306376
0.0025937503
0.0025564217
0.002518579
0.0024800897
0.0024417951
0.0024040144
0.0023661897
0.0023283637
0.0022909464
0.0022538451
0.0022164927
0.0021789204
0.0021413711
0.0021037609
0.002065783
0.0020276523
0.0019894084
0.0019508328
0.0019119524
0.0018728523
0.0018334046
0.0017935668
0.0017534178
0.0017128449
0.0016718285
0.0016304095
0.0015884829
0.0015460664
0.0015031426
0.0014596581
0.0014156195
0.0013709807
0.0013257364
0.0012798647
0.0012333373
0.0011861429
0.0011382677
0.0010897001
0.0010404324
0.0009904621
0.00093979401
0.00088844091
0.00083643197
0.0007838051
0.00073064756
0.00067702204
0.00062320637
0.00056915056
0.00051600801
0.00046239832
0.00041445082
0.00036072414
0.00033796097
0.00026358101
0.00053330855
-0.00041922575
0.0071749067
0.0069377474
0.0065609039
0.0062238585
0.0059624813
0.0057283023
0.0055019405
0.005294941
0.0051083077
0.0049356696
0.0047735514
0.0046213373
0.0044773038
0.0043411314
0.0042111516
0.0040868102
0.00396795
0.003854789
0.0037482632
0.0036492353
0.0035581386
0.0034754044
0.0034014714
0.0033367298
0.0032813007
0.0032346957
0.0031952413
0.0031614242
0.0031317997
0.0031039368
0.0030759769
0.0030470742
0.003017072
0.0029855386
0.0029529055
0.0029197633
0.0028857214
0.0028508523
0.0028152109
0.0027785956
0.0027415245
0.0027044264
0.0026672483
0.0026301004
0.0025928048
0.0025556691
0.002518947
0.0024823633
0.0024457369
0.0024088775
0.0023716008
0.0023337534
0.0022958859
0.0022582271
0.0022203746
0.0021824374
0.0021447055
0.0021070348
0.0020690241
0.0020308592
0.0019925682
0.0019539327
0.001914989
0.0018758231
0.0018363041
0.0017963925
0.0017561697
0.0017155213
0.0016744297
0.0016329361
0.0015909347
0.0015484446
0.0015054479
0.0014618914
0.0014177822
0.0013730738
0.0013277612
0.0012818226
0.0012352298
0.0011879714
0.0011400339
0.0010914054
0.0010420784
0.00099205057
0.00094132649
0.00088991902
0.00083785732
0.00078517927
0.00073197212
0.00067829854
0.00062443623
0.00057033531
0.00051714866
0.00046349661
0.0004155059
0.00036173792
0.00033893402
0.0002644574
0.00053417879
-0.00041817498
0.0070119075
0.0068110313
0.0064897537
0.0061851138
0.0059349173
0.005708403
0.0054898288
0.005287768
0.0051040725
0.0049336438
0.0047733415
0.004622495
0.0044796835
0.0043444366
0.0042154008
0.0040919833
0.003974054
0.0038618179
0.0037560893
0.0036576724
0.0035670085
0.0034845129
0.0034106083
0.0033456522
0.0032897329
0.0032423737
0.0032020385
0.0031672369
0.0031365719
0.0031078035
0.0030791199
0.0030496573
0.0030192357
0.0029874787
0.0029547062
0.0029214286
0.0028873151
0.0028523636
0.0028166094
0.0027799401
0.0027428409
0.0027057146
0.0026685466
0.0026313506
0.002593944
0.0025566202
0.0025195502
0.0024826669
0.0024455939
0.0024084607
0.0023716997
0.0023350797
0.0022984178
0.00226153
0.0022242186
0.0021864167
0.0021485002
0.0021105147
0.0020721898
0.0020337961
0.0019953913
0.0019567061
0.0019177346
0.0018785404
0.001838985
0.0017990318
0.0017587646
0.0017180661
0.0016769209
0.0016353718
0.0015933123
0.0015507633
0.0015077069
0.0014640901
0.0014199206
0.0013751519
0.0013297794
0.0012837813
0.0012371294
0.0011898128
0.0011418178
0.0010931328
0.0010437504
0.00099366805
0.00094289065
0.00089143103
0.00083931839
0.00078659063
0.00073333497
0.00067961415
0.00062570569
0.00057155993
0.00051832888
0.00046463436
0.0004165984
0.00036278905
0.00033993875
0.00026535633
0.00053498808
-0.00041693062
0.0068620888
0.0066905503
0.0064162217
0.0061421417
0.0059046864
0.0056866053
0.005476019
0.0052793634
0.0050990172
0.0049310978
0.0047728335
0.0046235542
0.0044820984
0.0043479098
0.0042198725
0.0040974103
0.0039804133
0.00386908
0.0037641221
0.003666286
0.0035760209
0.003493733
0.0034198264
0.0033546259
0.0032981894
0.0032500525
0.0032088162
0.0031730446
0.0031413707
0.0031117109
0.0030823257
0.0030523425
0.0030215305
0.0029895264
0.002956563
0.0029230897
0.0028888266
0.0028537473
0.0028179069
0.0027812272
0.002744133
0.0027070056
0.0026698332
0.0026326109
0.0025952047
0.0025578636
0.0025207437
0.0024837553
0.0024465591
0.0024093401
0.002372427
0.0023356392
0.002298623
0.0022614519
0.0022244652
0.0021875034
0.0021504078
0.0021129941
0.0020750921
0.0020368338
0.0019983556
0.0019594839
0.0019203218
0.0018810018
0.0018413841
0.0018014022
0.0017611154
0.0017203942
0.0016792232
0.001637645
0.001595551
0.001552964
0.0015098662
0.0014662054
0.0014219901
0.0013771737
0.0013317527
0.0012857053
0.0012390037
0.001191637
0.0011435918
0.0010948567
0.0010454244
0.00099529267
0.00094446631
0.00089295834
0.00084079801
0.00078802333
0.0007347215
0.00068095537
0.00062700225
0.00057281287
0.00051953795
0.00046580165
0.000417719
0.00036386891
0.00034096661
0.00026626865
0.00053570907
-0.00041546351
0.0067237875
0.0065760856
0.0063411992
0.0060953376
0.0058715275
0.0056625454
0.0054602356
0.0052694697
0.0050929177
0.0049278269
0.0047718386
0.0046243187
0.0044843346
0.0043513102
0.0042243281
0.0041028587
0.0039868091
0.003876375
0.0037721839
0.003674928
0.003585061
0.0035029801
0.0034290697
0.0033636249
0.0033066792
0.0032577842
0.003215666
0.003178944
0.0031462805
0.0031157366
0.0030856489
0.0030551344
0.0030239119
0.0029916302
0.0029584564
0.0029247819
0.00289037
0.0028551795
0.0028192664
0.0027825664
0.0027454556
0.0027082954
0.0026710814
0.0026338154
0.0025963922
0.0025590317
0.0025218856
0.0024848679
0.0024476794
0.0024104677
0.0023735045
0.0023366011
0.0022994653
0.0022622322
0.0022251695
0.0021880817
0.0021506993
0.0021131281
0.002075584
0.0020379069
0.0019999488
0.0019615274
0.0019226574
0.0018834357
0.0018437577
0.0018036563
0.0017632664
0.0017224851
0.0016812869
0.0016396943
0.0015975865
0.0015549846
0.0015118684
0.0014681847
0.0014239427
0.0013790957
0.0013336414
0.0012875581
0.0012408187
0.0011934127
0.001145327
0.0010965505
0.0010470762
0.00099690188
0.00094603272
0.00089448184
0.00084227862
0.00078946119
0.00073611683
0.00068230852
0.00062831332
0.00057408254
0.00052076519
0.00046698863
0.00041885847
0.00036496903
0.00034200927
0.00026718595
0.00053631538
-0.00041374053
0.0065954829
0.006467307
0.0062654467
0.0060453139
0.0058356276
0.0056362571
0.0054424152
0.0052579079
0.0050855446
0.0049235855
0.0047701121
0.0046245553
0.0044861875
0.0043544633
0.0042286319
0.0041082258
0.0039931697
0.0038836594
0.0037802542
0.0036835968
0.0035941408
0.0035122753
0.0034383662
0.0033726827
0.0033152393
0.003265605
0.0032226168
0.0031849534
0.0031513111
0.0031198847
0.0030890865
0.0030580266
0.0030263804
0.002993807
0.0029604149
0.0029265377
0.002891974
0.0028566698
0.0028206759
0.0027839425
0.0027468058
0.0027096059
0.0026723507
0.0026350461
0.0025976026
0.0025602166
0.0025230324
0.0024859734
0.0024487618
0.002411522
0.0023745159
0.0023375768
0.002300448
0.0022632228
0.0022261087
0.0021889154
0.00215144
0.0021138304
0.0020762535
0.0020384034
0.0020002119
0.0019618584
0.0019233383
0.0018845222
0.0018452249
0.0018054508
0.0017652456
0.0017244907
0.0016832357
0.0016415735
0.0015994184
0.0015567953
0.0015136695
0.0014699789
0.0014257294
0.0013808715
0.0013354025
0.0012893005
0.0012425385
0.0011951069
0.0011469931
0.0010981862
0.0010486798
0.00099847186
0.00094756792
0.0008959813
0.00084374159
0.00079088711
0.00073750522
0.00068365912
0.00062962561
0.00057535671
0.00052199931
0.00046818491
0.00042000711
0.00036608047
0.00034305806
0.00026809875
0.00053678367
-0.00041172418
0.0064759074
0.0063638607
0.0061896084
0.0059927038
0.00579725
0.0056078316
0.0054225633
0.0052445963
0.0050767746
0.0049182334
0.0047675076
0.0046241199
0.0044875275
0.0043572501
0.0042326807
0.0041134219
0.0039994199
0.0038908725
0.0037882843
0.0036922529
0.0036032288
0.0035215938
0.0034476969
0.0033817852
0.0033238584
0.0032735039
0.0032296591
0.0031910652
0.0031564574
0.0031241531
0.003092639
0.0030610239
0.0030289452
0.0029960679
0.0029624474
0.0029283621
0.0028936396
0.0028582158
0.0028221355
0.0027853628
0.0027481974
0.0027109572
0.002673661
0.002636316
0.002598847
0.0025614303
0.0025242009
0.0024870918
0.0024498498
0.0024125835
0.0023755369
0.0023385618
0.0023014143
0.0022641602
0.002226999
0.002189774
0.0021523062
0.0021146957
0.0020770508
0.0020391109
0.0020008736
0.0019625106
0.0019238982
0.0018848879
0.0018455506
0.0018059702
0.0017660483
0.001725606
0.0016846588
0.001643205
0.0016011198
0.0015584802
0.0015153137
0.0014715926
0.0014273299
0.001382468
0.0013369977
0.0012908932
0.0012441258
0.0011966849
0.0011485579
0.0010997343
0.0010502079
0.00099997749
0.00094904871
0.00089743532
0.00084516718
0.00079228288
0.00073886991
0.00068499176
0.00063092492
0.00057662232
0.00052322829
0.00046937942
0.00042115458
0.00036719374
0.00034410377
0.00026899656
0.00053706513
-0.00040937242
0.0063639987
0.0062653756
0.0061141941
0.0059380853
0.0057566671
0.0055773891
0.0054007405
0.005229526
0.0050665567
0.0049116991
0.0047639402
0.0046229196
0.0044882625
0.0043595769
0.004236384
0.0041183615
0.0040054807
0.0038979435
0.0037962112
0.0037008406
0.0036122769
0.0035308951
0.0034570286
0.0033909054
0.0033325146
0.0032814634
0.0032367801
0.0031972711
0.0031617141
0.0031285388
0.0030963064
0.0030641283
0.0030316087
0.0029984149
0.0029645555
0.0029302563
0.0028953687
0.0028598205
0.00282365
0.0027868329
0.0027496355
0.0027123532
0.002675014
0.0026376267
0.0026001294
0.0025626801
0.0025254045
0.0024882441
0.0024509699
0.0024136749
0.0023765824
0.0023395598
0.0023023781
0.0022650937
0.0022278953
0.0021906418
0.0021531592
0.0021155198
0.0020778286
0.0020398722
0.0020016441
0.0019632535
0.0019245704
0.001885507
0.001846169
0.0018065245
0.0017664444
0.0017259537
0.0016851098
0.0016438482
0.0016020318
0.0015596668
0.0015166951
0.0014730555
0.0014287969
0.0013839139
0.0013384285
0.0012923196
0.0012455535
0.0011981154
0.0011499895
0.001101164
0.001051632
0.0010013921
0.00095045051
0.00089882118
0.00084653439
0.0007936291
0.00074019298
0.0006862899
0.00063219602
0.00057786534
0.00052443919
0.00047056023
0.00042228976
0.00036829857
0.00034513648
0.00026986975
0.00053711413
-0.0004066456
0.0062588552
0.0061714784
0.006039593
0.0058819757
0.0057141579
0.0055450707
0.005377035
0.0052127214
0.0050548711
0.0049039415
0.0047593558
0.004620891
0.0044883267
0.0043613742
0.0042396727
0.0041229772
0.0040112877
0.0039048129
0.00380398
0.0037093098
0.0036212403
0.0035401397
0.0034663275
0.0034000153
0.0033411853
0.0032894651
0.0032439657
0.0032035606
0.0031670729
0.0031330363
0.003100085
0.0030673376
0.0030343696
0.0030008478
0.0029667394
0.0029322211
0.0028971626
0.0028614857
0.0028252214
0.0027883547
0.0027511213
0.0027137948
0.0026764109
0.0026389799
0.0026014523
0.0025639689
0.0025266466
0.0024894346
0.0024521264
0.0024148004
0.0023776599
0.0023405874
0.0023033695
0.0022660541
0.002228814
0.0021915199
0.0021540054
0.0021163344
0.0020786106
0.002040637
0.0020023941
0.0019639711
0.0019252584
0.0018861911
0.0018468451
0.0018071534
0.0017670262
0.0017265381
0.0016856269
0.0016442317
0.0016023865
0.0015600818
0.0015172563
0.0014738572
0.0014298402
0.0013851203
0.0013397064
0.0012936099
0.0012468372
0.0011993955
0.0011512721
0.0011024522
0.0010529258
0.0010026893
0.00095174783
0.00090011498
0.00084782103
0.0007949052
0.00074145539
0.00068753592
0.00063342258
0.00057907067
0.00052561803
0.00047171444
0.0004234006
0.00036938379
0.00034614549
0.00027070604
0.00053689211
-0.00040349342
0.0061597075
0.0060818094
0.0059660929
0.0058248311
0.0056700018
0.0055110294
0.0053515482
0.0051942247
0.0050417144
0.0048949354
0.0047537164
0.0046179878
0.0044876713
0.0043625899
0.0042424943
0.0041272169
0.0040167907
0.003911433
0.0038115455
0.0037176181
0.0036300796
0.0035492921
0.0034755625
0.0034090881
0.0033498474
0.0032974891
0.0032512003
0.0032099212
0.0031725237
0.0031376378
0.0031039692
0.0030706479
0.0030372247
0.0030033648
0.0029689982
0.0029342558
0.002899021
0.0028632112
0.0028268494
0.002789928
0.0027526549
0.0027152823
0.0026778521
0.0026403765
0.0026028164
0.0025652976
0.002527928
0.0024906641
0.0024533201
0.0024159612
0.0023787723
0.0023416494
0.0023043946
0.0022670463
0.0022297618
0.0021924237
0.0021548751
0.0021171719
0.0020794101
0.0020414056
0.0020031333
0.0019646792
0.0019259456
0.0018868653
0.0018475003
0.0018077855
0.0017676452
0.0017271457
0.0016862074
0.0016447848
0.0016029293
0.0015605447
0.0015176195
0.0014741957
0.0014302269
0.0013856562
0.0013404564
0.0012945596
0.0012479159
0.0012005303
0.0011524216
0.0011036045
0.0010540824
0.0010038533
0.00095292007
0.0009012943
0.00084900471
0.00079608978
0.00074263706
0.00068871112
0.00063458723
0.00058022218
0.00052674983
0.00047282809
0.00042447406
0.00037043726
0.0003471192
0.00027149059
0.00053636321
-0.00039985555
0.0060658972
0.00599603
0.0058938985
0.0057670469
0.0056244716
0.0054754251
0.0053243905
0.005174092
0.0050270962
0.0048846662
0.0047469941
0.0046141724
0.0044862557
0.0043631809
0.0042448052
0.0041310378
0.0040219479
0.0039177643
0.0038188703
0.0037257293
0.003638761
0.0035583209
0.0034847048
0.0034180985
0.0033584788
0.0033055164
0.0032584677
0.0032163399
0.0031780557
0.0031423347
0.0031079527
0.0030740543
0.0030401705
0.0030059631
0.0029713298
0.0029363585
0.0029009426
0.0028649958
0.0028285331
0.0027915521
0.0027542358
0.0027168152
0.0026793375
0.0026418163
0.0026042218
0.0025666661
0.0025292487
0.0024919327
0.0024545512
0.002417158
0.0023799204
0.0023427467
0.0023054535
0.0022680707
0.0022307409
0.0021933584
0.0021557751
0.0021180379
0.002080235
0.0020421959
0.0020038926
0.0019654051
0.0019266423
0.001887536
0.0018481429
0.0018084063
0.0017682526
0.0017277362
0.0016867881
0.0016453553
0.0016034787
0.0015610759
0.0015181452
0.0014746828
0.0014306269
0.0013859925
0.001340775
0.0012949445
0.0012484551
0.0012012572
0.001153306
0.0011045846
0.0010551046
0.0010048908
0.00095396601
0.00090234936
0.00085006982
0.00079716427
0.00074371856
0.00068979642
0.00063567184
0.00058130284
0.00052781866
0.00047388633
0.00042549617
0.00037144585
0.00034804509
0.00027220936
0.00053549095
-0.00039567519
0.0059768582
0.0059138272
0.0058231473
0.0057089587
0.0055778289
0.0054384225
0.0052956794
0.005152391
0.0050110379
0.0048731279
0.0047391678
0.0046094137
0.004484044
0.0043631084
0.0042465659
0.0041344011
0.0040267222
0.0039237718
0.0038259211
0.0037336119
0.0036472542
0.003567198
0.003493729
0.0034270233
0.0033670588
0.0033135284
0.0032657523
0.0032228036
0.0031836577
0.003147118
0.0031120283
0.0030775514
0.0030432026
0.0030086396
0.0029737315
0.0029385269
0.0029029253
0.0028668378
0.0028302708
0.0027932256
0.0027558626
0.0027183924
0.0026808659
0.0026432983
0.0026056678
0.002568074
0.0025306085
0.00249324
0.0024558197
0.002418391
0.0023811043
0.0023438792
0.0023065464
0.0022691278
0.0022317524
0.0021943247
0.0021567054
0.0021189331
0.002081088
0.0020430136
0.0020046787
0.0019661559
0.0019273603
0.001888225
0.0018488016
0.0018090376
0.0017688606
0.0017283192
0.0016873512
0.0016459036
0.0016040119
0.0015616049
0.0015186693
0.0014751891
0.0014311203
0.0013864698
0.0013411974
0.0012952953
0.0012487604
0.0012015738
0.0011537124
0.0011051411
0.001055819
0.0010057247
0.00095486751
0.0009032816
0.00085101704
0.00079812291
0.00074468829
0.00069077662
0.00063665965
0.0005822957
0.00052880813
0.00047487356
0.00042645217
0.00037239555
0.00034890985
0.0002728467
0.0005342118
-0.00039089034
0.0058921011
0.0058349147
0.0057539242
0.0056508473
0.005530319
0.0054001883
0.005265537
0.005129199
0.0049935711
0.004860323
0.0047302228
0.004603685
0.0044810037
0.0043623363
0.0042477392
0.0041372703
0.0040310782
0.0039294222
0.0038326666
0.003741236
0.0036555314
0.0035758972
0.0035026109
0.003435841
0.003375568
0.0033215076
0.003273039
0.0032292996
0.0031893188
0.0031519788
0.0031161891
0.0030811339
0.0030463167
0.003011391
0.0029762008
0.0029407585
0.002904967
0.002868735
0.0028320605
0.0027949469
0.0027575339
0.0027200126
0.0026824362
0.0026448214
0.0026071533
0.0025695204
0.0025320064
0.0024945855
0.0024571251
0.0024196596
0.0023823236
0.0023450468
0.0023076732
0.0022702178
0.0022327961
0.0021953226
0.0021576663
0.0021198578
0.00208197
0.0020438595
0.0020054919
0.0019669327
0.0019281034
0.0018889384
0.0018494835
0.0018096895
0.0017694861
0.0017289168
0.0016879234
0.0016464538
0.0016045407
0.0015621167
0.0015191654
0.0014756739
0.0014316029
0.0013869478
0.0013416667
0.0012957465
0.0012491762
0.0012019377
0.0011540257
0.0011054335
0.0010561515
0.0010061635
0.00095544575
0.00090398624
0.00085180676
0.00079895798
0.00074554574
0.00069164808
0.00063754197
0.00058318827
0.00052970374
0.0004757746
0.00042732709
0.0003732717
0.00034969958
0.00027338527
0.00053246776
-0.00038543451
0.0058112005
0.0057590323
0.0056862737
0.0055929428
0.0054821688
0.0053608884
0.0052340891
0.0051046013
0.0049747374
0.0048462623
0.0047201509
0.004596965
0.0044771056
0.004360831
0.0042482895
0.0041396094
0.0040349813
0.0039346829
0.0038390762
0.0037485727
0.0036635653
0.0035843933
0.0035113273
0.0034445304
0.0033839874
0.0033294369
0.0032803127
0.003235815
0.0031950281
0.003156908
0.0031204281
0.0030847963
0.0030495087
0.0030142141
0.0029787351
0.0029430511
0.0029070657
0.0028706855
0.0028339005
0.0027967143
0.0027592482
0.0027216741
0.0026840469
0.0026463842
0.0026086771
0.0025710042
0.0025334416
0.0024959683
0.0024584667
0.0024209633
0.0023835777
0.002346249
0.0023088337
0.0022713403
0.0022338721
0.0021963521
0.0021586577
0.0021208121
0.0020828813
0.0020447336
0.0020063324
0.0019677361
0.0019288722
0.0018896768
0.0018501895
0.0018103645
0.0017701337
0.0017295354
0.0016885149
0.0016470209
0.0016050827
0.0015626358
0.0015196633
0.0014761536
0.0014320677
0.0013873992
0.0013421106
0.0012961868
0.0012496119
0.0012023638
0.0011544295
0.0011057985
0.0010564705
0.0010064486
0.00095573929
0.00090434795
0.00085228193
0.00079955376
0.00074623474
0.00069239309
0.00063831517
0.00058397743
0.00053049873
0.00047657897
0.00042810825
0.00037406031
0.00035040049
0.00027380664
0.00053020278
-0.00037923992
0.0057337859
0.0056859449
0.00562021
0.0055354307
0.0054335836
0.0053206855
0.0052014627
0.005078689
0.0049545876
0.0048309645
0.0047089505
0.0045892376
0.0044723242
0.0043585611
0.0042481824
0.0041413836
0.0040383973
0.0039395214
0.0038451192
0.0037555929
0.0036713286
0.0035926609
0.0035198552
0.0034530707
0.003392298
0.0033372991
0.0032875586
0.0032423372
0.0032007746
0.0031618965
0.0031247381
0.0030885333
0.0030527741
0.0030171057
0.0029813319
0.0029454024
0.0029092194
0.0028726876
0.0028357889
0.0027985263
0.0027610038
0.0027233754
0.0026856965
0.0026479854
0.0026102381
0.0025725242
0.002534913
0.0024973874
0.0024598437
0.0024223013
0.0023848662
0.0023474852
0.0023100272
0.0022724949
0.0022349798
0.0021974129
0.0021596794
0.0021217959
0.0020838216
0.0020456358
0.0020072002
0.0019685663
0.0019296671
0.0018904402
0.0018509199
0.0018110631
0.0017708041
0.0017301762
0.0016891277
0.0016476083
0.0016056436
0.0015631725
0.0015201769
0.001476645
0.0014325385
0.0013878507
0.0013425462
0.0012966095
0.0012500251
0.0012027713
0.0011548327
0.0011061961
0.0010568542
0.0010068045
0.00095605674
0.00090462924
0.00085255388
0.00079986524
0.00074663341
0.00069289926
0.0006389137
0.0005846371
0.00053118565
0.00047728295
0.00042878992
0.00037475182
0.00035100144
0.0002740929
0.00052736223
-0.00037224124
0.0056595326
0.0056154401
0.0055557249
0.0054784576
0.005384747
0.0052797364
0.0051677852
0.0050515579
0.0049331799
0.0048144566
0.0046966265
0.0045804918
0.0044666378
0.0043554981
0.0042473855
0.0041425589
0.0040412923
0.0039439048
0.0038507645
0.0037622673
0.0036787935
0.0036006743
0.0035281708
0.0034614403
0.0034004805
0.0033450767
0.003294761
0.0032488527
0.0032065466
0.0031669348
0.0031291117
0.003092339
0.0030561088
0.0030200627
0.0029839888
0.0029478104
0.0029114263
0.0028747397
0.0028377243
0.0028003814
0.0027627995
0.0027251154
0.0026873838
0.0026496236
0.002611835
0.0025740795
0.0025364196
0.0024988419
0.0024612552
0.002423673
0.0023861881
0.002348755
0.0023112535
0.0022736813
0.0022361189
0.0021985047
0.0021607311
0.002122809
0.0020847907
0.0020465662
0.0020080952
0.0019694231
0.0019304879
0.0018912289
0.0018516749
0.0018117857
0.0017714977
0.0017308394
0.0016897622
0.0016482166
0.0016062247
0.0015637286
0.001520709
0.0014771536
0.0014330251
0.0013883159
0.0013429916
0.0012970364
0.0012504354
0.0012031677
0.0011552184
0.0011065747
0.001057228
0.0010071739
0.00095641694
0.0009049695
0.00085286296
0.00080013996
0.00074688965
0.00069317493
0.00063925277
0.00058506707
0.00053169652
0.00047785476
0.00042936139
0.00037534088
0.00035149736
0.00027423037
0.00052390076
-0.00036438256
0.0055881559
0.0055473263
0.0054927945
0.0054221369
0.00533582
0.0052381903
0.0051331822
0.0050233066
0.0049105795
0.0047967727
0.0046831904
0.0045707225
0.0044600291
0.0043516165
0.0042458684
0.0041431026
0.0040436329
0.0039478008
0.0038559808
0.0037685659
0.0036859319
0.0036084072
0.0035362501
0.0034696172
0.0034085149
0.0033527515
0.0033019039
0.0032553476
0.0032123322
0.0031720127
0.0031335407
0.0030962075
0.003059508
0.0030230818
0.0029867035
0.002950273
0.0029136848
0.0028768401
0.0028397053
0.0028022784
0.0027646341
0.0027268927
0.0026891075
0.0026512979
0.0026134669
0.002575669
0.0025379605
0.0025003309
0.0024627004
0.0024250775
0.002387543
0.0023500576
0.0023125118
0.0022748989
0.002237289
0.002199627
0.0021618126
0.0021238511
0.0020857884
0.0020475243
0.0020090173
0.0019703064
0.0019313346
0.0018920426
0.0018524543
0.0018125321
0.0017722145
0.0017315251
0.0016904186
0.0016488462
0.0016068265
0.0015643047
0.0015212603
0.0014776807
0.0014335294
0.0013887978
0.0013434525
0.0012974771
0.0012508568
0.0012035711
0.0011556053
0.0011069474
0.001057589
0.0010075266
0.00095676391
0.00090531188
0.00085319815
0.00080046012
0.00074718415
0.00069343764
0.00063949126
0.00058531041
0.00053197866
0.00047820999
0.00042975762
0.00037579247
0.00035187591
0.00027420377
0.00051980218
-0.00035563073
0.0055194054
0.0054814306
0.0054313836
0.0053665543
0.0052869421
0.0051961867
0.0050977769
0.0049940352
0.0048868566
0.0047779538
0.0046686603
0.0045599301
0.0044524852
0.0043468943
0.0042436032
0.0041429834
0.0040453867
0.0039511768
0.0038607368
0.0037744585
0.0036927151
0.0036158327
0.003544068
0.0034775787
0.0034163804
0.0033603045
0.0033089703
0.0032618071
0.0032181184
0.0031771194
0.0031380166
0.0031001321
0.0030629667
0.0030261592
0.0029894732
0.0029527881
0.0029159932
0.0028789875
0.0028417303
0.0028042162
0.0027665065
0.0027287063
0.0026908667
0.002653007