/*--------------------------------*- C++ -*----------------------------------*\
  =========                 |
  \\      /  F ield         | OpenFOAM: The Open Source CFD Toolbox
   \\    /   O peration     | Website:  https://openfoam.org
    \\  /    A nd           | Version:  12
     \\/     M anipulation  |
\*---------------------------------------------------------------------------*/
FoamFile
{
    format      ascii;
    class       volScalarField;
    location    "600";
    object      p;
}
// * * * * * * * * * * * * * * * * * * * * * * * * * * * * * * * * * * * * * //

dimensions      [0 2 -2 0 0 0 0];

internalField   nonuniform List<scalar> 
13056
(
0.005609603
0.0056465517
0.0057214009
0.005814671
0.0059273147
0.0060577867
0.0062042597
0.0063657339
0.0065418379
0.0067326545
0.006938703
0.0071610159
0.0074012318
0.0076618843
0.0079465102
0.0082608157
0.0086119194
0.009014643
0.0094817325
0.0100668
0.010771841
0.011911241
0.013175566
0.019005811
0.015378538
0.0091782637
0.0078316461
0.0073054222
0.0067597247
0.0063002487
0.0059579043
0.0056972768
0.0054678467
0.0052597206
0.0050772992
0.0049247439
0.0047908805
0.0046623848
0.00454577
0.004443477
0.0043469546
0.0042574395
0.0041748091
0.004097447
0.0040248679
0.0039566519
0.0038917195
0.0038306805
0.0037728091
0.0037170505
0.0036641664
0.0036137383
0.0035645859
0.0035175999
0.0034726772
0.0034288051
0.0033860744
0.0033449486
0.0033051986
0.0032661181
0.0032277889
0.0031906637
0.0031545896
0.0031189312
0.0030837132
0.0030493048
0.0030157893
0.0029825434
0.0029495924
0.0029169232
0.0028848901
0.0028533447
0.0028217857
0.0027903573
0.002759066
0.0027281935
0.0026975147
0.0026666797
0.002635797
0.0026048943
0.0025742114
0.0025434958
0.0025124516
0.0024811854
0.0024497177
0.0024182668
0.0023865842
0.0023543877
0.0023217722
0.0022887592
0.0022555305
0.0022218257
0.0021873922
0.0021522901
0.0021165909
0.0020803904
0.0020433595
0.0020053358
0.0019662855
0.0019264364
0.0018856992
0.0018435657
0.0018000572
0.0017552096
0.001709041
0.0016612059
0.0016114099
0.0015596737
0.0015059821
0.00144997
0.0013911646
0.0013295646
0.0012649095
0.0011979718
0.0011312541
0.001066553
0.0010036091
0.00094179426
0.00088111739
0.00082169806
0.00076352757
0.00070638614
0.00065028803
0.00059532082
0.00054167646
0.00048946999
0.00043867615
0.00038946199
0.00034238819
0.00029741205
0.00025700868
0.00021799417
0.0001954058
0.00015863046
0.00030022144
-0.00027578694
0.005609603
0.0056465517
0.0057214009
0.005814671
0.0059273147
0.0060577867
0.0062042598
0.0063657339
0.0065418379
0.0067326545
0.006938703
0.0071610159
0.0074012318
0.0076618843
0.0079465103
0.0082608157
0.0086119194
0.0090146431
0.0094817325
0.0100668
0.010771841
0.011911241
0.013175567
0.019002532
0.015381304
0.0091788982
0.0078318702
0.0073055742
0.0067598396
0.0063003427
0.0059579835
0.0056973442
0.0054679045
0.0052597707
0.0050773432
0.0049247827
0.004790915
0.0046624158
0.004545798
0.0044435025
0.0043469778
0.0042574608
0.0041748287
0.0040974652
0.0040248847
0.0039566675
0.0038917341
0.0038306941
0.0037728219
0.0037170625
0.0036641777
0.0036137489
0.0035645959
0.0035176093
0.0034726861
0.0034288136
0.0033860824
0.0033449562
0.0033052058
0.003266125
0.0032277954
0.0031906699
0.0031545955
0.0031189368
0.0030837186
0.0030493099
0.0030157942
0.002982548
0.0029495969
0.0029169275
0.0028848941
0.0028533486
0.0028217895
0.0027903609
0.0027590694
0.0027281968
0.0026975179
0.0026666827
0.0026357999
0.0026048971
0.0025742141
0.0025434984
0.002512454
0.0024811877
0.00244972
0.002418269
0.0023865862
0.0023543896
0.0023217741
0.002288761
0.0022555322
0.0022218273
0.0021873937
0.0021522917
0.0021165923
0.0020803918
0.0020433608
0.0020053371
0.0019662867
0.0019264376
0.0018857003
0.0018435667
0.0018000582
0.0017552105
0.0017090419
0.0016612067
0.0016114108
0.0015596745
0.0015059829
0.0014499707
0.0013911653
0.0013295652
0.0012649101
0.0011979723
0.0011312547
0.0010665535
0.0010036095
0.00094179472
0.00088111783
0.00082169849
0.00076352797
0.00070638653
0.0006502884
0.00059532118
0.00054167681
0.00048947033
0.00043867647
0.00038946229
0.00034238849
0.00029741234
0.00025700896
0.00021799444
0.00019540607
0.00015863074
0.00030022175
-0.00027578673
0.005609603
0.0056465517
0.0057214009
0.005814671
0.0059273147
0.0060577867
0.0062042598
0.0063657339
0.0065418379
0.0067326545
0.006938703
0.0071610159
0.0074012318
0.0076618843
0.0079465103
0.0082608157
0.0086119194
0.0090146431
0.0094817326
0.0100668
0.010771841
0.011911241
0.013175568
0.018999839
0.015385751
0.0091800436
0.0078322208
0.0073057972
0.0067600047
0.0063004763
0.0059580954
0.0056974389
0.0054679854
0.0052598407
0.0050774044
0.0049248366
0.0047909629
0.0046624587
0.0045458367
0.0044435376
0.0043470098
0.0042574901
0.0041748557
0.00409749
0.0040249077
0.0039566889
0.0038917539
0.0038307126
0.0037728392
0.0037170788
0.0036641929
0.0036137632
0.0035646094
0.0035176221
0.0034726982
0.003428825
0.0033860932
0.0033449664
0.0033052155
0.0032661342
0.0032278042
0.0031906783
0.0031546034
0.0031189444
0.0030837258
0.0030493168
0.0030158008
0.0029825543
0.0029496028
0.0029169332
0.0028848996
0.0028533539
0.0028217944
0.0027903657
0.002759074
0.0027282012
0.0026975221
0.0026666867
0.0026358038
0.0026049007
0.0025742176
0.0025435017
0.0025124572
0.0024811908
0.0024497229
0.0024182718
0.002386589
0.0023543922
0.0023217766
0.0022887634
0.0022555345
0.0022218295
0.0021873958
0.0021522937
0.0021165942
0.0020803937
0.0020433626
0.0020053388
0.0019662883
0.0019264391
0.0018857018
0.0018435681
0.0018000595
0.0017552118
0.0017090431
0.0016612079
0.0016114119
0.0015596755
0.0015059839
0.0014499716
0.0013911661
0.001329566
0.0012649109
0.0011979731
0.0011312554
0.0010665541
0.0010036102
0.00094179533
0.00088111841
0.00082169904
0.0007635285
0.00070638704
0.00065028889
0.00059532165
0.00054167726
0.00048947076
0.00043867688
0.0003894627
0.00034238888
0.00029741272
0.00025700932
0.0002179948
0.00019540642
0.00015863108
0.00030022216
-0.00027578647
0.005609603
0.0056465517
0.0057214009
0.005814671
0.0059273147
0.0060577867
0.0062042598
0.0063657339
0.0065418379
0.0067326546
0.0069387031
0.0071610159
0.0074012318
0.0076618844
0.0079465103
0.0082608157
0.0086119195
0.0090146431
0.0094817325
0.0100668
0.010771841
0.011911241
0.01317557
0.018997868
0.015391888
0.0091819287
0.0078327326
0.0073060988
0.0067602219
0.0063006494
0.0059582391
0.0056975597
0.0054680882
0.0052599292
0.0050774815
0.0049249044
0.0047910229
0.0046625123
0.004545885
0.0044435813
0.0043470496
0.0042575265
0.004174889
0.0040975207
0.0040249361
0.0039567152
0.0038917784
0.0038307354
0.0037728605
0.0037170987
0.0036642116
0.0036137807
0.0035646259
0.0035176376
0.0034727129
0.0034288388
0.0033861063
0.0033449788
0.0033052272
0.0032661454
0.0032278148
0.0031906883
0.003154613
0.0031189535
0.0030837345
0.0030493251
0.0030158087
0.0029825618
0.00294961
0.0029169401
0.0028849061
0.0028533601
0.0028218004
0.0027903714
0.0027590794
0.0027282064
0.0026975271
0.0026666915
0.0026358084
0.0026049051
0.0025742218
0.0025435058
0.0025124611
0.0024811945
0.0024497265
0.0024182752
0.0023865922
0.0023543953
0.0023217796
0.0022887662
0.0022555372
0.0022218321
0.0021873983
0.002152296
0.0021165965
0.0020803958
0.0020433647
0.0020053408
0.0019662902
0.0019264409
0.0018857035
0.0018435698
0.0018000611
0.0017552133
0.0017090445
0.0016612092
0.0016114131
0.0015596768
0.001505985
0.0014499727
0.0013911672
0.001329567
0.0012649118
0.0011979739
0.0011312562
0.0010665549
0.0010036109
0.00094179604
0.00088111909
0.00082169969
0.00076352912
0.00070638763
0.00065028946
0.00059532219
0.00054167778
0.00048947126
0.00043867737
0.00038946316
0.00034238933
0.00029741315
0.00025700975
0.00021799521
0.00019540682
0.00015863146
0.00030022262
-0.00027578618
0.005609603
0.0056465517
0.0057214009
0.005814671
0.0059273147
0.0060577868
0.0062042598
0.0063657339
0.0065418379
0.0067326546
0.0069387031
0.0071610159
0.0074012318
0.0076618844
0.0079465103
0.0082608158
0.0086119195
0.0090146431
0.0094817325
0.0100668
0.010771841
0.01191124
0.013175571
0.018996245
0.015399601
0.009184684
0.0078334497
0.0073065033
0.0067605076
0.0063008749
0.0059584255
0.0056977161
0.0054682209
0.0052600433
0.0050775809
0.0049249916
0.0047911
0.0046625812
0.0045459469
0.0044436373
0.0043471004
0.0042575729
0.0041749316
0.0040975599
0.0040249723
0.0039567487
0.0038918095
0.0038307644
0.0037728876
0.003717124
0.0036642354
0.003613803
0.0035646469
0.0035176574
0.0034727315
0.0034288564
0.003386123
0.0033449945
0.0033052422
0.0032661595
0.0032278282
0.0031907011
0.0031546252
0.003118965
0.0030837455
0.0030493355
0.0030158186
0.0029825713
0.0029496191
0.0029169487
0.0028849144
0.002853368
0.002821808
0.0027903786
0.0027590863
0.002728213
0.0026975334
0.0026666975
0.0026358141
0.0026049106
0.0025742271
0.0025435108
0.0025124659
0.0024811991
0.0024497309
0.0024182794
0.0023865962
0.0023543992
0.0023217833
0.0022887698
0.0022555406
0.0022218354
0.0021874014
0.002152299
0.0021165993
0.0020803986
0.0020433673
0.0020053432
0.0019662926
0.0019264431
0.0018857056
0.0018435718
0.001800063
0.0017552151
0.0017090463
0.0016612109
0.0016114147
0.0015596783
0.0015059865
0.0014499741
0.0013911685
0.0013295682
0.001264913
0.001197975
0.0011312572
0.0010665559
0.0010036118
0.00094179692
0.00088111993
0.00082170049
0.00076352989
0.00070638836
0.00065029016
0.00059532287
0.00054167843
0.00048947189
0.00043867797
0.00038946374
0.00034238989
0.00029741369
0.00025701027
0.00021799571
0.00019540732
0.00015863193
0.0003002232
-0.00027578582
0.005609603
0.0056465517
0.0057214009
0.005814671
0.0059273147
0.0060577868
0.0062042598
0.0063657339
0.0065418379
0.0067326546
0.0069387031
0.007161016
0.0074012318
0.0076618844
0.0079465103
0.0082608158
0.0086119195
0.0090146431
0.0094817325
0.010066799
0.010771841
0.011911238
0.013175573
0.01899476
0.015407903
0.0091881998
0.0078343703
0.0073070079
0.0067608587
0.0063011504
0.0059586525
0.0056979065
0.0054683824
0.0052601823
0.0050777018
0.0049250978
0.0047911939
0.004662665
0.0045460223
0.0044437054
0.0043471624
0.0042576295
0.0041749835
0.0040976077
0.0040250164
0.0039567896
0.0038918475
0.0038307998
0.0037729206
0.0037171549
0.0036642643
0.0036138302
0.0035646725
0.0035176815
0.0034727542
0.0034288779
0.0033861432
0.0033450137
0.0033052603
0.0032661767
0.0032278446
0.0031907166
0.0031546399
0.0031189791
0.0030837588
0.0030493483
0.0030158308
0.0029825829
0.0029496301
0.0029169593
0.0028849245
0.0028533776
0.0028218171
0.0027903874
0.0027590947
0.002728221
0.002697541
0.0026667048
0.0026358211
0.0026049174
0.0025742335
0.002543517
0.0025124718
0.0024812047
0.0024497363
0.0024182846
0.0023866012
0.0023544039
0.0023217878
0.0022887741
0.0022555448
0.0022218393
0.0021874052
0.0021523026
0.0021166028
0.0020804019
0.0020433704
0.0020053463
0.0019662954
0.0019264459
0.0018857083
0.0018435743
0.0018000654
0.0017552174
0.0017090484
0.001661213
0.0016114167
0.0015596801
0.0015059882
0.0014499757
0.00139117
0.0013295697
0.0012649144
0.0011979763
0.0011312585
0.0010665571
0.001003613
0.000941798
0.00088112095
0.00082170147
0.00076353082
0.00070638926
0.00065029102
0.00059532369
0.00054167922
0.00048947265
0.0004386787
0.00038946445
0.00034239057
0.00029741435
0.00025701091
0.00021799633
0.00019540793
0.0001586325
0.0003002239
-0.00027578538
0.005609603
0.0056465517
0.0057214009
0.005814671
0.0059273147
0.0060577868
0.0062042598
0.0063657339
0.0065418379
0.0067326546
0.0069387031
0.007161016
0.0074012319
0.0076618844
0.0079465103
0.0082608158
0.0086119195
0.0090146431
0.0094817324
0.010066799
0.01077184
0.011911236
0.013175575
0.018993303
0.015415972
0.0091921175
0.0078354954
0.0073076093
0.0067612711
0.0063014715
0.0059589165
0.0056981275
0.0054685698
0.0052603435
0.0050778421
0.0049252208
0.0047913028
0.0046627622
0.0045461097
0.0044437845
0.0043472343
0.0042576952
0.0041750437
0.0040976631
0.0040250676
0.003956837
0.0038918916
0.0038308409
0.0037729589
0.0037171907
0.0036642979
0.0036138618
0.0035647021
0.0035177094
0.0034727805
0.0034289028
0.0033861668
0.003345036
0.0033052814
0.0032661968
0.0032278636
0.0031907347
0.0031546571
0.0031189954
0.0030837744
0.0030493631
0.0030158449
0.0029825964
0.002949643
0.0029169715
0.0028849362
0.0028533888
0.0028218278
0.0027903976
0.0027591045
0.0027282304
0.00269755
0.0026667134
0.0026358293
0.0026049252
0.002574241
0.0025435241
0.0025124787
0.0024812113
0.0024497426
0.0024182906
0.0023866069
0.0023544095
0.0023217931
0.0022887791
0.0022555496
0.002221844
0.0021874096
0.0021523069
0.0021166069
0.0020804057
0.0020433741
0.0020053498
0.0019662988
0.0019264491
0.0018857113
0.0018435772
0.0018000682
0.0017552201
0.001709051
0.0016612154
0.001611419
0.0015596823
0.0015059903
0.0014499777
0.0013911719
0.0013295715
0.001264916
0.0011979779
0.0011312599
0.0010665585
0.0010036143
0.00094179925
0.00088112215
0.00082170261
0.00076353192
0.0007063903
0.00065029202
0.00059532465
0.00054168014
0.00048947353
0.00043867956
0.00038946527
0.00034239137
0.00029741512
0.00025701165
0.00021799705
0.00019540864
0.00015863317
0.00030022471
-0.00027578488
0.005609603
0.0056465517
0.0057214009
0.005814671
0.0059273147
0.0060577868
0.0062042598
0.0063657339
0.0065418379
0.0067326546
0.0069387031
0.007161016
0.0074012319
0.0076618844
0.0079465103
0.0082608158
0.0086119194
0.009014643
0.0094817323
0.010066799
0.01077184
0.011911234
0.013175577
0.018991791
0.015423664
0.0091963828
0.0078368458
0.0073083157
0.006761748
0.00630184
0.0059592182
0.0056983797
0.0054687834
0.005260527
0.0050780017
0.0049253608
0.0047914265
0.0046628726
0.004546209
0.0044438743
0.0043473159
0.0042577697
0.004175112
0.004097726
0.0040251257
0.0039568908
0.0038919415
0.0038308874
0.0037730023
0.0037172314
0.003664336
0.0036138975
0.0035647357
0.0035177411
0.0034728104
0.0034289309
0.0033861934
0.0033450612
0.0033053053
0.0032662194
0.0032278851
0.0031907551
0.0031546765
0.0031190139
0.003083792
0.0030493799
0.0030158609
0.0029826116
0.0029496575
0.0029169854
0.0028849494
0.0028534015
0.0028218399
0.0027904092
0.0027591155
0.0027282409
0.0026975601
0.002666723
0.0026358386
0.002604934
0.0025742494
0.0025435322
0.0025124864
0.0024812187
0.0024497497
0.0024182974
0.0023866135
0.0023544157
0.0023217991
0.0022887848
0.0022555551
0.0022218492
0.0021874146
0.0021523117
0.0021166114
0.0020804101
0.0020433783
0.0020053538
0.0019663026
0.0019264527
0.0018857148
0.0018435806
0.0018000713
0.0017552231
0.0017090538
0.0016612181
0.0016114215
0.0015596847
0.0015059926
0.0014499799
0.001391174
0.0013295734
0.0012649179
0.0011979797
0.0011312616
0.0010665601
0.0010036158
0.00094180068
0.00088112351
0.00082170391
0.00076353316
0.00070639149
0.00065029316
0.00059532575
0.00054168119
0.00048947454
0.00043868053
0.00038946621
0.00034239227
0.00029741599
0.0002570125
0.00021799786
0.00019540945
0.00015863392
0.00030022564
-0.0002757843
0.005609603
0.0056465517
0.0057214009
0.005814671
0.0059273147
0.0060577868
0.0062042598
0.006365734
0.006541838
0.0067326546
0.0069387031
0.007161016
0.0074012319
0.0076618844
0.0079465104
0.0082608158
0.0086119194
0.0090146429
0.0094817321
0.010066799
0.010771839
0.011911231
0.013175581
0.018990148
0.015431044
0.0092016423
0.0078384576
0.0073091434
0.0067622982
0.0063022617
0.0059595621
0.0056986665
0.005469026
0.0052607352
0.0050781826
0.0049255193
0.0047915665
0.0046629975
0.0045463212
0.0044439757
0.004347408
0.0042578537
0.0041751891
0.0040977969
0.0040251911
0.0039569514
0.0038919978
0.0038309398
0.0037730512
0.0037172771
0.0036643788
0.0036139377
0.0035647735
0.0035177767
0.003472844
0.0034289626
0.0033862234
0.0033450896
0.0033053322
0.0032662449
0.0032279093
0.0031907781
0.0031546983
0.0031190346
0.0030838117
0.0030493987
0.0030158788
0.0029826287
0.0029496738
0.002917001
0.0028849643
0.0028534156
0.0028218535
0.0027904221
0.0027591279
0.0027282528
0.0026975714
0.0026667339
0.0026358489
0.002604944
0.0025742589
0.0025435413
0.0025124951
0.0024812271
0.0024497577
0.0024183051
0.0023866208
0.0023544227
0.0023218058
0.0022887913
0.0022555612
0.0022218551
0.0021874203
0.002152317
0.0021166166
0.002080415
0.002043383
0.0020053583
0.0019663069
0.0019264568
0.0018857187
0.0018435843
0.0018000749
0.0017552264
0.001709057
0.0016612211
0.0016114244
0.0015596875
0.0015059952
0.0014499824
0.0013911763
0.0013295756
0.0012649199
0.0011979816
0.0011312635
0.0010665618
0.0010036175
0.00094180228
0.00088112504
0.00082170537
0.00076353455
0.00070639282
0.00065029443
0.00059532697
0.00054168237
0.00048947567
0.00043868161
0.00038946725
0.00034239328
0.00029741696
0.00025701344
0.00021799878
0.00019541036
0.00015863477
0.00030022667
-0.00027578366
0.005609603
0.0056465517
0.0057214009
0.005814671
0.0059273147
0.0060577868
0.0062042598
0.006365734
0.006541838
0.0067326546
0.0069387032
0.007161016
0.0074012319
0.0076618845
0.0079465104
0.0082608158
0.0086119194
0.0090146429
0.0094817319
0.010066798
0.010771839
0.011911227
0.013175585
0.018988293
0.015438132
0.0092081877
0.007840378
0.0073101143
0.0067629341
0.0063027448
0.0059599544
0.0056989929
0.0054693016
0.0052609715
0.0050783877
0.0049256988
0.004791725
0.0046631388
0.0045464481
0.0044440902
0.0043475119
0.0042579486
0.004175276
0.0040978768
0.0040252649
0.0039570196
0.0038920612
0.0038309988
0.0037731062
0.0037173285
0.003664427
0.0036139829
0.003564816
0.0035178167
0.0034728817
0.0034289982
0.003386257
0.0033451214
0.0033053624
0.0032662735
0.0032279364
0.0031908038
0.0031547228
0.0031190579
0.0030838339
0.0030494198
0.0030158989
0.0029826479
0.0029496921
0.0029170184
0.0028849809
0.0028534315
0.0028218687
0.0027904366
0.0027591418
0.002728266
0.0026975841
0.002666746
0.0026358605
0.0026049551
0.0025742696
0.0025435515
0.0025125049
0.0024812364
0.0024497666
0.0024183136
0.0023866289
0.0023544305
0.0023218132
0.0022887984
0.0022555681
0.0022218616
0.0021874265
0.002152323
0.0021166223
0.0020804205
0.0020433882
0.0020053633
0.0019663117
0.0019264614
0.001885723
0.0018435884
0.0018000788
0.0017552302
0.0017090606
0.0016612245
0.0016114277
0.0015596906
0.0015059981
0.0014499851
0.0013911789
0.0013295781
0.0012649223
0.0011979838
0.0011312656
0.0010665638
0.0010036194
0.00094180407
0.00088112674
0.00082170699
0.0007635361
0.00070639431
0.00065029586
0.00059532833
0.00054168368
0.00048947693
0.00043868283
0.00038946842
0.00034239441
0.00029741805
0.0002570145
0.0002179998
0.00019541137
0.00015863572
0.00030022782
-0.00027578294
0.005609603
0.0056465518
0.0057214009
0.005814671
0.0059273147
0.0060577868
0.0062042598
0.006365734
0.006541838
0.0067326547
0.0069387032
0.0071610161
0.007401232
0.0076618845
0.0079465104
0.0082608158
0.0086119194
0.0090146427
0.0094817317
0.010066797
0.010771838
0.011911222
0.01317559
0.018986119
0.015444611
0.0092158683
0.007842666
0.0073112562
0.0067636707
0.0063032997
0.0059604028
0.0056993651
0.0054696155
0.0052612402
0.0050786206
0.0049259025
0.0047919047
0.0046632989
0.0045465917
0.0044442198
0.0043476295
0.0042580559
0.0041753742
0.0040979671
0.0040253481
0.0039570967
0.0038921327
0.0038310653
0.0037731682
0.0037173865
0.0036644813
0.0036140339
0.0035648639
0.0035178617
0.0034729241
0.0034290383
0.0033862949
0.0033451572
0.0033053962
0.0032663056
0.0032279668
0.0031908328
0.0031547503
0.0031190841
0.0030838587
0.0030494434
0.0030159215
0.0029826693
0.0029497126
0.002917038
0.0028849996
0.0028534494
0.0028218857
0.0027904529
0.0027591573
0.0027282809
0.0026975983
0.0026667596
0.0026358735
0.0026049675
0.0025742815
0.0025435629
0.0025125158
0.0024812468
0.0024497766
0.0024183232
0.0023866381
0.0023544393
0.0023218216
0.0022888064
0.0022555757
0.002221869
0.0021874335
0.0021523297
0.0021166287
0.0020804266
0.0020433941
0.0020053689
0.001966317
0.0019264665
0.0018857279
0.001843593
0.0018000832
0.0017552344
0.0017090646
0.0016612283
0.0016114313
0.001559694
0.0015060014
0.0014499882
0.0013911818
0.0013295809
0.0012649249
0.0011979863
0.0011312679
0.001066566
0.0010036215
0.00094180607
0.00088112864
0.00082170881
0.00076353784
0.00070639597
0.00065029745
0.00059532986
0.00054168514
0.00048947834
0.00043868418
0.00038946973
0.00034239566
0.00029741926
0.00025701568
0.00021800093
0.00019541249
0.00015863677
0.00030022911
-0.00027578214
0.005609603
0.0056465518
0.0057214009
0.005814671
0.0059273147
0.0060577868
0.0062042599
0.006365734
0.006541838
0.0067326547
0.0069387032
0.0071610161
0.007401232
0.0076618845
0.0079465104
0.0082608158
0.0086119193
0.0090146426
0.0094817314
0.010066797
0.010771837
0.011911216
0.013175596
0.018983496
0.015449479
0.009224751
0.0078453947
0.0073126032
0.0067645266
0.0063039386
0.0059609168
0.0056997906
0.0054699736
0.0052615464
0.0050788859
0.0049261343
0.004792109
0.0046634806
0.0045467547
0.0044443668
0.0043477628
0.0042581773
0.0041754854
0.0040980692
0.0040254423
0.0039571838
0.0038922135
0.0038311404
0.0037732383
0.0037174519
0.0036645426
0.0036140913
0.0035649178
0.0035179125
0.003472972
0.0034290834
0.0033863375
0.0033451975
0.0033054344
0.0032663418
0.0032280011
0.0031908653
0.0031547812
0.0031191135
0.0030838867
0.0030494701
0.0030159468
0.0029826935
0.0029497356
0.0029170599
0.0028850206
0.0028534694
0.0028219048
0.0027904712
0.0027591748
0.0027282976
0.0026976142
0.0026667749
0.0026358881
0.0026049815
0.0025742948
0.0025435757
0.002512528
0.0024812585
0.0024497878
0.0024183339
0.0023866484
0.0023544491
0.002321831
0.0022888154
0.0022555843
0.0022218772
0.0021874414
0.0021523373
0.0021166359
0.0020804335
0.0020434006
0.0020053751
0.001966323
0.0019264722
0.0018857334
0.0018435982
0.0018000882
0.0017552391
0.0017090691
0.0016612326
0.0016114353
0.0015596978
0.001506005
0.0014499917
0.0013911851
0.001329584
0.0012649278
0.001197989
0.0011312705
0.0010665685
0.0010036238
0.0009418083
0.00088113077
0.00082171084
0.00076353978
0.00070639783
0.00065029923
0.00059533156
0.00054168678
0.00048947991
0.00043868569
0.00038947118
0.00034239707
0.00029742062
0.00025701699
0.0002180022
0.00019541374
0.00015863794
0.00030023054
-0.00027578125
0.005609603
0.0056465518
0.005721401
0.0058146711
0.0059273148
0.0060577869
0.0062042599
0.0063657341
0.0065418381
0.0067326547
0.0069387033
0.0071610162
0.007401232
0.0076618846
0.0079465104
0.0082608158
0.0086119193
0.0090146424
0.0094817309
0.010066795
0.010771835
0.011911208
0.013175604
0.018980281
0.015452126
0.0092349849
0.0078486512
0.0073141969
0.0067655246
0.0063046766
0.0059615074
0.0057002784
0.0054703835
0.0052618963
0.0050791886
0.0049263985
0.0047923417
0.0046636876
0.0045469402
0.0044445339
0.0043479143
0.0042583153
0.0041756116
0.0040981851
0.0040255491
0.0039572825
0.003892305
0.0038312255
0.0037733176
0.003717526
0.0036646119
0.0036141563
0.0035649789
0.0035179699
0.003473026
0.0034291344
0.0033863856
0.0033452431
0.0033054775
0.0032663826
0.0032280398
0.003190902
0.0031548161
0.0031191466
0.0030839182
0.0030495001
0.0030159754
0.0029827207
0.0029497616
0.0029170847
0.0028850442
0.0028534919
0.0028219263
0.0027904917
0.0027591944
0.0027283164
0.0026976322
0.002666792
0.0026359045
0.0026049972
0.0025743098
0.00254359
0.0025125418
0.0024812717
0.0024498004
0.0024183459
0.0023866599
0.0023544601
0.0023218416
0.0022888255
0.002255594
0.0022218864
0.0021874503
0.0021523457
0.002116644
0.0020804412
0.002043408
0.0020053822
0.0019663297
0.0019264786
0.0018857395
0.0018436041
0.0018000938
0.0017552444
0.0017090741
0.0016612374
0.0016114399
0.0015597022
0.0015060091
0.0014499955
0.0013911888
0.0013295874
0.0012649311
0.0011979921
0.0011312734
0.0010665713
0.0010036264
0.00094181081
0.00088113316
0.00082171312
0.00076354195
0.00070639991
0.00065030122
0.00059533348
0.00054168861
0.00048948167
0.00043868739
0.00038947281
0.00034239864
0.00029742214
0.00025701846
0.00021800362
0.00019541515
0.00015863926
0.00030023214
-0.00027578025
0.0056096031
0.0056465518
0.005721401
0.0058146711
0.0059273148
0.0060577869
0.0062042599
0.0063657341
0.0065418381
0.0067326548
0.0069387033
0.0071610162
0.0074012321
0.0076618846
0.0079465105
0.0082608158
0.0086119192
0.0090146421
0.0094817304
0.010066794
0.010771833
0.011911198
0.013175614
0.018976303
0.015453298
0.009246723
0.007852535
0.0073160877
0.0067666923
0.0063055317
0.005962188
0.0057008389
0.0054708536
0.0052622972
0.005079535
0.0049267006
0.0047926074
0.0046639238
0.0045471517
0.0044447243
0.0043480868
0.0042584723
0.0041757552
0.0040983169
0.0040256704
0.0039573947
0.003892409
0.0038313221
0.0037734075
0.00371761
0.0036646905
0.00361423
0.003565048
0.0035180349
0.0034730873
0.0034291922
0.0033864402
0.0033452946
0.0033055263
0.0032664288
0.0032280836
0.0031909436
0.0031548556
0.0031191841
0.0030839539
0.003049534
0.0030160077
0.0029827515
0.0029497909
0.0029171126
0.0028850709
0.0028535174
0.0028219506
0.0027905149
0.0027592166
0.0027283375
0.0026976525
0.0026668114
0.0026359231
0.0026050149
0.0025743268
0.0025436062
0.0025125573
0.0024812865
0.0024498146
0.0024183595
0.0023866729
0.0023544725
0.0023218535
0.0022888369
0.0022556049
0.0022218968
0.0021874602
0.0021523552
0.0021166531
0.0020804499
0.0020434163
0.0020053901
0.0019663373
0.0019264858
0.0018857464
0.0018436107
0.0018001
0.0017552504
0.0017090798
0.0016612428
0.001611445
0.001559707
0.0015060137
0.0014499999
0.0013911929
0.0013295913
0.0012649348
0.0011979956
0.0011312767
0.0010665744
0.0010036294
0.00094181363
0.00088113585
0.00082171568
0.0007635444
0.00070640225
0.00065030346
0.00059533562
0.00054169067
0.00048948365
0.00043868929
0.00038947464
0.00034240041
0.00029742384
0.00025702011
0.00021800522
0.00019541673
0.00015864074
0.00030023394
-0.00027577913
0.0056096031
0.0056465518
0.005721401
0.0058146711
0.0059273148
0.0060577869
0.00620426
0.0063657342
0.0065418382
0.0067326549
0.0069387034
0.0071610163
0.0074012322
0.0076618846
0.0079465105
0.0082608157
0.008611919
0.0090146418
0.0094817297
0.010066792
0.010771831
0.011911185
0.013175626
0.018971354
0.015453676
0.0092601067
0.0078571604
0.0073183363
0.0067680632
0.0063065252
0.0059629744
0.0057014845
0.0054713942
0.0052627574
0.0050799323
0.0049270468
0.0047929117
0.0046641939
0.0045473934
0.0044449419
0.0043482837
0.0042586515
0.0041759189
0.0040984671
0.0040258087
0.0039575224
0.0038925273
0.0038314321
0.0037735099
0.0037177056
0.0036647799
0.0036143137
0.0035651266
0.0035181088
0.0034731568
0.0034292577
0.003386502
0.0033453531
0.0033055816
0.0032664811
0.0032281333
0.0031909907
0.0031549003
0.0031192266
0.0030839943
0.0030495724
0.0030160443
0.0029827863
0.0029498241
0.0029171443
0.002885101
0.0028535462
0.0028219781
0.0027905412
0.0027592417
0.0027283615
0.0026976754
0.0026668333
0.002635944
0.0026050349
0.0025743459
0.0025436246
0.0025125748
0.0024813033
0.0024498306
0.0024183749
0.0023866876
0.0023544866
0.0023218669
0.0022888498
0.0022556172
0.0022219086
0.0021874715
0.002152366
0.0021166634
0.0020804597
0.0020434257
0.0020053991
0.0019663459
0.001926494
0.0018857542
0.0018436181
0.0018001071
0.0017552571
0.0017090862
0.0016612489
0.0016114508
0.0015597125
0.0015060189
0.0014500049
0.0013911976
0.0013295957
0.0012649389
0.0011979996
0.0011312804
0.0010665779
0.0010036328
0.00094181681
0.00088113887
0.00082171857
0.00076354716
0.00070640489
0.00065030598
0.00059533804
0.00054169299
0.00048948588
0.00043869143
0.00038947671
0.0003424024
0.00029742576
0.00025702197
0.00021800701
0.0001954185
0.0001586424
0.00030023596
-0.00027577787
0.0056096031
0.0056465518
0.005721401
0.0058146712
0.0059273149
0.006057787
0.00620426
0.0063657342
0.0065418382
0.0067326549
0.0069387035
0.0071610163
0.0074012322
0.0076618847
0.0079465105
0.0082608157
0.0086119188
0.0090146413
0.0094817287
0.01006679
0.010771828
0.011911169
0.013175641
0.018965185
0.015453232
0.0092751138
0.0078626553
0.0073210146
0.006769678
0.006307683
0.0059638852
0.0057022301
0.0054720172
0.0052632872
0.005080389
0.0049274444
0.0047932609
0.0046645037
0.0045476704
0.004445191
0.0043485091
0.0042588564
0.0041761061
0.0040986387
0.0040259667
0.0039576682
0.0038926624
0.0038315575
0.0037736267
0.0037178145
0.0036648817
0.0036144091
0.0035652161
0.0035181929
0.003473236
0.0034293323
0.0033865724
0.0033454196
0.0033056445
0.0032665407
0.0032281897
0.0031910442
0.0031549511
0.0031192748
0.0030840401
0.003049616
0.0030160858
0.0029828259
0.0029498618
0.0029171802
0.0028851353
0.0028535789
0.0028220093
0.002790571
0.0027592701
0.0027283887
0.0026977013
0.0026668581
0.0026359677
0.0026050576
0.0025743677
0.0025436453
0.0025125947
0.0024813223
0.0024498488
0.0024183923
0.0023867042
0.0023545025
0.0023218822
0.0022888643
0.0022556311
0.0022219219
0.0021874842
0.0021523782
0.002116675
0.0020804709
0.0020434363
0.0020054092
0.0019663555
0.0019265033
0.001885763
0.0018436265
0.0018001151
0.0017552647
0.0017090935
0.0016612558
0.0016114574
0.0015597187
0.0015060248
0.0014500104
0.0013912028
0.0013296007
0.0012649436
0.001198004
0.0011312846
0.0010665819
0.0010036365
0.0009418204
0.00088114229
0.00082172183
0.00076355027
0.00070640786
0.00065030883
0.00059534077
0.00054169561
0.0004894884
0.00043869385
0.00038947903
0.00034240464
0.00029742793
0.00025702407
0.00021800904
0.00019542051
0.00015864427
0.00030023824
-0.00027577644
0.0056096031
0.0056465519
0.0057214011
0.0058146712
0.0059273149
0.006057787
0.0062042601
0.0063657343
0.0065418383
0.006732655
0.0069387035
0.0071610164
0.0074012323
0.0076618847
0.0079465105
0.0082608156
0.0086119185
0.0090146407
0.0094817275
0.010066787
0.010771824
0.011911148
0.013175659
0.018957487
0.015451914
0.0092912949
0.0078691569
0.0073242078
0.0067715864
0.0063090362
0.0059649427
0.0057030929
0.0054727368
0.0052638981
0.0050809151
0.0049279019
0.0047936624
0.0046648595
0.0045479884
0.0044454768
0.0043487674
0.0042590913
0.0041763204
0.0040988351
0.0040261474
0.003957835
0.0038928168
0.0038317008
0.00377376
0.0037179388
0.0036649979
0.0036145179
0.0035653182
0.0035182888
0.0034733263
0.0034294174
0.0033866527
0.0033454954
0.0033057161
0.0032666085
0.0032282539
0.0031911051
0.0031550089
0.0031193297
0.0030840923
0.0030496657
0.003016133
0.0029828709
0.0029499046
0.0029172211
0.0028851743
0.002853616
0.0028220448
0.0027906048
0.0027593025
0.0027284196
0.0026977309
0.0026668863
0.0026359947
0.0026050834
0.0025743923
0.0025436689
0.0025126172