/*--------------------------------*- C++ -*----------------------------------*\
  =========                 |
  \\      /  F ield         | OpenFOAM: The Open Source CFD Toolbox
   \\    /   O peration     | Website:  https://openfoam.org
    \\  /    A nd           | Version:  12
     \\/     M anipulation  |
\*---------------------------------------------------------------------------*/
FoamFile
{
    format      ascii;
    class       surfaceScalarField;
    location    "600";
    object      phi;
}
// * * * * * * * * * * * * * * * * * * * * * * * * * * * * * * * * * * * * * //

dimensions      [0 3 -1 0 0 0 0];

internalField   nonuniform List<scalar> 
14782
(
0.00078661019
7.0708811e-06
-0.00079368107
0.00077710028
9.5099044e-06
0.00076666018
1.0440102e-05
0.00075596071
1.0699477e-05
0.00074512011
1.0840598e-05
0.00073423792
1.0882187e-05
0.00072339063
1.0847292e-05
0.00071262586
1.0764765e-05
0.00070196985
1.0656009e-05
0.00069144692
1.0522935e-05
0.00068107677
1.037015e-05
0.00067087701
1.0199762e-05
0.00066087162
1.0005393e-05
0.00065108152
9.7900985e-06
0.00064153885
9.5426708e-06
0.00063228615
9.2527001e-06
0.00062338518
8.9009623e-06
0.00061490541
8.4797708e-06
0.00060690595
7.9994658e-06
0.00059943749
7.4684593e-06
0.00059254445
6.8930413e-06
0.00058626145
6.2830002e-06
0.00058061258
5.6488623e-06
0.00057560689
5.0056935e-06
0.00057122731
4.3795776e-06
0.00056742441
3.8028983e-06
0.00056412434
3.3000699e-06
0.00056123457
2.8897716e-06
0.00055865105
2.5835237e-06
0.00055627652
2.3745299e-06
0.00055403283
2.2436896e-06
0.00055186687
2.1659637e-06
0.00054974644
2.1204215e-06
0.0005476558
2.090642e-06
0.00054558673
2.0690698e-06
0.00054352998
2.0567519e-06
0.0005414757
2.0542814e-06
0.00053941447
2.0612282e-06
0.00053734076
2.0737136e-06
0.00053525631
2.0844433e-06
0.00053316823
2.088083e-06
0.00053108485
2.0833776e-06
0.00052901326
2.0715961e-06
0.00052695718
2.0560744e-06
0.00052491893
2.0382514e-06
0.00052290034
2.0185909e-06
0.00052090307
1.9972747e-06
0.00051892846
1.9746109e-06
0.00051697794
1.9505196e-06
0.00051505261
1.9253219e-06
0.00051315247
1.9001427e-06
0.00051127717
1.8752994e-06
0.00050942672
1.8504537e-06
0.00050760134
1.825379e-06
0.00050580062
1.8007233e-06
0.00050402393
1.7766884e-06
0.0005022709
1.7530311e-06
0.00050054122
1.7296742e-06
0.00049883417
1.7070565e-06
0.00049714925
1.6849126e-06
0.00049548607
1.6631836e-06
0.00049384396
1.6421091e-06
0.00049222233
1.6216271e-06
0.0004906208
1.6015372e-06
0.00048903886
1.5819363e-06
0.00048747599
1.5628707e-06
0.00048593181
1.5441752e-06
0.00048440584
1.5259777e-06
0.00048289756
1.5082806e-06
0.00048140659
1.4909693e-06
0.00047993242
1.4741626e-06
0.00047847464
1.4577862e-06
0.00047703281
1.4418243e-06
0.00047560651
1.4263077e-06
0.00047419533
1.4111746e-06
0.00047279887
1.3964578e-06
0.00047141675
1.3821199e-06
0.0004700486
1.3681505e-06
0.00046869405
1.3545499e-06
0.00046735275
1.3413028e-06
0.00046602435
1.3284013e-06
0.00046470851
1.3158358e-06
0.00046340492
1.3035982e-06
0.00046211323
1.2916822e-06
0.00046083315
1.2800837e-06
0.00045956435
1.2688026e-06
0.00045830651
1.2578406e-06
0.00045705929
1.2472126e-06
0.00045582237
1.2369257e-06
0.00045459532
1.2270455e-06
0.00045337777
1.2175534e-06
0.00045216902
1.2087474e-06
0.00045096871
1.2003114e-06
0.00044977487
1.1938354e-06
0.00044858828
1.1865915e-06
0.00044739954
1.1887429e-06
0.00044621909
1.1804456e-06
0.00044497323
1.2458597e-06
0.00044388414
1.0890959e-06
1.5508188e-06
0.00082501643
6.802259e-06
-0.0008247478
0.00082525091
9.2754243e-06
0.00082516638
1.052463e-05
0.00082474697
1.1118879e-05
0.00082393905
1.1648518e-05
0.00082270266
1.2118587e-05
0.00082102924
1.2520706e-05
0.00081890996
1.2884048e-05
0.00081634086
1.3225112e-05
0.00081332002
1.3543772e-05
0.0008098495
1.3840666e-05
0.00080592921
1.4120058e-05
0.00080156511
1.4369493e-05
0.00079675667
1.4598534e-05
0.00079150657
1.4792769e-05
0.00078581237
1.4946908e-05
0.00077967833
1.5035002e-05
0.00077314274
1.5015352e-05
0.00076626234
1.4879872e-05
0.0007590926
1.4638199e-05
0.00075169993
1.4285706e-05
0.00074416578
1.3817158e-05
0.00073658211
1.3232529e-05
0.00072904904
1.2538764e-05
0.00072167741
1.1751208e-05
0.00071459035
1.0889961e-05
0.00070790908
9.9813323e-06
0.00070171768
9.0811785e-06
0.00069604534
8.2558639e-06
0.00069087184
7.5480263e-06
0.00068614064
6.9748865e-06
0.00068177435
6.5322545e-06
0.00067769081
6.2039632e-06
0.00067382224
5.9592113e-06
0.00067012181
5.7695005e-06
0.00066656003
5.6185288e-06
0.00066312109
5.4932244e-06
0.00065979506
5.3872621e-06
0.00065657243
5.2963379e-06
0.00065344293
5.213941e-06
0.00065039497
5.1360434e-06
0.00064741642
5.0619293e-06
0.00064449726
4.9907584e-06
0.00064163078
4.9225543e-06
0.00063881436
4.8546699e-06
0.00063604754
4.7854123e-06
0.00063332973
4.7150885e-06
0.00063065923
4.6451076e-06
0.00062803423
4.5755171e-06
0.00062545347
4.5060833e-06
0.0006229158
4.4378088e-06
0.00062042026
4.370844e-06
0.00061796606
4.3046552e-06
0.00061555249
4.2389435e-06
0.00061317843
4.1747906e-06
0.00061084267
4.1124492e-06
0.0006085443
4.0514014e-06
0.00060628255
3.991421e-06
0.00060405623
3.9333739e-06
0.00060186425
3.8768897e-06
0.00059970576
3.8216746e-06
0.00059757981
3.7680614e-06
0.00059548545
3.7159852e-06
0.00059342187
3.6651155e-06
0.00059138821
3.6156019e-06
0.00058938356
3.5675201e-06
0.00058740716
3.5205706e-06
0.0005854582
3.4749411e-06
0.00058353585
3.4306281e-06
0.0005816394
3.3874211e-06
0.00057976806
3.3455004e-06
0.00057792111
3.3047359e-06
0.00057609785
3.2650836e-06
0.00057429758
3.2265808e-06
0.00057251964
3.1891137e-06
0.00057076338
3.1527222e-06
0.00056902816
3.1173332e-06
0.0005673134
3.0829149e-06
0.00056561849
3.0494555e-06
0.00056394288
3.01692e-06
0.00056228599
2.985284e-06
0.00056064731
2.9545208e-06
0.0005590263
2.9246073e-06
0.00055742246
2.8955244e-06
0.00055583528
2.867258e-06
0.00055426429
2.8398016e-06
0.00055270897
2.8131571e-06
0.00055116884
2.787343e-06
0.00054964337
2.7623927e-06
0.00054813203
2.738385e-06
0.00054663416
2.715425e-06
0.00054514914
2.6937678e-06
0.00054367575
2.6736985e-06
0.00054221344
2.6561516e-06
0.00054075849
2.6415369e-06
0.00053931128
2.6359529e-06
0.00053785658
2.6351507e-06
0.00053640742
2.6950148e-06
0.00053481617
2.6803499e-06
3.0300123e-06
0.00085280047
6.510944e-06
-0.00085250916
0.00085323215
8.8437418e-06
0.00085360442
1.0152365e-05
0.00085389479
1.0828511e-05
0.00085414215
1.1401162e-05
0.00085433764
1.1923094e-05
0.00085449007
1.2368269e-05
0.00085460195
1.2772168e-05
0.00085467286
1.3154208e-05
0.00085469711
1.3519515e-05
0.00085466911
1.3868675e-05
0.00085458013
1.4209039e-05
0.00085441992
1.4529695e-05
0.00085417443
1.484403e-05
0.00085382529
1.5141902e-05
0.00085334948
1.5422724e-05
0.00085270456
1.5679917e-05
0.00085181467
1.5905251e-05
0.00085059845
1.6096086e-05
0.00084898385
1.62528e-05
0.00084689517
1.6374389e-05
0.00084425184
1.6460482e-05
0.00084097312
1.6511249e-05
0.0008369839
1.6527986e-05
0.00083222353
1.6511575e-05
0.00082664971
1.6463784e-05
0.00082029684
1.6334207e-05
0.00081329123
1.6086783e-05
0.00080581276
1.5734339e-05
0.00079809087
1.5269917e-05
0.00079036975
1.4696001e-05
0.00078287395
1.4028054e-05
0.00077578512
1.3292798e-05
0.00076921899
1.2525341e-05
0.00076320058
1.1787908e-05
0.00075768011
1.1138995e-05
0.00075257273
1.0600612e-05
0.00074778654
1.0173446e-05
0.00074324442
9.838464e-06
0.00073889535
9.5630037e-06
0.00073471051
9.3208829e-06
0.00073067385
9.0985944e-06
0.00072677447
8.890142e-06
0.00072300148
8.6955362e-06
0.00071934363
8.5125226e-06
0.00071578941
8.3396387e-06
0.0007123279
8.1765981e-06
0.00070894993
8.0230685e-06
0.00070564929
7.8761613e-06
0.00070242213
7.733245e-06
0.00069926514
7.5947943e-06
0.00069617487
7.4611208e-06
0.00069314792
7.3315967e-06
0.00069018147
7.2053961e-06
0.00068727291
7.0833548e-06
0.00068441996
6.9653977e-06
0.00068162068
6.8506805e-06
0.00067887329
6.7388077e-06
0.00067617579
6.6308815e-06
0.00067352636
6.5263127e-06
0.00067092349
6.4245481e-06
0.00066836559
6.3259641e-06
0.00066585112
6.2304517e-06
0.00066337873
6.1375088e-06
0.00066094705
6.0472786e-06
0.00065855474
5.9598294e-06
0.0006562006
5.8747137e-06
0.0006538834
5.7921349e-06
0.00065160197
5.7120578e-06
0.00064935523
5.6341648e-06
0.00064714207
5.558664e-06
0.00064496144
5.4853612e-06
0.00064281236
5.4141694e-06
0.00064069382
5.3451136e-06
0.00063860491
5.2780222e-06
0.00063654471
5.2129254e-06
0.00063451234
5.1497075e-06
0.00063250695
5.0883042e-06
0.00063052772
5.0286815e-06
0.00062857387
4.9707762e-06
0.00062664461
4.9145387e-06
0.00062473921
4.859917e-06
0.00062285696
4.8068659e-06
0.00062099713
4.755346e-06
0.00061915907
4.7053271e-06
0.00061734208
4.6567896e-06
0.0006155455
4.6097313e-06
0.00061376868
4.5641671e-06
0.00061201091
4.5201596e-06
0.00061027152
4.477782e-06
0.00060854963
4.4373081e-06
0.00060684456
4.3988392e-06
0.00060515469
4.3635682e-06
0.0006034798
4.3310464e-06
0.00060181458
4.3067548e-06
0.00060016247
4.2880567e-06
0.00059849902
4.2986072e-06
0.00059686952
4.3245079e-06
0.00059497612
4.5737538e-06
4.582531e-06
0.00088135215
6.2939282e-06
-0.00088113513
0.00088175976
8.4361273e-06
0.00088214702
9.765104e-06
0.00088245277
1.052276e-05
0.00088271393
1.1140007e-05
0.00088293772
1.1699305e-05
0.00088313112
1.2174867e-05
0.00088330224
1.2601047e-05
0.00088345684
1.2999612e-05
0.00088359684
1.3379516e-05
0.00088372389
1.3741624e-05
0.00088384103
1.4091899e-05
0.00088394644
1.4424278e-05
0.00088404231
1.4748166e-05
0.00088412709
1.5057119e-05
0.00088419995
1.5349859e-05
0.0008842588
1.5621072e-05
0.0008842996
1.5864455e-05
0.00088431712
1.6078559e-05
0.00088430503
1.6264894e-05
0.00088425458
1.6424841e-05
0.00088415389
1.6561169e-05
0.0008839872
1.6677935e-05
0.00088373311
1.6782081e-05
0.00088336006
1.6884623e-05
0.00088282233
1.7001513e-05
0.00088201682
1.7139717e-05
0.00088079884
1.7304759e-05
0.00087902855
1.7504634e-05
0.00087656437
1.7734099e-05
0.00087328079
1.7979575e-05
0.00086909096
1.8217882e-05
0.00086396218
1.8421587e-05
0.00085797678
1.8510739e-05
0.00085134131
1.8423377e-05
0.00084431517
1.8165135e-05
0.00083717361
1.7742171e-05
0.00083016718
1.7179875e-05
0.00082348792
1.6517724e-05
0.00081723927
1.581165e-05
0.00081142852
1.5131639e-05
0.00080600097
1.4526139e-05
0.00080087951
1.4011606e-05
0.00079599468
1.3580365e-05
0.00079130068
1.3206528e-05
0.00078677287
1.2867449e-05
0.00078239831
1.2551158e-05
0.0007781672
1.2254171e-05
0.00077406948
1.1973881e-05
0.00077009429
1.1708442e-05
0.00076623048
1.14586e-05
0.00076246825
1.1223353e-05
0.0007588001
1.0999751e-05
0.0007552206
1.0784897e-05
0.00075172501
1.0578941e-05
0.00074830881
1.0381597e-05
0.00074496784
1.0191656e-05
0.00074169845
1.0008193e-05
0.00073849728
9.8320511e-06
0.00073536144
9.6621506e-06
0.00073228832
9.497671e-06
0.0007292753
9.3389797e-06
0.00072631996
9.1857927e-06
0.00072342016
9.0373161e-06
0.00072057383
8.8936065e-06
0.00071777899
8.7546665e-06
0.00071503386
8.6198492e-06
0.00071233667
8.4893171e-06
0.00070968577
8.3629599e-06
0.00070707961
8.2403216e-06
0.00070451668
8.1216004e-06
0.00070199553
8.0065121e-06
0.00069951479
7.8949028e-06
0.00069707314
7.7867622e-06
0.00069466932
7.6818447e-06
0.0006923021
7.5801515e-06
0.00068997029
7.4815106e-06
0.00068767279
7.3858111e-06
0.00068540848
7.2929834e-06
0.00068317634
7.2029248e-06
0.00068097533
7.1155489e-06
0.00067880447
7.0307684e-06
0.00067666283
6.9485061e-06
0.00067454949
6.8686941e-06
0.00067246354
6.7912774e-06
0.00067040411
6.7162158e-06
0.00066837034
6.6434962e-06
0.00066636139
6.5731225e-06
0.00066437636
6.5051843e-06
0.00066241441
6.4397374e-06
0.00066047448
6.3772413e-06
0.00065855572
6.3175939e-06
0.00065665626
6.2630311e-06
0.0006547759
6.2114026e-06
0.00065290852
6.1741366e-06
0.00065105892
6.137661e-06
0.00064919753
6.1599881e-06
0.00064738902
6.1330215e-06
0.00064523697
6.7258021e-06
6.2462276e-06
0.00091089258
6.1248073e-06
-0.00091072346
0.00091124321
8.0854982e-06
0.00091160447
9.4038409e-06
0.00091190516
1.0222073e-05
0.00091216508
1.0880087e-05
0.00091239642
1.146797e-05
0.00091260053
1.1970754e-05
0.00091278426
1.2417313e-05
0.00091295188
1.2831994e-05
0.00091310645
1.3224949e-05
0.0009132497
1.3598372e-05
0.00091338372
1.3957879e-05
0.00091350804
1.4299961e-05
0.0009136252
1.4631002e-05
0.00091373526
1.4947058e-05
0.00091383906
1.5246061e-05
0.00091393633
1.5523798e-05
0.00091402582
1.5774964e-05
0.00091410642
1.5997967e-05
0.00091417727
1.6194039e-05
0.0009142372
1.6364909e-05
0.00091428455
1.6513823e-05
0.00091431731
1.6645178e-05
0.00091433348
1.6765911e-05
0.00091433115
1.6886952e-05
0.00091430911
1.7023553e-05
0.00091426365
1.7185174e-05
0.00091418808
1.7380331e-05
0.00091407288
1.7619835e-05
0.00091390248
1.7904494e-05
0.00091365323
1.8228833e-05
0.00091328658
1.8584526e-05
0.0009127414
1.8966769e-05
0.00091188913
1.9363008e-05
0.00091055099
1.9761514e-05
0.00090855862
2.0157514e-05
0.00090576337
2.053742e-05
0.00090206026
2.088298e-05
0.000897425
2.1152991e-05
0.0008919674
2.1269241e-05
0.00088591078
2.1188262e-05
0.00087952099
2.091593e-05
0.00087306255
2.0470045e-05
0.00086675386
1.988906e-05
0.00086072647
1.9233916e-05
0.00085501634
1.8577575e-05
0.00084959686
1.7970643e-05
0.00084441683
1.7434198e-05
0.00083943126
1.6959454e-05
0.00083461235
1.652735e-05
0.00082994564
1.6125305e-05
0.00082542255
1.5746449e-05
0.00082103508
1.5387215e-05
0.00081677427
1.5045705e-05
0.00081263042
1.4722798e-05
0.00080859468
1.4417337e-05
0.00080466005
1.4126285e-05
0.00080082104
1.3847201e-05
0.00079707262
1.3580475e-05
0.00079341018
1.3324589e-05
0.00078982951
1.307834e-05
0.00078632668
1.2841808e-05
0.00078289817
1.2614303e-05
0.00077954085
1.2394632e-05
0.00077625176
1.2182704e-05
0.00077302806
1.1978362e-05
0.00076986725
1.1780664e-05
0.0007667669
1.1589662e-05
0.00076372475
1.1405114e-05
0.00076073869
1.1226378e-05
0.0007578067
1.1053593e-05
0.00075492686
1.0886348e-05
0.00075209738
1.0724389e-05
0.0007493165
1.056764e-05
0.00074658259
1.0415757e-05
0.00074389405
1.0268689e-05
0.00074124937
1.0126189e-05
0.0007386471
9.9880801e-06
0.00073608584
9.8542418e-06
0.00073356425
9.7245166e-06
0.00073108103
9.5987677e-06
0.00072863494
9.4768599e-06
0.00072622478
9.3586727e-06
0.00072384937
9.2440989e-06
0.0007215076
9.1330493e-06
0.00071919836
9.0254539e-06
0.00071692058
8.9212802e-06
0.00071467319
8.8205131e-06
0.00071245511
8.7232638e-06
0.00071026528
8.6295615e-06
0.00070810247
8.5400569e-06
0.00070596564
8.4544176e-06
0.00070385269
8.3759883e-06
0.00070176333
8.3007546e-06
0.0006996909
8.2465712e-06
0.00069764093
8.1876299e-06
0.00069558027
8.2206527e-06
0.00069358827
8.1250175e-06
0.00069118901
9.1250662e-06
8.0394524e-06
0.00094142415
5.9876819e-06
-0.00094128702
0.00094172722
7.7824226e-06
0.00094205996
9.0711024e-06
0.00094235278
9.9292574e-06
0.00094261146
1.0621403e-05
0.0009428452
1.1234229e-05
0.0009430544
1.1761557e-05
0.00094324362
1.2228095e-05
0.00094341664
1.2658976e-05
0.00094357652
1.3065068e-05
0.00094372518
1.3449706e-05
0.00094386489
1.3818172e-05
0.0009439959
1.4168955e-05
0.00094412016
1.4506739e-05
0.00094423805
1.482917e-05
0.00094435014
1.5133967e-05
0.00094445638
1.5417556e-05
0.000944556
1.567535e-05
0.00094464818
1.5905787e-05
0.00094473216
1.6110057e-05
0.00094480718
1.628989e-05
0.00094487277
1.6448229e-05
0.00094492843
1.658952e-05
0.00094497361
1.672073e-05
0.00094500831
1.6852249e-05
0.00094503339
1.6998472e-05
0.00094504924
1.7169327e-05
0.00094505637
1.7373205e-05
0.00094505579
1.7620415e-05
0.00094504735
1.7912929e-05
0.00094502973
1.8246456e-05
0.00094500004
1.8614209e-05
0.0009449545
1.9012312e-05
0.00094488495
1.9432564e-05
0.00094477676
1.9869697e-05
0.00094460961
2.0324667e-05
0.00094435343
2.0793602e-05
0.00094396269
2.1273721e-05
0.00094335433
2.1761349e-05
0.0009423795
2.2244069e-05
0.00094085716
2.27106e-05
0.00093862172
2.3151373e-05
0.00093554227
2.3549492e-05
0.00093156501
2.386632e-05
0.00092677008
2.4028853e-05
0.00092135234
2.399531e-05
0.00091555464
2.3768342e-05
0.00090962538
2.3363463e-05
0.00090376335
2.2821481e-05
0.00089808026
2.2210447e-05
0.00089260769
2.1597866e-05
0.0008873308
2.1023345e-05
0.00088222237
2.0495648e-05
0.00087726215
2.000592e-05
0.00087243956
1.9545393e-05
0.00086774916
1.9107734e-05
0.00086318601
1.868943e-05
0.00085874376
1.8289457e-05
0.00085441496
1.7909272e-05
0.00085019293
1.7546624e-05
0.00084607218
1.7199081e-05
0.00084204794
1.6866051e-05
0.00083811573
1.6546516e-05
0.00083427138
1.6238984e-05
0.00083051095
1.5943129e-05
0.00082683083
1.5658486e-05
0.00082322776
1.5383731e-05
0.00081969865
1.511877e-05
0.00081624058
1.4863184e-05
0.00081285088
1.4616082e-05
0.00080952697
1.4377502e-05
0.00080626645
1.4146868e-05
0.00080306704
1.3923794e-05
0.00079992657
1.3708107e-05
0.00079684299
1.3499338e-05
0.00079381432
1.329736e-05
0.00079083868
1.3101829e-05
0.00078791428
1.2912486e-05
0.00078503938
1.272914e-05
0.00078221233
1.2551564e-05
0.00077943154
1.2379557e-05
0.00077669548
1.2212922e-05
0.00077400267
1.2051484e-05
0.00077135168
1.1895085e-05
0.00076874114
1.1743592e-05
0.0007661697
1.1596894e-05
0.00076363605
1.1454932e-05
0.0007611389
1.1317663e-05
0.00075867695
1.1185213e-05
0.00075624893
1.1057576e-05
0.00075385339
1.0935595e-05
0.00075148912
1.081869e-05
0.00074915376
1.071135e-05
0.00074684691
1.0607603e-05
0.00074456145
1.0532031e-05
0.0007423034
1.0445684e-05
0.00074003658
1.0487467e-05
0.00073785315
1.0308455e-05
0.00073520578
1.1772437e-05
9.9760332e-06
0.00097297383
5.8730797e-06
-0.00097285922
0.00097324135
7.514898e-06
0.00097354793
8.7645225e-06
0.00097382953
9.6476593e-06
0.00097408444
1.0366493e-05
0.00097431835
1.1000317e-05
0.00097453071
1.1549203e-05
0.00097472413
1.2034665e-05
0.00097490186
1.2481245e-05
0.00097506657
1.2900358e-05
0.00097522014
1.3296144e-05
0.00097536458
1.3673728e-05
0.00097550051
1.403303e-05
0.00097562951
1.4377738e-05
0.00097575217
1.4706508e-05
0.00097586896
1.5017175e-05
0.00097597986
1.5306653e-05
0.00097608423
1.5570984e-05
0.00097618137
1.5808647e-05
0.00097627074
1.6020686e-05
0.00097635178
1.6208848e-05
0.00097642402
1.6375994e-05
0.00097648703
1.6526509e-05
0.00097654054
1.666722e-05
0.00097658467
1.6808117e-05
0.00097662057
1.696257e-05
0.00097664939
1.7140513e-05
0.00097667233
1.7350261e-05
0.00097669127
1.7601472e-05
0.0009767075
1.7896702e-05
0.0009767216
1.8232358e-05
0.00097673344
1.860237e-05
0.00097674278
1.9002965e-05
0.00097674831
1.9427042e-05
0.00097674796
1.9870041e-05
0.00097673947
2.0333161e-05
0.00097671919
2.0813877e-05
0.00097668249
2.1310423e-05
0.00097662255
2.1821287e-05
0.00097652589
2.2340732e-05
0.00097637077
2.2865718e-05
0.00097612597
2.3396171e-05
0.00097574488
2.3930587e-05
0.00097514416
2.4467037e-05
0.00097417884
2.499417e-05
0.00097267377
2.5500384e-05
0.00097046945
2.5972663e-05
0.00096744002
2.6392889e-05
0.00096356657
2.669493e-05
0.0009589616
2.6815418e-05
0.00095381559
2.6743877e-05
0.00094835973
2.6479204e-05
0.00094280739
2.6047985e-05
0.00093730402
2.5509297e-05
0.00093191804
2.4931371e-05
0.00092666494
2.4360839e-05
0.0009215384
2.3815964e-05
0.00091653081
2.3297049e-05
0.00091163905
2.2801033e-05
0.00090686258
2.2323089e-05
0.00090219987
2.1861797e-05
0.00089764718
2.1418742e-05
0.00089319989
2.0993806e-05
0.00088885375
2.0585124e-05
0.00088460493
2.0191942e-05
0.00088044979
1.9813629e-05
0.00087638481
1.9448715e-05
0.00087240652
1.9097053e-05
0.00086851167
1.8758034e-05
0.00086469724
1.8430515e-05
0.00086096029
1.8114457e-05
0.00085729803
1.7809122e-05
0.00085370784
1.7513982e-05
0.00085018719
1.7228761e-05
0.00084673367
1.6952853e-05
0.00084334498
1.668605e-05
0.00084001891
1.64279e-05
0.00083675335
1.6178051e-05
0.00083354626
1.5936233e-05
0.00083039568
1.570214e-05
0.00082729974
1.5475495e-05
0.00082425663
1.5256032e-05
0.0008212646
1.5043513e-05
0.00081832197
1.4837721e-05
0.00081542709
1.463847e-05
0.00081257838
1.4445603e-05
0.00080977429
1.4259025e-05
0.00080701329
1.4078659e-05
0.00080429387
1.3904638e-05
0.00080161452
1.3736918e-05
0.00079897359
1.3576528e-05
0.00079636965
1.3422635e-05
0.00079380011
1.3280884e-05
0.00079126442
1.3143299e-05
0.00078875505
1.3041394e-05
0.00078627837
1.2922366e-05
0.00078379546
1.2970381e-05
0.00078141036
1.2693551e-05
0.00077850773
1.4675068e-05
1.2068492e-05
0.0010055835
5.7756795e-06
-0.0010054861
0.0010058195
7.2788685e-06
0.0010061011
8.4829469e-06
0.0010063697
9.3790426e-06
0.0010066188
1.0117379e-05
0.0010068511
1.0768021e-05
0.0010070649
1.1335408e-05
0.0010072613
1.1838236e-05
0.0010074429
1.229966e-05
0.0010076119
1.2731383e-05
0.0010077699
1.3138126e-05
0.0010079187
1.3524907e-05
0.0010080591
1.3892677e-05
0.0010081923
1.4244492e-05
0.0010083191
1.4579699e-05
0.0010084399
1.4896387e-05
0.0010085547
1.5191889e-05
0.0010086629
1.5462814e-05
0.0010087638
1.5707721e-05
0.001008857
1.5927507e-05
0.0010089419
1.6123907e-05
0.0010090182
1.6299728e-05
0.0010090854
1.6459294e-05
0.0010091434
1.660924e-05
0.0010091924
1.6759105e-05
0.0010092335
1.6921406e-05
0.0010092681
1.710598e-05
0.0010092973
1.7321024e-05
0.0010093232
1.7575575e-05
0.0010093474
1.7872517e-05
0.0010093708
1.8208915e-05
0.0010093939
1.8579342e-05
0.0010094167
1.8980123e-05
0.0010094389
1.9404885e-05
0.0010094596
1.984928e-05
0.0010094786
2.0314172e-05
0.001009495
2.0797507e-05
0.0010095078
2.1297594e-05
0.001009516
2.1813102e-05
0.0010095173
2.2339434e-05
0.0010095084
2.2874579e-05
0.0010094851
2.3419528e-05
0.0010094413
2.3974388e-05
0.0010093685
2.4539838e-05
0.0010092501
2.5112585e-05
0.0010090595
2.5690895e-05
0.0010087579
2.6274319e-05
0.0010082877
2.6863099e-05
0.0010075354
2.7447254e-05
0.0010063384
2.8012334e-05
0.0010045361
2.8546187e-05
0.0010019842
2.9031141e-05
0.0009986239
2.9408273e-05
0.00099451822
2.9614983e-05
0.00098981853
2.9631057e-05
0.00098473206
2.9447306e-05
0.00097946203
2.9086e-05
0.00097415619
2.8602886e-05
0.0009688953
2.806192e-05
0.0009637109
2.7507495e-05
0.00095861188
2.6960811e-05
0.00095360228
2.6428345e-05
0.00094868682
2.5909263e-05
0.00094386943
2.5402516e-05
0.00093915121
2.4910161e-05
0.00093453101
2.4433833e-05
0.00093000694
2.3972782e-05
0.00092557691
2.3527086e-05
0.00092123865
2.3096292e-05
0.00091698976
2.2679408e-05
0.00091282763
2.2276584e-05
0.0009087497
2.1887055e-05
0.00090475342
2.1510257e-05
0.00090083628
2.1145904e-05
0.00089699581
2.0793323e-05
0.00089322959
2.0452268e-05
0.00088953528
2.0122214e-05
0.00088591059
1.9802742e-05
0.0008823533
1.9493523e-05
0.00087886126
1.9194181e-05
0.00087543238
1.8904376e-05
0.00087206463
1.862378e-05
0.00086875605
1.8352093e-05
0.00086550473
1.8089044e-05
0.0008623088
1.7834394e-05
0.00085916647
1.7587938e-05
0.00085607595
1.7349544e-05
0.00085303551
1.7119098e-05
0.00085004341
1.6896742e-05
0.00084709794
1.6682386e-05
0.00084419722
1.6477247e-05
0.00084133962
1.6280237e-05
0.00083852233
1.6098167e-05
0.00083574461
1.5921024e-05
0.00083299859
1.5787413e-05
0.00083029088
1.5630076e-05
0.00082757993
1.5681327e-05
0.00082498135
1.5292132e-05
0.00082181262
1.7843801e-05
1.4329162e-05
0.0010392861
5.6915059e-06
-0.0010392019
0.0010394945
7.0704078e-06
0.0010397526
8.2248344e-06
0.0010400078
9.1239273e-06
0.0010402498
9.8753026e-06
0.001040479
1.0538826e-05
0.0010406927
1.1121736e-05
0.0010408908
1.1640112e-05
0.0010410752
1.2115256e-05
0.0010412477
1.2558922e-05
0.0010414096
1.297624e-05
0.0010415624
1.3372114e-05
0.0010417068
1.3748231e-05
0.0010418441
1.410724e-05
0.0010419748
1.4448974e-05
0.0010420994
1.477182e-05
0.0010422178
1.5073488e-05
0.0010423295
1.535109e-05
0.0010424339
1.5603298e-05
0.0010425305
1.5830888e-05
0.0010426189
1.6035562e-05
0.0010426985
1.6220076e-05
0.0010427691
1.6388678e-05
0.0010428306
1.6547801e-05
0.0010428831
1.6706532e-05
0.0010429279
1.6876612e-05
0.0010429662
1.706772e-05
0.0010429993
1.7287901e-05
0.0010430292
1.7545656e-05
0.0010430576
1.7844113e-05
0.0010430856
1.8180935e-05
0.0010431137
1.8551282e-05
0.0010431422
1.8951619e-05
0.0010431709
1.9376185e-05
0.0010431994
1.9820812e-05
0.0010432275
2.028599e-05
0.0010432551
2.0769925e-05
0.0010432818
2.127092e-05
0.0010433073
2.178765e-05
0.0010433307
2.2316033e-05
0.001043351
2.2854236e-05
0.0010433672
2.3403319e-05
0.0010433779
2.3963676e-05
0.0010433816
2.4536159e-05
0.0010433754
2.5118757e-05
0.0010433551
2.5711177e-05
0.0010433147
2.6314781e-05
0.0010432463
2.6931497e-05
0.0010431355
2.7558011e-05
0.0010429571
2.819077e-05
0.0010426733
2.8829956e-05
0.0010422297
2.9474769e-05
0.0010415225
3.0115423e-05
0.0010404013
3.0736197e-05
0.001038709
3.1323412e-05
0.0010363043
3.1851985e-05
0.0010331273
3.2262962e-05
0.0010292288
3.2501452e-05
0.0010247458
3.2544837e-05
0.00101987
3.2383324e-05
0.0010147859
3.2044903e-05
0.001009627
3.1587224e-05
0.0010044692
3.1067081e-05
0.00099934822
3.0523524e-05
0.00099428167
2.9976705e-05
0.00098928215
2.9433356e-05
0.00098435975
2.8895183e-05
0.00097952084
2.8365993e-05
0.00097476845
2.7848683e-05
0.00097010375
2.7344109e-05
0.00096552689
2.6853443e-05
0.0009610374
2.6376546e-05
0.00095663424
2.5913418e-05
0.00095231595
2.5464199e-05
0.00094808084
2.502843e-05
0.00094392705
2.4606051e-05
0.00093985263
2.4196635e-05
0.00093585555
2.3799829e-05
0.00093193373
2.3415343e-05
0.0009280851
2.3042812e-05
0.00092430758
2.2681895e-05
0.00092059911
2.2332245e-05
0.00091695766
2.1993543e-05
0.00091338122
2.166549e-05
0.00090986779
2.1347817e-05
0.00090641544
2.1040289e-05
0.00090302224
2.0742751e-05
0.00089968627
2.0455062e-05
0.00089640563
2.0177379e-05
0.00089317844
1.9909578e-05
0.00089000263
1.9653064e-05
0.00088687636
1.9406501e-05
0.00088379665
1.9177875e-05
0.00088076255
1.8955126e-05
0.00087776589
1.8784079e-05
0.00087481348
1.8582481e-05
0.00087186121
1.8633599e-05
0.00086903614
1.8117202e-05
0.00086558809
2.1291851e-05
1.6770613e-05
0.0010741143
5.6172098e-06
-0.00107404
0.0010742994
6.885345e-06
0.0010745362
7.9880467e-06
0.0010747781
8.8820392e-06
0.0010750126
9.6407807e-06
0.0010752378
1.0313606e-05
0.0010754503
1.0909226e-05
0.0010756491
1.1441285e-05
0.0010758355
1.1928935e-05
0.0010760106
1.2383744e-05
0.0010761758
1.2811121e-05
0.001076332
1.3215833e-05
0.0010764802
1.3600086e-05
0.0010766212
1.396627e-05
0.0010767556
1.4314562e-05
0.0010768837
1.4643655e-05
0.0010770056
1.4951595e-05
0.0010771208
1.5235941e-05
0.0010772286
1.5495501e-05
0.0010773285
1.5730955e-05
0.0010774201
1.5943961e-05
0.001077503
1.6137221e-05
0.0010775767
1.6314894e-05
0.0010776413
1.6483203e-05
0.0010776971
1.6650797e-05
0.001077745
1.6828698e-05
0.0010777863
1.7026371e-05
0.0010778225
1.7251699e-05
0.0010778555
1.7512705e-05
0.0010778869
1.781271e-05
0.0010779179
1.8149924e-05
0.0010779491
1.8520065e-05
0.001077981
1.8919769e-05
0.0010780133
1.9343825e-05
0.0010780459
1.9788251e-05
0.0010780787
2.0253202e-05
0.0010781116
2.0737056e-05
0.0010781444
2.1238108e-05
0.001078177
2.1755018e-05
0.0010782089
2.2284081e-05
0.0010782397
2.2823511e-05
0.0010782687
2.3374248e-05
0.0010782957
2.393677e-05
0.0010783199
2.4511891e-05
0.0010783407
2.5098007e-05
0.0010783567
2.5695098e-05
0.0010783667
2.6304846e-05
0.0010783688
2.6929348e-05
0.0010783604
2.7566399e-05
0.001078337
2.8214238e-05
0.0010782918
2.8875117e-05
0.0010782162
2.9550397e-05
0.0010780945
3.0237113e-05
0.0010778995
3.0931168e-05
0.001077591
3.1631902e-05
0.0010771066
3.2336465e-05
0.0010763367
3.3032766e-05
0.0010751346
3.3703649e-05
0.0010733456
3.4333832e-05
0.0010708487
3.4880153e-05
0.0010676091
3.5284535e-05
0.0010636897
3.5506606e-05
0.0010592366
3.5520151e-05
0.0010544313
3.5328917e-05
0.0010494334
3.4974532e-05
0.0010443532
3.4513532e-05
0.0010392534
3.3995067e-05
0.001034168
3.3451339e-05
0.0010291197
3.2897006e-05
0.0010241253
3.2338508e-05
0.0010191965
3.1782206e-05
0.0010143407
3.1232339e-05
0.0010095623
3.069181e-05
0.001004864
3.0162524e-05
0.0010002472
2.9645231e-05
0.00099571241
2.9140865e-05
0.00099125936
2.8649685e-05
0.00098688736
2.8171828e-05
0.00098259534
2.7707363e-05
0.00097838196
2.725619e-05
0.0009742457
2.681816e-05
0.00097018488
2.6393064e-05
0.00096619774
2.598068e-05
0.00096228246
2.5580773e-05
0.00095843715
2.5193121e-05
0.00095465992
2.4817517e-05
0.00095094885
2.445383e-05
0.00094730198
2.4101932e-05
0.00094371733
2.3762024e-05
0.00094019294
2.3433973e-05
0.00093672661
2.3119393e-05
0.00093331639
2.2816723e-05
0.00092995913
2.2535132e-05
0.00092665372
2.2260533e-05
0.00092339173
2.2046071e-05
0.00092018019
2.1794026e-05
0.00091697242
2.1841365e-05
0.00091390702
2.1182598e-05
0.00091016489
2.5033982e-05
1.9405794e-05
0.0011101038
5.5504195e-06
-0.001110037
0.0011102691
6.7200419e-06
0.0011104867
7.7704492e-06
0.0011107159
8.6528296e-06
0.0011109428
9.41393e-06
0.0011111636
1.0092772e-05
0.0011113744
1.0698446e-05
0.0011115733
1.1242349e-05
0.001111761
1.1741298e-05
0.0011119383
1.2206428e-05
0.0011121061
1.2643297e-05
0.0011122654
1.3056517e-05
0.0011124169
1.3448644e-05
0.0011125612
1.3821905e-05
0.0011126991
1.4176727e-05
0.0011128306
1.4512099e-05
0.0011129559
1.4826372e-05
0.0011130743
1.51175e-05
0.0011131854
1.5384436e-05
0.0011132885
1.5627789e-05
0.0011133833
1.5849172e-05
0.0011134693
1.6051227e-05
0.0011135462
1.6238012e-05
0.0011136139
1.6415533e-05
0.0011136727
1.6592015e-05
0.0011137235
1.6777815e-05
0.0011137678
1.6982135e-05
0.0011138068
1.7212687e-05
0.0011138424
1.747707e-05
0.0011138764
1.7778748e-05
0.0011139099
1.8116439e-05
0.0011139435
1.848639e-05
0.0011139779
1.8885439e-05
0.0011140128
1.930887e-05
0.0011140482
1.9752904e-05
0.001114084
2.0217409e-05
0.0011141201
2.070089e-05
0.0011141566
2.1201639e-05
0.0011141933
2.1718304e-05
0.0011142299
2.2247502e-05
0.0011142659
2.2787477e-05
0.0011143012
2.3339016e-05
0.0011143353
2.3902596e-05
0.0011143683
2.4478959e-05
0.0011143995
2.5066753e-05
0.0011144286
2.566601e-05
0.001114455
2.6278412e-05
0.0011144784
2.6906011e-05
0.0011144977
2.7547068e-05
0.0011145117
2.8200282e-05
0.0011145186
2.8868202e-05
0.0011145164
2.9552599e-05
0.0011145018
3.025172e-05
0.0011144694
3.0963585e-05
0.0011144113
3.1689932e-05
0.0011143165
3.2431245e-05
0.0011141652
3.3184074e-05
0.0011139246
3.3944238e-05
0.0011135476
3.471086e-05
0.0011129524
3.5475329e-05
0.001112015
3.6222008e-05
0.0011105872
3.693439e-05
0.0011085273