/*--------------------------------*- C++ -*----------------------------------*\
  =========                 |
  \\      /  F ield         | OpenFOAM: The Open Source CFD Toolbox
   \\    /   O peration     | Website:  https://openfoam.org
    \\  /    A nd           | Version:  12
     \\/     M anipulation  |
\*---------------------------------------------------------------------------*/
FoamFile
{
    format      ascii;
    class       volVectorField;
    location    "600";
    object      U;
}
// * * * * * * * * * * * * * * * * * * * * * * * * * * * * * * * * * * * * * //

dimensions      [0 1 -1 0 0 0 0];

internalField   nonuniform List<vector> 
7480
(
(0.98698753 0.00064495401 8.6473815e-17)
(0.97572931 0.001511872 0)
(0.96328497 0.0021362751 0)
(0.95009296 0.0025379725 0)
(0.93655624 0.0028070529 0)
(0.92295238 0.0029731484 0)
(0.90938332 0.0030540309 0)
(0.89589211 0.0030575755 0)
(0.88251853 0.0030187776 0)
(0.8692971 0.0029323276 0)
(0.85625578 0.0028124381 0)
(0.84341671 0.0026688209 0)
(0.83080442 0.0025076808 0)
(0.81844628 0.0023332906 0)
(0.80637488 0.0021488854 0)
(0.7946336 0.0019560131 0)
(0.78328637 0.0017549702 0)
(0.77242619 0.0015501407 0)
(0.76213132 0.0013472915 0)
(0.75246978 0.0011488947 0)
(0.74350162 0.00095560535 0)
(0.73527706 0.00077027987 0)
(0.727832 0.00059691047 0)
(0.7211907 0.00043992253 0)
(0.71535125 0.00030331646 0)
(0.710271 0.00019325876 0)
(0.70587071 0.00011457727 0)
(0.70204423 6.7642919e-05 0)
(0.69866439 4.840511e-05 0)
(0.69560059 5.0035441e-05 0)
(0.69274036 6.3904813e-05 0)
(0.69000206 8.1588104e-05 0)
(0.68733473 9.7096823e-05 0)
(0.68471092 0.00010725865 0)
(0.68211804 0.00011174454 0)
(0.67954674 0.00011262668 0)
(0.6769849 0.00011249533 0)
(0.67441935 0.00011308151 0)
(0.67183985 0.00011481459 0)
(0.66924377 0.00011689321 0)
(0.66663749 0.00011837977 0)
(0.66403196 0.00011875459 0)
(0.66143784 0.00011789474 0)
(0.65886175 0.00011606559 0)
(0.65630678 0.00011359932 0)
(0.65377504 0.00011075948 0)
(0.65126886 0.00010769169 0)
(0.64879036 0.0001044674 0)
(0.64634118 0.00010112006 0)
(0.64392284 9.7705416e-05 0)
(0.64153611 9.4319292e-05 0)
(0.63918071 9.1013567e-05 0)
(0.63685625 8.7788133e-05 0)
(0.63456288 8.4630114e-05 0)
(0.63230066 8.1566392e-05 0)
(0.63006893 7.8612915e-05 0)
(0.62786688 7.576106e-05 0)
(0.62569415 7.3005018e-05 0)
(0.62355012 7.0358654e-05 0)
(0.62143406 6.7808064e-05 0)
(0.61934534 6.5347217e-05 0)
(0.61728333 6.298379e-05 0)
(0.61524724 6.0714357e-05 0)
(0.61323644 5.852742e-05 0)
(0.61125039 5.6421651e-05 0)
(0.60928848 5.4396364e-05 0)
(0.60735011 5.2443716e-05 0)
(0.60543477 5.0564734e-05 0)
(0.60354182 4.8757895e-05 0)
(0.6016707 4.701734e-05 0)
(0.59982087 4.5343896e-05 0)
(0.59799173 4.3733676e-05 0)
(0.59618276 4.2183746e-05 0)
(0.59439343 4.0692822e-05 0)
(0.59262321 3.9257343e-05 0)
(0.59087162 3.7876051e-05 0)
(0.58913814 3.6546251e-05 0)
(0.58742232 3.5265796e-05 0)
(0.58572369 3.4032984e-05 0)
(0.58404182 3.2845847e-05 0)
(0.58237625 3.1702598e-05 0)
(0.58072656 3.0601505e-05 0)
(0.57909235 2.9540927e-05 0)
(0.5774732 2.8519328e-05 0)
(0.57586872 2.7535276e-05 0)
(0.57427851 2.658747e-05 0)
(0.57270219 2.5674696e-05 0)
(0.57113932 2.4796013e-05 0)
(0.56958954 2.395038e-05 0)
(0.56805228 2.3137767e-05 0)
(0.56652728 2.2356781e-05 0)
(0.56501335 2.1611065e-05 0)
(0.56351117 2.0894766e-05 0)
(0.56201604 2.0230776e-05 0)
(0.56053555 1.9577059e-05 0)
(0.55904422 1.9104064e-05 0)
(0.55759282 1.7951699e-05 -2.3111103e-21)
(0.55603835 3.1009596e-05 7.2827088e-20)
(0.55474762 1.8297708e-05 -2.4119998e-19)
(0.55233134 3.2622332e-05 -4.2395175e-18)
(0.99601401 0.0023964595 0)
(0.99635604 0.0034471101 0)
(0.99662322 0.0037608188 0)
(0.99638079 0.0036492984 0)
(0.99560897 0.0034773708 0)
(0.99435704 0.0032890605 0)
(0.99260419 0.0031006724 0)
(0.99031622 0.0029306406 0)
(0.98748116 0.0027803621 0)
(0.98410028 0.0026527657 0)
(0.98017612 0.0025464264 0)
(0.97570908 0.0024559356 0)
(0.9707019 0.0023811368 0)
(0.96515878 0.0023157184 0)
(0.959081 0.0022563475 0)
(0.95247043 0.0022000646 0)
(0.94531966 0.0021390599 0)
(0.93764749 0.0020609866 0)
(0.92952838 0.0019663149 0)
(0.92102416 0.0018618282 0)
(0.91220722 0.0017488522 0)
(0.90316591 0.0016272923 0)
(0.89400897 0.0014970521 0)
(0.88485 0.0013583357 0)
(0.87581737 0.0012129256 0)
(0.86704948 0.001061621 0)
(0.85870751 0.00091213516 0)
(0.8509222 0.00077460357 0)
(0.84376302 0.00065411812 0)
(0.83723158 0.00055577606 0)
(0.83127628 0.00048238786 0)
(0.82581193 0.00043316769 0)
(0.82073607 0.00040485693 0)
(0.81595414 0.00039157409 0)
(0.81139662 0.00038588392 0)
(0.80701915 0.00038157653 0)
(0.80279654 0.0003752647 0)
(0.79871541 0.00036586879 0)
(0.79476525 0.00035373091 0)
(0.7909342 0.0003396972 0)
(0.78720866 0.00032491909 0)
(0.78357392 0.00031055043 0)
(0.780016 0.00029716444 0)
(0.77652449 0.00028482444 0)
(0.77309398 0.00027319993 0)
(0.76972324 0.000262031 0)
(0.7664123 0.00025122798 0)
(0.76315991 0.00024078868 0)
(0.75996349 0.00023068135 0)
(0.75682096 0.00022090767 0)
(0.75373106 0.00021153149 0)
(0.75069267 0.00020254563 0)
(0.74770467 0.00019390734 0)
(0.74476612 0.00018559106 0)
(0.74187602 0.00017764093 0)
(0.73903293 0.00017005838 0)
(0.73623545 0.00016280653 0)
(0.73348262 0.00015586124 0)
(0.73077341 0.00014924925 0)
(0.72810627 0.00014294113 0)
(0.72548001 0.00013691063 0)
(0.72289362 0.00013116049 0)
(0.72034597 0.00012567654 0)
(0.71783593 0.00012043465 0)
(0.71536254 0.00011543022 0)
(0.71292472 0.00011065594 0)
(0.71052146 0.00010609144 0)
(0.70815181 0.00010173423 0)
(0.70581479 9.757542e-05 0)
(0.70350946 9.3599695e-05 0)
(0.70123491 8.9804871e-05 0)
(0.69899025 8.6179276e-05 0)
(0.6967746 8.2714324e-05 0)
(0.69458712 7.9404271e-05 0)
(0.69242699 7.6239344e-05 0)
(0.69029342 7.3214444e-05 0)
(0.68818564 7.0321734e-05 0)
(0.68610291 6.7554817e-05 0)
(0.6840445 6.4908123e-05 0)
(0.68200972 6.2375744e-05 0)
(0.67999789 5.9952314e-05 0)
(0.67800834 5.7632684e-05 0)
(0.67604045 5.5412014e-05 0)
(0.67409359 5.3285763e-05 0)
(0.67216715 5.1249699e-05 0)
(0.67026053 4.9299918e-05 0)
(0.66837316 4.7432804e-05 0)
(0.6665044 4.5645229e-05 0)
(0.6646537 4.3934237e-05 0)
(0.66282032 4.2298097e-05 0)
(0.6610038 4.0734399e-05 0)
(0.65920275 3.9245578e-05 0)
(0.65741772 3.7827617e-05 0)
(0.65564354 3.6501563e-05 0)
(0.65388817 3.5240221e-05 0)
(0.65212422 3.418332e-05 0)
(0.65040564 3.3184661e-05 2.2828242e-21)
(0.6485793 3.4325669e-05 0)
(0.64704204 3.0379799e-05 0)
(0.64422639 3.7421152e-05 0)
(0.99629605 0.0021417871 0)
(0.99673866 0.0027567327 0)
(0.9973026 0.0029490461 0)
(0.99772667 0.0030177507 0)
(0.99801943 0.0031105779 0)
(0.99826001 0.0032163543 0)
(0.99846479 0.0033153986 0)
(0.99862272 0.0034008398 0)
(0.99872942 0.0034724605 0)
(0.99878492 0.0035283248 0)
(0.9987843 0.0035658239 0)
(0.99871834 0.0035905123 0)
(0.99857557 0.0035896477 0)
(0.99834211 0.0035785128 0)
(0.99799996 0.00355082 0)
(0.99752399 0.0035079384 0)
(0.99688516 0.0034492531 0)
(0.99601281 0.0033746609 0)
(0.99480034 0.0032845328 0)
(0.99316421 0.0031785893 0)
(0.991019 0.0030571477 0)
(0.9882735 0.0029215448 0)
(0.98483061 0.0027738359 0)
(0.98059881 0.0026173593 0)
(0.97549425 0.0024567861 0)
(0.9694591 0.0022985196 0)
(0.96245262 0.0021332084 0)
(0.95459876 0.001958535 0)
(0.94606914 0.0017882863 0)
(0.93711356 0.0016251394 0)
(0.92801933 0.0014690209 0)
(0.91907003 0.0013195749 0)
(0.91050555 0.0011757622 0)
(0.9025112 0.0010439078 0)
(0.89516997 0.00093218482 0)
(0.88845437 0.0008426664 0)
(0.88227587 0.00077528353 0)
(0.87652393 0.00072765314 0)
(0.87109445 0.00069513474 0)
(0.86591224 0.00067118177 0)
(0.86093318 0.00064968836 0)
(0.85613407 0.00062697444 0)
(0.85150132 0.00060218439 0)
(0.84702284 0.00057604847 0)
(0.84268556 0.00054948603 0)
(0.83847583 0.00052346427 0)
(0.83438035 0.00049872827 0)
(0.83038714 0.00047555869 0)
(0.82648704 0.00045371738 0)
(0.82267444 0.00043294536 0)
(0.81894575 0.00041321048 0)
(0.81529719 0.00039444821 0)
(0.8117245 0.00037656597 0)
(0.8082239 0.0003594994 0)
(0.80479235 0.00034327419 0)
(0.80142708 0.00032785176 0)
(0.79812557 0.00031315641 0)
(0.79488567 0.00029914127 0)
(0.79170527 0.00028583063 0)
(0.78858204 0.00027316723 0)
(0.78551402 0.00026110213 0)
(0.78249946 0.00024962612 0)
(0.77953654 0.0002387075 0)
(0.77662353 0.00022830095 0)
(0.77375887 0.0002183905 0)
(0.77094099 0.00020895706 0)
(0.76816836 0.00019996258 0)
(0.76543961 0.00019139572 0)
(0.76275333 0.00018323629 0)
(0.76010818 0.00017545514 0)
(0.7575029 0.00016804278 0)
(0.75493624 0.0001609763 0)
(0.75240699 0.00015423763 0)
(0.74991401 0.00014781309 0)
(0.74745617 0.00014168352 0)
(0.7450324 0.00013583684 0)
(0.74264164 0.00013025724 0)
(0.74028289 0.00012493125 0)
(0.73795518 0.00011984684 0)
(0.73565756 0.00011499178 0)
(0.73338913 0.0001103548 0)
(0.731149 0.00010592515 0)
(0.72893632 0.00010169272 0)
(0.72675026 9.7648043e-05 0)
(0.72459 9.3782286e-05 0)
(0.72245476 9.0087247e-05 0)
(0.72034377 8.65554e-05 0)
(0.71825622 8.3179928e-05 0)
(0.71619138 7.9954943e-05 0)
(0.71414834 7.6875383e-05 0)
(0.71212647 7.3938499e-05 0)
(0.71012421 7.1141485e-05 0)
(0.70814196 6.8491526e-05 0)
(0.70617433 6.5987116e-05 0)
(0.70422918 6.3670899e-05 0)
(0.7022787 6.1570832e-05 0)
(0.70037718 5.9847976e-05 1.5595363e-21)
(0.69836839 5.8503714e-05 0)
(0.69666561 5.8601439e-05 0)
(0.69358055 5.9928079e-05 -2.9430251e-20)
(0.99642683 0.0020386053 0)
(0.99681683 0.002656129 0)
(0.99734276 0.0029856534 0)
(0.99776431 0.0031390669 0)
(0.99806925 0.0032332816 0)
(0.99832822 0.0032903482 0)
(0.99856344 0.0033004241 0)
(0.99877066 0.0032881297 0)
(0.99895303 0.0032613351 0)
(0.999118 0.0032259176 0)
(0.99926831 0.0031851972 0)
(0.99940596 0.0031404484 0)
(0.99953174 0.0030971073 0)
(0.99964542 0.0030537396 0)
(0.99974756 0.0030108986 0)
(0.99983697 0.0029686787 0)
(0.99991194 0.0029263029 0)
(0.99996943 0.0028830505 0)
(1.000004 0.002838875 0)
(1.0000089 0.0027944384 0)
(0.99997604 0.0027503783 0)
(0.999894 0.0027069919 0)
(0.99974735 0.0026646274 0)
(0.99951583 0.0026235414 0)
(0.99917121 0.0025832357 0)
(0.99867028 0.0025426275 0)
(0.99795156 0.0025006554 0)
(0.99684253 0.0024555171 0)
(0.99518915 0.0024028786 0)
(0.99282777 0.0023395743 0)
(0.9896026 0.0022647579 0)
(0.98538618 0.0021793628 0)
(0.98011049 0.002088546 0)
(0.97377055 0.0019827972 0)
(0.96656054 0.0018589573 0)
(0.95875449 0.0017292977 0)
(0.95066559 0.0015976637 0)
(0.94260307 0.0014665179 0)
(0.93482353 0.0013389411 0)
(0.92750425 0.0012227409 0)
(0.92069933 0.0011234705 0)
(0.9143694 0.0010418049 0)
(0.90843003 0.00097662896 0)
(0.90279094 0.00092496271 0)
(0.89738602 0.00088185108 0)
(0.89217778 0.00084261826 0)
(0.88714826 0.00080446191 0)
(0.88228648 0.00076681392 0)
(0.87758151 0.0007298341 0)
(0.8730212 0.00069400415 0)
(0.86859288 0.00066001168 0)
(0.86428439 0.0006281006 0)
(0.86008578 0.00059806922 0)
(0.85598996 0.00056966174 0)
(0.85199159 0.0005428141 0)
(0.84808554 0.00051742107 0)
(0.84426674 0.00049334862 0)
(0.84053073 0.00047050191 0)
(0.83687365 0.00044887518 0)
(0.83329198 0.00042836003 0)
(0.82978263 0.00040886807 0)
(0.82634268 0.00039037092 0)
(0.82296925 0.00037281189 0)
(0.81965974 0.00035611577 0)
(0.81641183 0.00034024721 0)
(0.81322323 0.00032516931 0)
(0.81009178 0.00031082133 0)
(0.80701553 0.00029717748 0)
(0.80399251 0.000284202 0)
(0.80102092 0.00027184836 0)
(0.79809904 0.00026009585 0)
(0.79522519 0.00024890753 0)
(0.79239779 0.00023825295 0)
(0.78961532 0.00022810781 0)
(0.78687631 0.00021844143 0)
(0.78417936 0.00020923241 0)
(0.7815231 0.00020045508 0)
(0.77890624 0.00019208702 0)
(0.77632753 0.000184108 0)
(0.77378575 0.00017649791 0)
(0.77127974 0.00016923807 0)
(0.76880836 0.00016231074 0)
(0.76637054 0.0001556993 0)
(0.76396522 0.00014938812 0)
(0.76159137 0.00014336268 0)
(0.759248 0.00013760943 0)
(0.75693413 0.000132116 0)
(0.75464877 0.00012687095 0)
(0.752391 0.00012186478 0)
(0.75015973 0.00011708806 0)
(0.74795416 0.0001125379 0)
(0.74577257 0.0001082037 0)
(0.74361516 0.00010410862 0)
(0.74147646 0.00010021592 0)
(0.73936397 9.666997e-05 0)
(0.73725014 9.3308366e-05 0)
(0.73518843 9.0815013e-05 1.2480338e-21)
(0.73302203 8.8001552e-05 0)
(0.73117681 9.2226076e-05 0)
(0.72785988 8.6036486e-05 2.3764984e-20)
(0.99659268 0.0019796567 0)
(0.99690704 0.0025566461 0)
(0.99736207 0.0028820346 0)
(0.99774832 0.0030253499 0)
(0.99804359 0.0031095785 0)
(0.9983014 0.0031672362 0)
(0.99853931 0.0032016157 0)
(0.99875246 0.0032198911 0)
(0.99894309 0.0032295023 0)
(0.99911784 0.0032333013 0)
(0.99928034 0.0032310768 0)
(0.99943167 0.0032246677 0)
(0.99957275 0.0032124573 0)
(0.99970451 0.0031952231 0)
(0.9998284 0.0031725916 0)
(0.99994527 0.0031442465 0)
(1.0000553 0.003109566 0)
(1.0001578 0.0030677922 0)
(1.0002511 0.0030189951 0)
(1.0003342 0.0029638744 0)
(1.000406 0.0029033368 0)
(1.0004651 0.0028386242 0)
(1.0005094 0.002770786 0)
(1.0005367 0.0027011793 0)
(1.0005448 0.0026320634 0)
(1.0005317 0.0025661581 0)
(1.000496 0.0025058678 0)
(1.0004317 0.0024529902 0)
(1.0003304 0.00240939 0)
(1.0001785 0.0023757608 0)
(0.99995599 0.0023510218 0)
(0.99963115 0.0023326198 0)
(0.99915144 0.0023150256 0)
(0.99843414 0.002294226 0)
(0.99727947 0.0022665181 0)
(0.99549647 0.002226786 0)
(0.99290674 0.0021731232 0)
(0.98936438 0.0021072409 0)
(0.98478652 0.0020301478 0)
(0.97920459 0.001935106 0)
(0.97283022 0.0018246007 0)
(0.96594149 0.0017079894 0)
(0.95884246 0.0015890055 0)
(0.95180759 0.0014714763 0)
(0.94503976 0.0013626221 0)
(0.93862166 0.0012667952 0)
(0.93254786 0.0011845565 0)
(0.92676501 0.0011153137 0)
(0.9212147 0.0010564454 0)
(0.91585678 0.0010040466 0)
(0.91067061 0.00095517276 0)
(0.90564575 0.00090856921 0)
(0.9007739 0.00086379214 0)
(0.89604574 0.00082090342 0)
(0.89145075 0.0007803214 0)
(0.88697845 0.00074216439 0)
(0.88262004 0.0007062263 0)
(0.87836891 0.00067228585 0)
(0.87421956 0.00064027237 0)
(0.87016672 0.00061001167 0)
(0.86620549 0.00058136612 0)
(0.86233146 0.00055426915 0)
(0.85854056 0.00052861671 0)
(0.85482917 0.00050428883 0)
(0.85119399 0.0004812208 0)
(0.84763184 0.00045934813 0)
(0.8441398 0.00043857798 0)
(0.84071519 0.00041886221 0)
(0.83735545 0.00040014308 0)
(0.83405819 0.00038235113 0)
(0.83082116 0.0003654492 0)
(0.82764221 0.00034938191 0)
(0.8245193 0.00033410249 0)
(0.8214505 0.00031957241 0)
(0.81843396 0.00030574631 0)
(0.81546791 0.00029259049 0)
(0.81255065 0.00028006683 0)
(0.80968056 0.00026814147 0)
(0.80685609 0.00025678377 0)
(0.80407574 0.00024596364 0)
(0.80133806 0.00023565309 0)
(0.79864167 0.00022582565 0)
(0.79598523 0.00021645649 0)
(0.79336744 0.00020752237 0)
(0.79078706 0.00019900164 0)
(0.78824286 0.00019087412 0)
(0.78573367 0.00018312138 0)
(0.78325829 0.0001757262 0)
(0.7808156 0.00016867449 0)
(0.77840433 0.00016195136 0)
(0.7760235 0.00015555323 0)
(0.77367122 0.00014946014 0)
(0.7713475 0.00014371252 0)
(0.7690468 0.00013823298 0)
(0.76677624 0.00013327976 0)
(0.76450863 0.00012846545 0)
(0.76229648 0.00012512433 1.0791436e-21)
(0.75998273 0.00012041144 3.5151505e-20)
(0.7580055 0.00012975548 0)
(0.7544738 0.00011373017 0)
(0.99674944 0.0019328054 0)
(0.99700567 0.0024552599 0)
(0.99739523 0.0027737452 0)
(0.99774788 0.0029350355 0)
(0.99803287 0.0030384601 0)
(0.9982858 0.0031134573 0)
(0.99852014 0.0031593098 0)
(0.99873165 0.0031839977 0)
(0.9989221 0.003195618 0)
(0.99909706 0.0031974116 0)
(0.9992598 0.0031911235 0)
(0.99941209 0.0031784026 0)
(0.99955511 0.0031591631 0)
(0.99968989 0.0031353665 0)
(0.99981778 0.0031069437 0)
(0.99993941 0.003073869 0)
(1.000055 0.0030358728 0)
(1.0001641 0.0029925225 0)
(1.0002659 0.0029441369 0)
(1.0003593 0.0028915389 0)
(1.0004436 0.0028354479 0)
(1.0005181 0.0027766774 0)
(1.0005824 0.0027163333 0)
(1.0006359 0.0026558418 0)
(1.0006781 0.0025969299 0)
(1.0007095 0.0025420413 0)
(1.0007309 0.002492293 0)
(1.0007429 0.0024480999 0)
(1.0007462 0.0024102894 0)
(1.0007413 0.0023782833 0)
(1.0007279 0.0023506318 0)
(1.0007037 0.0023255637 0)
(1.0006649 0.002302694 0)
(1.0006066 0.0022819769 0)
(1.0005171 0.0022631791 0)
(1.0003771 0.0022468073 0)
(1.0001618 0.0022329523 0)
(0.99983276 0.0022203004 0)
(0.99933174 0.0022054609 0)
(0.99853976 0.0021856919 0)
(0.99725984 0.0021574059 0)
(0.9953057 0.0021167622 0)
(0.99251278 0.0020636267 0)
(0.98876951 0.0019977627 0)
(0.98407516 0.0019140394 0)
(0.97860275 0.0018158214 0)
(0.97259309 0.0017113268 0)
(0.96631985 0.0016036025 0)
(0.96003579 0.0014987326 0)
(0.95390752 0.0014024012 0)
(0.94800307 0.00131573 0)
(0.94232074 0.001239486 0)
(0.93683041 0.0011726774 0)
(0.93150442 0.0011126875 0)
(0.92632754 0.0010571881 0)
(0.921293 0.0010048822 0)
(0.91639612 0.00095512102 0)
(0.91163096 0.00090779822 0)
(0.90698987 0.00086312555 0)
(0.90246501 0.00082102829 0)
(0.89804993 0.00078130752 0)
(0.89373944 0.00074382947 0)
(0.88952869 0.00070843346 0)
(0.88541307 0.00067495197 0)
(0.88138828 0.00064328175 0)
(0.87745034 0.00061331704 0)
(0.87359561 0.00058492127 0)
(0.86982078 0.00055801591 0)
(0.86612264 0.00053251389 0)
(0.86249824 0.00050831536 0)
(0.85894481 0.00048536037 0)
(0.85545973 0.00046356978 0)
(0.85204052 0.00044287579 0)
(0.84868482 0.00042322141 0)
(0.84539041 0.00040454284 0)
(0.84215515 0.00038679073 0)
(0.838977 0.00036991143 0)
(0.83585402 0.0003538569 0)
(0.83278435 0.00033858351 0)
(0.8297662 0.00032404888 0)
(0.82679784 0.00031021354 0)
(0.82387763 0.00029704028 0)
(0.82100397 0.00028449428 0)
(0.81817534 0.00027254295 0)
(0.81539024 0.00026115596 0)
(0.81264723 0.00025030501 0)
(0.80994493 0.00023996426 0)
(0.80728193 0.00023010945 0)
(0.80465691 0.00022072075 0)
(0.80206843 0.00021177668 0)
(0.79951529 0.00020327207 0)
(0.79699548 0.00019517641 0)
(0.79450876 0.00018754746 0)
(0.79204956 0.00018026421 0)
(0.7896246 0.00017370462 0)
(0.78720709 0.00016723695 0)
(0.78484864 0.00016291599 0)
(0.78239169 0.00015579115 0)
(0.78028729 0.00017125474 5.2849726e-20)
(0.77654848 0.00014344416 0)
(0.99689099 0.0018920889 0)
(0.9971073 0.002365777 0)
(0.99744295 0.0026764771 0)
(0.99776321 0.0028516468 0)
(0.99803462 0.0029673884 0)
(0.99827951 0.0030507053 0)
(0.99850802 0.0031032503 0)
(0.9987164 0.0031335979 0)
(0.9989055 0.0031499304 0)
(0.99907984 0.0031561436 0)
(0.99924232 0.003153886 0)
(0.9993946 0.0031450332 0)
(0.99953792 0.0031300038 0)
(0.99967331 0.003110236 0)
(0.99980197 0.0030856772 0)
(0.99992452 0.0030562542 0)
(1.0000412 0.0030217123 0)
(1.0001516 0.0029816911 0)
(1.000255 0.0029364049 0)
(1.0003506 0.0028865317 0)
(1.000438 0.0028328012 0)
(1.0005166 0.0027760986 0)
(1.0005859 0.0027174899 0)
(1.0006456 0.0026583301 0)
(1.0006956 0.0026003393 0)
(1.0007362 0.0025454713 0)
(1.000769 0.0024948828 0)
(1.0007951 0.0024494758 0)
(1.0008161 0.0024102791 0)
(1.0008337 0.0023771552 0)
(1.0008491 0.0023490885 0)
(1.0008624 0.0023249614 0)
(1.0008734 0.0023042008 0)
(1.0008813 0.0022856172 0)
(1.0008846 0.0022682695 0)
(1.0008808 0.002252117 0)
(1.0008669 0.002236582 0)
(1.000839 0.0022210664 0)
(1.0007915 0.0022056335 0)
(1.0007155 0.0021902445 0)
(1.0005927 0.0021747495 0)
(1.0003967 0.0021593974 0)
(1.0000893 0.0021437786 0)
(0.99961318 0.0021261749 0)
(0.99885372 0.0021048422 0)
(0.9976278 0.0020765683 0)
(0.99575963 0.0020376787 0)
(0.9930982 0.0019887474 0)
(0.98953747 0.0019237784 0)
(0.98514732 0.0018415771 0)
(0.98008985 0.0017508899 0)
(0.97459419 0.0016548812 0)
(0.96890569 0.0015588488 0)
(0.96321524 0.0014678586 0)
(0.95762841 0.0013834825 0)
(0.95217917 0.0013070219 0)
(0.94686473 0.0012381926 0)
(0.94167468 0.0011753928 0)
(0.93660376 0.0011170192 0)
(0.93165124 0.0010619831 0)
(0.92681661 0.0010097485 0)
(0.92209708 0.00096028236 0)
(0.91748791 0.00091355896 0)
(0.91298435 0.0008694244 0)
(0.90858237 0.00082773359 0)
(0.90427822 0.0007883378 0)
(0.90006819 0.0007510611 0)
(0.89594872 0.00071579384 0)
(0.89191633 0.00068241386 0)
(0.88796783 0.00065078471 0)
(0.88410017 0.00062081886 0)
(0.88031043 0.00059240885 0)
(0.87659582 0.00056546105 0)
(0.87295372 0.00053989563 0)
(0.86938159 0.00051562655 0)
(0.86587704 0.0004925854 0)
(0.86243774 0.00047069989 0)
(0.85906148 0.00044990495 0)
(0.85574615 0.00043014138 0)
(0.8524897 0.00041135212 0)
(0.84929016 0.00039348403 0)
(0.84614566 0.0003764871 0)
(0.84305436 0.00036031464 0)
(0.84001451 0.00034492296 0)
(0.83702442 0.0003302714 0)
(0.83408242 0.00031632202 0)
(0.83118693 0.00030304013 0)
(0.82833634 0.00029039312 0)
(0.82552915 0.00027835417 0)
(0.82276372 0.00026689405 0)
(0.82003869 0.00025600504 0)
(0.81735186 0.0002456449 0)
(0.81470282 0.00023588835 0)
(0.81208593 0.00022656865 0)
(0.80950753 0.00021818718 0)
(0.80694119 0.00020985319 0)
(0.80443778 0.00020439558 0)
(0.80183886 0.00019448675 0)
(0.79960922 0.00021689071 4.9491023e-20)
(0.7956662 0.00017555084 0)
(0.99703118 0.0018586573 0)
(0.99721371 0.0022881901 0)
(0.99750287 0.0025883533 0)
(0.99779207 0.0027715258 0)
(0.99804783 0.0028958109 0)
(0.99828268 0.0029860937 0)
(0.9985038 0.0030458391 0)
(0.9987077 0.003082792 0)
(0.99889433 0.0031047374 0)
(0.99906721 0.0031156714 0)
(0.9992288 0.0031174865 0)
(0.99938056 0.0031120606 0)
(0.99952362 0.0031000657 0)
(0.99965895 0.0030827318 0)
(0.99978762 0.0030602589 0)
(0.99991025 0.0030326666 0)
(1.000027 0.0029998247 0)
(1.0001376 0.0029614986 0)
(1.0002414 0.0029179103 0)
(1.0003378 0.0028697216 0)
(1.0004261 0.0028176876 0)
(1.0005061 0.0027626888 0)
(1.0005773 0.0027057672 0)
(1.0006393 0.0026482354 0)
(1.0006922 0.0025917311 0)
(1.0007366 0.0025381699 0)
(1.0007737 0.0024888175 0)
(1.0008049 0.0024445805 0)
(1.0008318 0.0024063322 0)
(1.0008562 0.0023739217 0)
(1.0008795 0.0023464746 0)
(1.0009025 0.0023228827 0)
(1.0009252 0.0023023297 0)
(1.0009477 0.0022836876 0)
(1.0009691 0.0022662571 0)
(1.000989 0.0022500421 0)
(1.0010067 0.0022346673 0)
(1.0010214 0.0022199256 0)
(1.0010321 0.0022057422 0)
(1.0010374 0.0021915493 0)
(1.0010346 0.0021770572 0)
(1.0010198 0.0021623624 0)
(1.000988 0.0021473713 0)
(1.0009326 0.0021322306 0)
(1.000843 0.0021167931 0)
(1.0006969 0.0021007475 0)
(1.0004639 0.0020841761 0)
(1.0000967 0.0020661466 0)
(0.99952819 0.0020461846 0)
(0.99859919 0.0020223137 0)
(0.99714674 0.0019903315 0)
(0.99501456 0.0019493794 0)
(0.9920735 0.0018940266 0)
(0.98833843 0.0018227713 0)
(0.98392075 0.0017423754 0)
(0.97901047 0.001656163 0)
(0.97382927 0.0015690207 0)
(0.96855765 0.0014848006 0)
(0.96330695 0.0014052748 0)
(0.95812537 0.0013317889 0)
(0.95302656 0.0012642268 0)
(0.94801427 0.0012016409 0)
(0.94309289 0.0011429388 0)
(0.93826743 0.001087361 0)
(0.93354052 0.0010346504 0)
(0.92891174 0.0009847367 0)
(0.92437923 0.00093749179 0)
(0.91994103 0.00089279688 0)
(0.91559499 0.00085050326 0)
(0.91133878 0.00081044912 0)
(0.9071699 0.00077252588 0)
(0.90308575 0.00073659863 0)
(0.8990838 0.00070254721 0)
(0.89516155 0.00067026775 0)
(0.89131651 0.00063965024 0)
(0.88754626 0.00061060497 0)
(0.88384845 0.00058303865 0)
(0.88022077 0.00055686699 0)
(0.876661 0.00053201311 0)
(0.87316696 0.00050840325 0)
(0.86973655 0.00048596868 0)
(0.86636774 0.00046464486 0)
(0.86305855 0.00044437147 0)
(0.85980705 0.00042509211 0)
(0.85661137 0.00040675428 0)
(0.85346971 0.00038930891 0)
(0.85038029 0.00037271112 0)
(0.84734137 0.00035691861 0)
(0.84435124 0.00034189636 0)
(0.84140814 0.00032760625 0)
(0.83851051 0.00031403694 0)
(0.83565603 0.00030113345 0)
(0.83284409 0.00028898675 0)
(0.830069 0.00027738282 0)
(0.82733677 0.00026694894 0)
(0.82462124 0.00025652278 0)
(0.82197275 0.0002497582 0)
(0.81923156 0.00023671244 -1.4316416e-20)
(0.81687698 0.00026681548 0)
(0.81273007 0.00021025802 -8.5540543e-21)
(0.99716764 0.0018299701 0)
(0.99732241 0.0022198182 0)
(0.99757161 0.0025075578 0)
(0.99783181 0.0026951304 0)
(0.99807119 0.0028260693 0)
(0.9982949 0.0029224715 0)
(0.99850742 0.002988734 0)
(0.99870555 0.003031736 0)
(0.99888854 0.0030588512 0)
(0.99905899 0.003074176 0)
(0.99921895 0.0030797882 0)
(0.9993696 0.0030775753 0)
(0.99951193 0.0030684418 0)
(0.99964679 0.0030535423 0)
(0.99977512 0.0030332525 0)
(0.99989748 0.0030076643 0)
(1.000014 0.0029767376 0)
(1.0001245 0.0029403424 0)
(1.0002283 0.0028987151 0)
(1.0003249 0.0028524912 0)
(1.0004137 0.0028024155 0)
(1.0004943 0.00274935 0)
(1.0005664 0.0026943221 0)
(1.0006297 0.0026386145 0)
(1.0006843 0.0025837995 0)
(1.0007307 0.0025316912 0)
(1.0007701 0.0024835473 0)
(1.000804 0.0024402292 0)
(1.0008337 0.0024025566 0)
(1.0008613 0.0023704724 0)
(1.0008881 0.0023431808 0)
(1.0009149 0.00231963 0)
(1.0009419 0.002299047 0)
(1.0009695 0.0022804522 0)
(1.000997 0.002263192 0)
(1.0010242 0.0022472193 0)
(1.001051 0.0022322019 0)
(1.0010771 0.0022178784 0)
(1.0011022 0.0022040228 0)
(1.0011259 0.0021901134 0)
(1.0011471 0.0021759519 0)
(1.0011649 0.0021616416 0)
(1.0011781 0.0021471864 0)
(1.0011854 0.002132706 0)
(1.001185 0.0021179981 0)
(1.0011734 0.0021030471 0)
(1.0011459 0.0020879945 0)
(1.0010955 0.0020730435 0)
(1.001014 0.0020580196 0)
(1.0008821 0.002042282 0)
(1.0006705 0.0020256521 0)
(1.0003357 0.0020075781 0)
(0.99981624 0.0019879385 0)
(0.99897366 0.0019651442 0)
(0.99765748 0.0019356562 0)
(0.99571638 0.0018973069 0)
(0.99303137 0.00184535 0)
(0.98960824 0.001779897 0)
(0.98553973 0.0017059653 0)
(0.98099785 0.0016271703 0)
(0.97617832 0.001547602 0)
(0.97123901 0.0014696911 0)
(0.96627749 0.0013954987 0)
(0.96134099 0.0013260578 0)
(0.95645036 0.0012613179 0)
(0.95161857 0.0012005327 0)
(0.94685678 0.0011429848 0)
(0.94217307 0.0010883448 0)
(0.93757159 0.0010364791 0)
(0.93305397 0.00098727574 0)
(0.92862074 0.00094064085 0)
(0.92427173 0.00089642984 0)
(0.92000616 0.00085451319 0)
(0.91582279 0.00081477529 0)
(0.91172007 0.00077708834 0)
(0.90769631 0.00074134514 0)
(0.90374965 0.0007074336 0)
(0.89987816 0.000675251 0)
(0.89607988 0.00064470271 0)
(0.89235281 0.00061569774 0)
(0.88869496 0.00058815105 0)
(0.88510433 0.00056198265 0)
(0.88157897 0.00053711765 0)
(0.87811692 0.00051348591 0)
(0.87471628 0.00049102195 0)
(0.87137516 0.00046966452 0)
(0.86809169 0.00044935741 0)
(0.86486404 0.00043004757 0)
(0.86169041 0.00041169074 0)
(0.85856889 0.00039423887 0)
(0.85549783 0.00037767604 0)
(0.8524748 0.00036193359 0)
(0.84949901 0.00034711799 0)
(0.84656476 0.00033296672 0)
(0.84367774 0.00032023473 0)
(0.84081204 0.00030747694 0)
(0.83801764 0.00029922166 4.2853192e-22)
(0.83513315 0.00028267058 0)
(0.83265309 0.00032121836 4.673352e-20)
(0.82830123 0.00024775242 0)
(0.9972971 0.0018048052 0)
(0.99742969 0.0021592455 0)
(0.99764519 0.0024334779 0)
(0.99787905 0.0026227492 0)
(0.99810223 0.0027586365 0)
(0.99831446 0.0028600735 0)
(0.99851786 0.002931939 0)
(0.9987094 0.0029803895 0)
(0.9988879 0.00301231 0)
(0.99905513 0.003031825 0)
(0.99921274 0.003041135 0)
(0.99936169 0.0030421292 0)
(0.99950278 0.0030358866 0)
(0.99963675 0.0030235146 0)
(0.99976439 0.0030055007 0)
(0.99988619 0.0029820102 0)
(1.0000023 0.0029530841 0)
(1.0001124 0.0029186862 0)
(1.000216 0.0028790721 0)
(1.0003125 0.0028348517 0)
(1.0004015 0.0027867575 0)
(1.0004825 0.002735639 0)
(1.0005553 0.0026825096 0)
(1.0006195 0.0026286193 0)
(1.0006752 0.0025754746 0)
(1.000723 0.0025247845 0)
(1.0007641 0.0024777921 0)
(1.0007997 0.0024353555 0)
(1.0008313 0.002398254 0)
(1.0008608 0.0023664876 0)
(1.0008895 0.0023393492 0)
(1.0009182 0.0023158759 0)
(1.0009475 0.0022953321 0)
(1.0009773 0.0022768163 0)
(1.0010075 0.0022596792 0)
(1.0010379 0.0022438187 0)
(1.0010684 0.0022289224 0)
(1.0010989 0.0022147088 0)
(1.0011293 0.0022009539 0)
(1.0011594 0.0021872137 0)
(1.0011887 0.0021733008 0)
(1.0012165 0.0021593022 0)
(1.0012426 0.0021452584 0)
(1.0012665 0.0021312316 0)
(1.0012876 0.0021170326 0)
(1.001305 0.0021026567 0)
(1.0013174 0.0020882283 0)
(1.0013234 0.0020739078 0)
(1.0013212 0.0020594208 0)
(1.0013076 0.0020446087 0)
(1.0012775 0.002029766 0)
(1.0012234 0.0020150772 0)
(1.0011364 0.0020003483 0)
(1.0009966 0.0019849246 0)
(1.0007732 0.0019684345 0)
(1.0004217 0.001950452 0)
(0.99987034 0.001930745 0)
(0.9989871 0.0019075266 0)
(0.99763068 0.0018780957 0)
(0.99565538 0.0018383627 0)
(0.99298327 0.0017856924 0)
(0.98962867 0.0017228009 0)
(0.9856958 0.0016529619 0)
(0.98135269 0.0015797172 0)
(0.97676799 0.0015057633 0)
(0.97206946 0.0014334128 0)
(0.96733304 0.0013643537 0)
(0.96259845 0.0012992506 0)
(0.9578894 0.0012377962 0)
(0.95322386 0.0011794657 0)
(0.94861511 0.0011239715 0)
(0.94407162 0.0010711614 0)
(0.93959846 0.0010209531 0)
(0.93519874 0.0009732596 0)
(0.93087431 0.00092796085 0)
(0.926626 0.00088495376 0)
(0.92245384 0.00084412361 0)
(0.91835736 0.00080535982 0)
(0.91433571 0.00076855695 0)
(0.91038774 0.00073361152 0)
(0.90651212 0.00070042512 0)
(0.90270733 0.00066890405 0)
(0.89897179 0.00063895982 0)
(0.89530382 0.00061050899 0)
(0.89170169 0.00058347324 0)
(0.88816365 0.00055777897 0)
(0.88468792 0.0005333583 0)
(0.8812727 0.00051014696 0)
(0.87791619 0.00048809084 0)
(0.87461649 0.00046713137 0)
(0.87137187 0.00044724731 0)
(0.86817988 0.00042835575 0)
(0.86503964 0.00041057789 0)
(0.86194544 0.00039360196 0)
(0.85890275 0.00037831182 0)
(0.85588586 0.00036296968 0)
(0.85294457 0.0003530266 0)
(0.84991556 0.00033258647 0)
(0.84730915 0.00038033533 0)
(0.84275064 0.00028823378 0)
(0.9974187 0.0017823551 0)
(0.99753344 0.00210529 0)
(0.99772063 0.0023654706 0)
(0.99793086 0.0025541887 0)
(0.99813844 0.002693414 0)
(0.9983393 0.0027988609 0)
(0.99853352 0.0028755511 0)
(0.99871818 0.0029289608 0)
(0.99889173 0.0029653896 0)
(0.99905523 0.0029889104 0)
(0.99920998 0.0030018073 0)
(0.99935673 0.0030059642 0)
(0.99949613 0.0030025847 0)
(0.9996288 0.0029927499 0)
(0.99975541 0.00297703 0)
(0.99987635 0.0029556658 0)
(0.9999917 0.0029287718 0)
(1.0001012 0.0028963952 0)
(1.0002044 0.0028588135 0)
(1.0003008 0.002816616 0)
(1.0003897 0.0027705234 0)
(1.000471 0.0027213727 0)
(1.0005442 0.0026701602 0)
(1.0006091 0.0026181014 0)
(1.0006657 0.0025666388 0)
(1.0007147 0.0025173861 0)
(1.0007571 0.0024715694 0)
(1.0007941 0.0024300452 0)
(1.0008272 0.0023935528 0)
(1.0008581 0.0023621376 0)
(1.0008881 0.0023351823 0)
(1.0009181 0.0023118081 0)
(1.0009486 0.0022913095 0)
(1.0009798 0.0022728472 0)
(1.0010114 0.00225579 0)
(1.0010434 0.00224 0)
(1.0010757 0.0022251816 0)