/*--------------------------------*- C++ -*----------------------------------*\
  =========                 |
  \\      /  F ield         | OpenFOAM: The Open Source CFD Toolbox
   \\    /   O peration     | Website:  https://openfoam.org
    \\  /    A nd           | Version:  12
     \\/     M anipulation  |
\*---------------------------------------------------------------------------*/
FoamFile
{
    format      ascii;
    class       volVectorField;
    location    "600";
    object      wallShearStress;
}
// * * * * * * * * * * * * * * * * * * * * * * * * * * * * * * * * * * * * * //

dimensions      [0 2 -2 0 0 0 0];

internalField   uniform (0 0 0);

boundaryField
{
    bottom
    {
        type            calculated;
        value           nonuniform List<vector> 
112
(
(-0.0078024924 -3.5712568e-05 0)
(-0.0059544067 -2.2319324e-07 -1.4510297e-17)
(-0.0054826271 -7.6257542e-08 1.0137821e-17)
(-0.0051657159 -5.4558784e-08 -3.4888307e-18)
(-0.0049327179 -4.1994087e-08 0)
(-0.0047427033 -3.4816327e-08 0)
(-0.0045807404 -2.9635304e-08 0)
(-0.00444134 -2.5393041e-08 0)
(-0.0043206888 -2.1921362e-08 0)
(-0.0042151021 -1.9134513e-08 -2.3731847e-18)
(-0.0041215748 -1.6871551e-08 0)
(-0.0040380032 -1.4979552e-08 -1.8496197e-18)
(-0.0039628906 -1.3387547e-08 1.6500403e-18)
(-0.0038948106 -1.2064808e-08 -1.4844232e-18)
(-0.0038325529 -1.0947616e-08 0)
(-0.0037753188 -9.9806916e-09 1.2240849e-18)
(-0.0037224437 -9.1422557e-09 0)
(-0.0036733422 -8.4106447e-09 -5.1431381e-19)
(-0.0036275549 -7.7653864e-09 0)
(-0.0035846995 -7.1930239e-09 -8.7753025e-19)
(-0.003544449 -6.682854e-09 8.143594e-19)
(-0.0035065234 -6.2261419e-09 0)
(-0.0034706795 -5.8160058e-09 0)
(-0.0034367049 -5.4452373e-09 0)
(-0.0034044269 -5.1082494e-09 -6.1996014e-19)
(-0.003373689 -4.8019201e-09 0)
(-0.0033443473 -4.5219266e-09 0)
(-0.003316287 -4.2644386e-09 0)
(-0.0032894039 -4.0277405e-09 0)
(-0.0032635992 -3.8096164e-09 -4.6037263e-19)
(-0.0032387882 -3.6075371e-09 4.3562331e-19)
(-0.0032148984 -3.4199306e-09 0)
(-0.0031918616 -3.2458002e-09 0)
(-0.0031696129 -3.0837014e-09 0)
(-0.0031480978 -2.9321395e-09 3.5306035e-19)
(-0.0031272677 -2.7903207e-09 0)
(-0.003107076 -2.6576123e-09 0)
(-0.0030874786 -2.5331438e-09 -3.04422e-19)
(-0.0030684372 -2.416001e-09 0)
(-0.003049918 -2.3056143e-09 0)
(-0.0030318884 -2.201611e-09 0)
(-0.0030143172 -2.1035136e-09 2.521911e-19)
(-0.0029971758 -2.0107348e-09 -1.2046681e-19)
(-0.0029804392 -1.9228363e-09 2.3027459e-19)
(-0.0029640842 -1.8395295e-09 0)
(-0.0029480877 -1.7605681e-09 0)
(-0.0029324282 -1.6856061e-09 -3.0231278e-19)
(-0.002917086 -1.6142903e-09 0)
(-0.0029020438 -1.5464004e-09 1.8471205e-19)
(-0.0028872838 -1.481755e-09 0)
(-0.0028727899 -1.4201774e-09 0)
(-0.0028585457 -1.3614235e-09 -8.1189132e-20)
(-0.0028445376 -1.3052999e-09 -7.7805745e-20)
(-0.0028307514 -1.2516614e-09 0)
(-0.0028171748 -1.2003765e-09 -1.4297031e-19)
(-0.0028037942 -1.1513352e-09 0)
(-0.002790598 -1.104371e-09 0)
(-0.0027775747 -1.0593616e-09 0)
(-0.0027647135 -1.0162077e-09 0)
(-0.0027520038 -9.7481414e-10 0)
(-0.0027394356 -9.3510498e-10 0)
(-0.0027269983 -8.9697309e-10 0)
(-0.0027146829 -8.6032021e-10 0)
(-0.00270248 -8.2508952e-10 0)
(-0.0026903807 -7.9121416e-10 -9.3831384e-20)
(-0.0026783758 -7.5863348e-10 0)
(-0.0026664564 -7.2726665e-10 -4.3088748e-20)
(-0.0026546143 -6.9705811e-10 0)
(-0.0026428409 -6.6796002e-10 -3.9543255e-20)
(-0.0026311277 -6.3991853e-10 7.5736342e-20)
(-0.0026194663 -6.1288636e-10 7.2508855e-20)
(-0.0026078485 -5.8681863e-10 -3.4698948e-20)
(-0.0025962656 -5.6166927e-10 0)
(-0.0025847094 -5.3739578e-10 0)
(-0.0025731714 -5.1396853e-10 6.0711809e-20)
(-0.0025616428 -4.9134697e-10 -5.8017236e-20)
(-0.0025501148 -4.6949074e-10 0)
(-0.0025385786 -4.483707e-10 0)
(-0.002527025 -4.2795952e-10 -5.0475187e-20)
(-0.0025154445 -4.0822796e-10 0)
(-0.0025038273 -3.8914358e-10 0)
(-0.0024921633 -3.7068105e-10 0)
(-0.0024804422 -3.528174e-10 0)
(-0.0024686527 -3.3552583e-10 0)
(-0.0024567837 -3.1877938e-10 0)
(-0.0024448233 -3.0255563e-10 0)
(-0.0024327589 -2.8683783e-10 0)
(-0.0024205772 -2.7153446e-10 3.1915273e-20)
(-0.0024082708 -2.5690487e-10 -3.0183773e-20)
(-0.0023960775 -2.4341173e-10 0)
(-0.0023843671 -2.3107008e-10 0)
(-0.0023732437 -2.1970793e-10 0)
(-0.0023626619 -2.0922644e-10 0)
(-0.0023525793 -1.9955689e-10 0)
(-0.0023429575 -1.9062858e-10 0)
(-0.002333761 -1.8236323e-10 0)
(-0.0023249593 -1.7468617e-10 0)
(-0.0023165245 -1.6754092e-10 -1.9623307e-20)
(-0.0023084315 -1.6087721e-10 0)
(-0.0023006575 -1.5465122e-10 0)
(-0.0022931819 -1.4882685e-10 0)
(-0.0022859854 -1.433737e-10 0)
(-0.0022790503 -1.3827259e-10 0)
(-0.0022723595 -1.3349485e-10 0)
(-0.0022658979 -1.2907756e-10 0)
(-0.0022596448 -1.2489541e-10 0)
(-0.0022535978 -1.2139298e-10 0)
(-0.002247692 -1.1753097e-10 0)
(-0.0022420287 -1.163801e-10 0)
(-0.0022362368 -2.082909e-10 0)
(-0.0022312711 -1.3369949e-10 -1.5673647e-20)
(-0.0022230382 -1.6020463e-10 0)
)
;
    }
    back
    {
        type            empty;
    }
    front
    {
        type            empty;
    }
    inlet
    {
        type            calculated;
        value           uniform (0 0 0);
    }
    outlet
    {
        type            calculated;
        value           uniform (0 0 0);
    }
    top
    {
        type            calculated;
        value           uniform (0 0 0);
    }
    slipsurface
    {
        type            calculated;
        value           uniform (0 0 0);
    }
}


// ************************************************************************* //
