/*--------------------------------*- C++ -*----------------------------------*\
  =========                 |
  \\      /  F ield         | OpenFOAM: The Open Source CFD Toolbox
   \\    /   O peration     | Website:  https://openfoam.org
    \\  /    A nd           | Version:  12
     \\/     M anipulation  |
\*---------------------------------------------------------------------------*/
FoamFile
{
    format      ascii;
    class       volScalarField;
    location    "600";
    object      yPlus;
}
// * * * * * * * * * * * * * * * * * * * * * * * * * * * * * * * * * * * * * //

dimensions      [];

internalField   uniform 0;

boundaryField
{
    inlet
    {
        type            calculated;
        value           uniform 0;
    }
    top
    {
        type            calculated;
        value           uniform 0;
    }
    outlet
    {
        type            calculated;
        value           uniform 0;
    }
    slipsurface
    {
        type            calculated;
        value           uniform 0;
    }
    bottom
    {
        type            calculated;
        value           nonuniform List<scalar> 
100
(
116.34066
115.19135
113.91931
112.5689
111.18109
109.7842
108.38866
106.99889
105.61899
104.25256
102.90254
101.57128
100.2614
98.975822
97.718043
96.492701
95.306616
94.169696
93.090354
92.075972
91.133124
90.267367
89.482756
88.782115
88.165489
87.628588
87.163208
86.75826
86.400378
86.075797
85.772642
85.482282
85.199326
84.920869
84.645579
84.372467
84.100249
83.827522
83.553198
83.276994
82.999586
82.72214
82.44579
82.171242
81.89883
81.628779
81.361341
81.096745
80.835171
80.576784
80.321669
80.069802
79.821141
79.575709
79.333516
79.094493
78.858557
78.625674
78.39578
78.168799
77.944666
77.723319
77.504675
77.288667
77.075242
76.864336
76.655887
76.449842
76.246135
76.044708
75.845504
75.648463
75.453529
75.260646
75.069761
74.880822
74.693777
74.508576
74.325173
74.14352
73.963571
73.785283
73.608611
73.433513
73.259949
73.087875
72.917251
72.748033
72.58018
72.413635
72.248368
72.084252
71.921362
71.759187
71.598555
71.436698
71.279129
71.11032
70.970112
70.707543
)
;
    }
    frontandback
    {
        type            empty;
    }
}


// ************************************************************************* //
