/*--------------------------------*- C++ -*----------------------------------*\
  =========                 |
  \\      /  F ield         | OpenFOAM: The Open Source CFD Toolbox
   \\    /   O peration     | Website:  https://openfoam.org
    \\  /    A nd           | Version:  12
     \\/     M anipulation  |
\*---------------------------------------------------------------------------*/
FoamFile
{
    format      ascii;
    class       volScalarField;
    location    "2000";
    object      nut;
}
// * * * * * * * * * * * * * * * * * * * * * * * * * * * * * * * * * * * * * //

dimensions      [0 2 -1 0 0 0 0];

internalField   nonuniform List<scalar> 
7480
(
1.0914279e-06
7.2925393e-07
5.7109058e-07
5.3561363e-07
5.6137334e-07
6.3589168e-07
7.6754475e-07
9.7276618e-07
1.2736904e-06
1.6940416e-06
2.2534429e-06
2.9679063e-06
3.8428716e-06
4.8378678e-06
5.8324933e-06
6.6698234e-06
7.2505142e-06
7.5711311e-06
7.7082703e-06
7.6759319e-06
7.5846026e-06
7.4567562e-06
7.3091246e-06
7.1662983e-06
7.0580778e-06
6.9898166e-06
6.9533301e-06
6.9376673e-06
6.9350959e-06
6.9413106e-06
6.9525201e-06
6.9651208e-06
6.9771866e-06
6.955641e-06
6.9189484e-06
6.8825223e-06
6.8508276e-06
6.8247031e-06
6.803088e-06
6.7841573e-06
6.7663453e-06
6.7488399e-06
6.7314434e-06
6.7146187e-06
6.7011421e-06
6.6984647e-06
6.7347964e-06
6.8770066e-06
7.2281622e-06
7.8066547e-06
8.3395498e-06
8.6825586e-06
8.9491575e-06
9.1463898e-06
9.2773448e-06
9.3599864e-06
9.4139379e-06
9.453008e-06
9.4834683e-06
9.5089441e-06
9.5309938e-06
9.5503798e-06
9.5677315e-06
9.5836717e-06
9.5985762e-06
9.6127769e-06
9.6266654e-06
9.6404635e-06
9.6542626e-06
9.6681555e-06
9.6822664e-06
9.6967297e-06
9.711674e-06
9.7272182e-06
9.743477e-06
9.7605613e-06
9.7785784e-06
9.7976329e-06
9.8178218e-06
9.8392313e-06
9.8619352e-06
9.8859784e-06
9.9112824e-06
9.9368734e-06
9.9510539e-06
9.7039744e-06
4.2981246e-06
4.0041078e-06
4.0299373e-06
4.0472768e-06
4.057754e-06
4.065773e-06
4.0712338e-06
4.0746612e-06
4.0765881e-06
4.0774109e-06
4.0773626e-06
4.0766798e-06
4.0754211e-06
4.0712805e-06
1.4006715e-06
1.3336556e-06
1.2603133e-06
1.1873367e-06
1.1169941e-06
1.0511104e-06
9.8909859e-07
9.4081706e-07
8.9323695e-07
9.0835442e-07
9.5698732e-07
1.0490819e-06
1.1993806e-06
1.4297718e-06
1.7603689e-06
2.1964356e-06
2.7475394e-06
3.3823202e-06
4.0837521e-06
4.8502489e-06
5.6772822e-06
6.4671122e-06
7.1925159e-06
7.858266e-06
8.4620076e-06
9.0042014e-06
9.4889045e-06
9.9227668e-06
1.0317696e-05
1.0685675e-05
1.1030034e-05
1.1350739e-05
1.1644127e-05
1.1904492e-05
1.2134846e-05
1.2344488e-05
1.2543329e-05
1.2745594e-05
1.2956343e-05
1.3174463e-05
1.3396803e-05
1.3620837e-05
1.384454e-05
1.406555e-05
1.428494e-05
1.448584e-05
1.4678547e-05
1.4891755e-05
1.5170601e-05
1.5542769e-05
1.5949581e-05
1.6319324e-05
1.6637769e-05
1.6904108e-05
1.7128166e-05
1.7320714e-05
1.7490697e-05
1.7646051e-05
1.7792492e-05
1.7934025e-05
1.8070906e-05
1.820278e-05
1.8329898e-05
1.8453089e-05
1.8572583e-05
1.8688936e-05
1.8803163e-05
1.8915689e-05
1.9026541e-05
1.9135805e-05
1.9243694e-05
1.9350474e-05
1.9456406e-05
1.9561733e-05
1.9666686e-05
1.9771489e-05
1.9876353e-05
1.9981481e-05
2.0087063e-05
2.0193261e-05
2.030022e-05
2.0408027e-05
2.0516518e-05
2.0623817e-05
2.0707851e-05
2.0527849e-05
1.7373017e-05
1.5971905e-05
1.4918067e-05
1.4262044e-05
1.382734e-05
1.3533093e-05
1.3325698e-05
1.3175669e-05
1.306463e-05
1.2980827e-05
1.2916206e-05
1.2865661e-05
1.2825093e-05
1.2791659e-05
1.4332146e-06
1.409794e-06
1.3837749e-06
1.3564659e-06
1.3282421e-06
1.2985581e-06
1.2671495e-06
1.2339711e-06
1.1989613e-06
1.1645049e-06
1.1317838e-06
1.1021799e-06
1.0775222e-06
1.0596254e-06
1.0427931e-06
1.0449691e-06
1.0611697e-06
1.1199437e-06
1.2325961e-06
1.4117607e-06
1.6741957e-06
2.0360716e-06
2.5001767e-06
3.0862708e-06
3.7635825e-06
4.5254109e-06
5.3851288e-06
6.2929664e-06
7.2109601e-06
8.1111204e-06
8.9704506e-06
9.770289e-06
1.048529e-05
1.1131349e-05
1.1738208e-05
1.2324884e-05
1.2894096e-05
1.3444936e-05
1.3972263e-05
1.4479322e-05
1.4970097e-05
1.5448328e-05
1.5914607e-05
1.6367286e-05
1.6806797e-05
1.7230409e-05
1.7636641e-05
1.8028841e-05
1.8426256e-05
1.8840392e-05
1.9265084e-05
1.968828e-05
2.0093135e-05
2.047568e-05
2.083831e-05
2.1182151e-05
2.1507847e-05
2.181994e-05
2.2124044e-05
2.2423626e-05
2.2715666e-05
2.2999019e-05
2.3273911e-05
2.3541371e-05
2.3800941e-05
2.4053646e-05
2.4301072e-05
2.4543391e-05
2.478035e-05
2.5011958e-05
2.5238426e-05
2.5460017e-05
2.5676991e-05
2.5889582e-05
2.6098016e-05
2.6302509e-05
2.6503274e-05
2.6700517e-05
2.6894443e-05
2.7085239e-05
2.7273091e-05
2.7458147e-05
2.7640378e-05
2.7818673e-05
2.7979349e-05
2.7998741e-05
2.6868234e-05
2.6273641e-05
2.5821084e-05
2.5545146e-05
2.5377907e-05
2.5283187e-05
2.5232098e-05
2.520744e-05
2.5198548e-05
2.5199408e-05
2.5204318e-05
2.5215334e-05
2.5215604e-05
2.5249656e-05
1.4428923e-06
1.4311348e-06
1.4182987e-06
1.40486e-06
1.3909241e-06
1.3764939e-06
1.3615682e-06
1.3460048e-06
1.3297631e-06
1.312639e-06
1.2945492e-06
1.2753962e-06
1.2551753e-06
1.2342018e-06
1.2132925e-06
1.1929244e-06
1.1733284e-06
1.1553322e-06
1.1407674e-06
1.1304485e-06
1.1248321e-06
1.1293077e-06
1.1454273e-06
1.1870529e-06
1.2772739e-06
1.430139e-06
1.6659584e-06
2.0049133e-06
2.4615349e-06
3.0620509e-06
3.801338e-06
4.6585678e-06
5.6330838e-06
6.671424e-06
7.7265039e-06
8.7643327e-06
9.7627519e-06
1.0711079e-05
1.1609514e-05
1.2464467e-05
1.328475e-05
1.4079406e-05
1.4844227e-05
1.5579047e-05
1.6300871e-05
1.7011749e-05
1.7700321e-05
1.8364149e-05
1.9009149e-05
1.9640079e-05
2.0259068e-05
2.08654e-05
2.145821e-05
2.2035694e-05
2.2595645e-05
2.3136564e-05
2.3658026e-05
2.4169414e-05
2.4674774e-05
2.5175012e-05
2.5660419e-05
2.6132567e-05
2.6592577e-05
2.7041759e-05
2.7478136e-05
2.7904747e-05
2.8323334e-05
2.873307e-05
2.9133564e-05
2.9524947e-05
2.9907479e-05
3.028141e-05
3.0646965e-05
3.1004341e-05
3.1353716e-05
3.1695258e-05
3.202912e-05
3.2355448e-05
3.2674382e-05
3.2986053e-05
3.329059e-05
3.3588111e-05
3.3878632e-05
3.4161853e-05
3.4432264e-05
3.4648805e-05
3.4505122e-05
3.4473067e-05
3.4462116e-05
3.4502565e-05
3.4582884e-05
3.4693678e-05
3.4822994e-05
3.4961949e-05
3.5104309e-05
3.5247237e-05
3.5385196e-05
3.5527925e-05
3.5633977e-05
3.5846993e-05
1.4477189e-06
1.4407279e-06
1.4331787e-06
1.4252947e-06
1.4171217e-06
1.4086626e-06
1.3999123e-06
1.3908605e-06
1.3814975e-06
1.3718005e-06
1.3617393e-06
1.3512753e-06
1.3403654e-06
1.3289582e-06
1.3170705e-06
1.3046697e-06
1.2917741e-06
1.2782548e-06
1.2640673e-06
1.2495073e-06
1.2350484e-06
1.2209615e-06
1.2075028e-06
1.1953244e-06
1.1864249e-06
1.1780862e-06
1.1792741e-06
1.1865328e-06
1.2088609e-06
1.2520471e-06
1.3481874e-06
1.518872e-06
1.7913781e-06
2.192767e-06
2.7418571e-06
3.4796034e-06
4.36511e-06
5.3873934e-06
6.5228896e-06
7.714217e-06
8.9159244e-06
1.0094402e-05
1.1230235e-05
1.231786e-05
1.3363371e-05
1.4378196e-05
1.5368507e-05
1.6333278e-05
1.727103e-05
1.8182371e-05
1.9070069e-05
1.9931698e-05
2.0778776e-05
2.1605264e-05
2.2411341e-05
2.3197127e-05
2.3962201e-05
2.4709834e-05
2.5443164e-05
2.6164748e-05
2.6871702e-05
2.7563326e-05
2.8239696e-05
2.8901959e-05
2.9544582e-05
3.0177972e-05
3.0800874e-05
3.1410281e-05
3.2006721e-05
3.2590724e-05
3.3162641e-05
3.3722747e-05
3.4271283e-05
3.480846e-05
3.5334469e-05
3.5849484e-05
3.6353657e-05
3.6847134e-05
3.7330047e-05
3.7802515e-05
3.826466e-05
3.8716594e-05
3.9158363e-05
3.9590043e-05
4.0009799e-05
4.0407403e-05
4.0701099e-05
4.1005161e-05
4.1293279e-05
4.1580706e-05
4.1872881e-05
4.2172092e-05
4.2475571e-05
4.2779468e-05
4.3080052e-05
4.337626e-05
4.3661754e-05
4.3953457e-05
4.4181881e-05
4.4608865e-05
1.4508044e-06
1.4462347e-06
1.4413312e-06
1.4362172e-06
1.430917e-06
1.4254308e-06
1.4197533e-06
1.4138781e-06
1.407799e-06
1.4015095e-06
1.3950035e-06
1.3882746e-06
1.3813169e-06
1.3741227e-06
1.366683e-06
1.3589846e-06
1.3510141e-06
1.3427519e-06
1.3341671e-06
1.3252278e-06
1.3159253e-06
1.3062245e-06
1.2961801e-06
1.2854512e-06
1.2743433e-06
1.2630751e-06
1.252015e-06
1.2413897e-06
1.231421e-06
1.2236173e-06
1.2153473e-06
1.2155785e-06
1.2203433e-06
1.2366838e-06
1.2734125e-06
1.3481594e-06
1.4984207e-06
1.7552103e-06
2.1549399e-06
2.7237656e-06
3.5199349e-06
4.4978377e-06
5.6431713e-06
6.9221758e-06
8.2686114e-06
9.628487e-06
1.0964355e-05
1.2259e-05
1.3511599e-05
1.4728717e-05
1.5916511e-05
1.7076221e-05
1.8208235e-05
1.9313951e-05
2.0394693e-05
2.145176e-05
2.2485131e-05
2.3495335e-05
2.4484407e-05
2.5455114e-05
2.6407909e-05
2.7342534e-05
2.8258833e-05
2.915763e-05
3.003641e-05
3.089908e-05
3.174674e-05
3.25787e-05
3.3394869e-05
3.4195546e-05
3.498108e-05
3.5751787e-05
3.6507948e-05
3.724982e-05
3.7977632e-05
3.8691593e-05
3.9391892e-05
4.0078699e-05
4.0752171e-05
4.141245e-05
4.2059675e-05
4.2693975e-05
4.3315429e-05
4.3924241e-05
4.4519982e-05
4.5101682e-05
4.5653211e-05
4.6195438e-05
4.6714768e-05
4.7215264e-05
4.7703997e-05
4.8186833e-05
4.8665416e-05
4.9138898e-05
4.9605074e-05
5.0064007e-05
5.0508152e-05
5.0961448e-05
5.1324077e-05
5.1990138e-05
1.453086e-06
1.4498979e-06
1.4464957e-06
1.4429525e-06
1.4392823e-06
1.4354849e-06
1.4315561e-06
1.4274916e-06
1.4232863e-06
1.4189354e-06
1.4144341e-06
1.4097782e-06
1.4049639e-06
1.399988e-06
1.3948476e-06
1.3895392e-06
1.3840585e-06
1.3783997e-06
1.3725561e-06
1.3665176e-06
1.3602733e-06
1.3538086e-06
1.347112e-06
1.3401592e-06
1.3329207e-06
1.3253913e-06
1.3175442e-06
1.3093794e-06
1.3008646e-06
1.2919959e-06
1.2827552e-06
1.2736313e-06
1.2648434e-06
1.2565622e-06
1.2501627e-06
1.2436686e-06
1.2442887e-06
1.2496732e-06
1.267291e-06
1.307535e-06
1.3880405e-06
1.5571158e-06
1.8557761e-06
2.3281734e-06
3.0195422e-06
3.9702502e-06
5.1343225e-06
6.4919809e-06
7.9686826e-06
9.4929805e-06
1.1009092e-05
1.2487096e-05
1.3922058e-05
1.5321615e-05
1.6692905e-05
1.8037848e-05
1.9355423e-05
2.0645399e-05
2.1909398e-05
2.3149713e-05
2.436757e-05
2.55635e-05
2.6737872e-05
2.7891441e-05
2.9023423e-05
3.0134727e-05
3.1226742e-05
3.2299967e-05
3.3354523e-05
3.4390649e-05
3.5408677e-05
3.6408945e-05
3.7391778e-05
3.8357483e-05
3.9306336e-05
4.0238592e-05
4.1154482e-05
4.2054218e-05
4.2937994e-05
4.3805985e-05
4.4658361e-05
4.5495275e-05
4.6316841e-05
4.712329e-05
4.7914684e-05
4.869199e-05
4.9455949e-05
5.0207592e-05
5.0937282e-05
5.1643086e-05
5.2329386e-05
5.3001988e-05
5.3664349e-05
5.4317471e-05
5.4960257e-05
5.5593696e-05
5.6208943e-05
5.6837059e-05
5.7345984e-05
5.8274374e-05
1.4549329e-06
1.4526032e-06
1.4501281e-06
1.4475537e-06
1.4448885e-06
1.4421319e-06
1.4392813e-06
1.4363334e-06
1.4332847e-06
1.4301317e-06
1.426871e-06
1.4234991e-06
1.4200132e-06
1.4164103e-06
1.4126879e-06
1.4088433e-06
1.4048733e-06
1.4007743e-06
1.3965417e-06
1.3921705e-06
1.3876554e-06
1.3829909e-06
1.3781703e-06
1.3731883e-06
1.3680375e-06
1.3627098e-06
1.3571949e-06
1.3514812e-06
1.3455569e-06
1.3394005e-06
1.3330031e-06
1.3263356e-06
1.319395e-06
1.3121622e-06
1.3046138e-06
1.2967579e-06
1.2890351e-06
1.2816235e-06
1.2749381e-06
1.2699813e-06
1.2663141e-06
1.2684256e-06
1.2775977e-06
1.3040139e-06
1.3605297e-06
1.4844743e-06
1.7297995e-06
2.1561085e-06
2.8134611e-06
3.7857132e-06
5.0167333e-06
6.4795568e-06
8.0984992e-06
9.7835003e-06
1.1465958e-05
1.3112115e-05
1.4718228e-05
1.6292423e-05
1.7840132e-05
1.9361712e-05
2.0856647e-05
2.2326009e-05
2.3771176e-05
2.5192844e-05
2.6590718e-05
2.7965009e-05
2.9316635e-05
3.06463e-05
3.1954397e-05
3.3241279e-05
3.4507289e-05
3.5752756e-05
3.6978028e-05
3.8183439e-05
3.9369299e-05
4.0535898e-05
4.1683505e-05
4.2812366e-05
4.392271e-05
4.5014751e-05
4.6088685e-05
4.7144691e-05
4.8182914e-05
4.9203577e-05
5.0206906e-05
5.1193747e-05
5.2167818e-05
5.3128295e-05
5.4068538e-05
5.4984243e-05
5.5876747e-05
5.6750363e-05
5.76089e-05
5.8454449e-05
5.9286794e-05
6.0107813e-05
6.0907407e-05
6.1723965e-05
6.2391582e-05
6.3604484e-05
1.4565353e-06
1.4547725e-06
1.4529067e-06
1.450968e-06
1.4489617e-06
1.4468875e-06
1.4447433e-06
1.4425266e-06
1.4402351e-06
1.4378661e-06
1.4354171e-06
1.4328857e-06
1.4302695e-06
1.4275663e-06
1.424774e-06
1.4218905e-06
1.4189131e-06
1.415839e-06
1.4126648e-06
1.4093866e-06
1.4060006e-06
1.4025026e-06
1.3988883e-06
1.3951535e-06
1.3912939e-06
1.387305e-06
1.3831824e-06
1.3789211e-06
1.3745161e-06
1.3699613e-06
1.365251e-06
1.3603762e-06
1.3553265e-06
1.3500913e-06
1.3446505e-06
1.3389962e-06
1.3330982e-06
1.3269818e-06
1.320497e-06
1.3137784e-06
1.3069729e-06
1.3003863e-06
1.2941488e-06
1.289272e-06
1.2849208e-06
1.2860619e-06
1.2926228e-06
1.3135622e-06
1.3633627e-06
1.4717328e-06
1.709084e-06
2.1464867e-06
2.8483641e-06
3.9140054e-06
5.2809109e-06
6.9128373e-06
8.7092558e-06
1.0566447e-05
1.2412001e-05
1.4218669e-05
1.5989783e-05
1.7734704e-05
1.9456079e-05
2.1152397e-05
2.2823034e-05
2.4468665e-05
2.6089801e-05
2.7686637e-05
2.9259571e-05
3.0809065e-05
3.2335392e-05
3.3838798e-05
3.5319602e-05
3.6778106e-05
3.8214594e-05
3.9629352e-05
4.1022653e-05
4.2394751e-05
4.374589e-05
4.5076301e-05
4.6386195e-05
4.7675763e-05
4.8945172e-05
5.0194621e-05
5.1424379e-05
5.2634804e-05
5.3829155e-05
5.5007899e-05
5.6167096e-05
5.7302176e-05
5.8412254e-05
5.9499783e-05
6.0568092e-05
6.1619766e-05
6.2655259e-05
6.3677308e-05
6.4674651e-05
6.5693217e-05
6.6531902e-05
6.8050544e-05
1.4580027e-06
1.4566322e-06
1.455186e-06
1.4536846e-06
1.4521315e-06
1.4505262e-06
1.4488671e-06
1.4471526e-06
1.4453807e-06
1.4435495e-06
1.4416571e-06
1.4397017e-06
1.4376813e-06
1.4355945e-06
1.4334393e-06
1.4312141e-06
1.4289169e-06
1.4265455e-06
1.4240972e-06
1.4215692e-06
1.4189585e-06
1.4162619e-06
1.4134763e-06
1.4105982e-06
1.4076244e-06
1.4045514e-06
1.4013757e-06
1.3980938e-06
1.3947021e-06
1.3911967e-06
1.3875737e-06
1.3838289e-06
1.3799576e-06
1.3759552e-06
1.3718158e-06
1.3675344e-06
1.363102e-06
1.3585115e-06
1.3537474e-06
1.3487915e-06
1.3436364e-06
1.3382687e-06
1.3326832e-06
1.3268327e-06
1.3207649e-06
1.3148594e-06
1.3092354e-06
1.3047506e-06
1.3008423e-06
1.3019378e-06
1.3085205e-06
1.3300183e-06
1.3834051e-06
1.505415e-06
1.7811201e-06
2.2960299e-06
3.1436137e-06
4.3988836e-06
5.9954547e-06
7.8622728e-06
9.8676348e-06
1.1901256e-05
1.3905662e-05
1.5872609e-05
1.7812199e-05
1.9729374e-05
2.1622497e-05
2.3490342e-05
2.5333601e-05
2.7152669e-05
2.8947331e-05
3.0717618e-05
3.2463739e-05
3.4185802e-05
3.5883945e-05
3.7558372e-05
3.9209272e-05
4.0836837e-05
4.2441275e-05
4.4022787e-05
4.5581556e-05
4.7117751e-05
4.8631534e-05
5.0123065e-05
5.1592595e-05
5.3040032e-05
5.4467691e-05
5.5877142e-05
5.7266569e-05
5.863217e-05
5.9971828e-05
6.1286311e-05
6.2578032e-05
6.3849586e-05
6.5101851e-05
6.6338351e-05
6.7546728e-05
6.878064e-05
6.9802626e-05
7.1647456e-05
1.4593961e-06
1.4583072e-06
1.4571611e-06
1.4559719e-06
1.4547422e-06
1.4534714e-06
1.4521585e-06
1.4508019e-06
1.4494003e-06
1.4479522e-06
1.4464561e-06
1.4449106e-06
1.4433142e-06
1.4416656e-06
1.4399635e-06
1.4382063e-06
1.4363926e-06
1.4345206e-06
1.4325883e-06
1.4305934e-06
1.4285337e-06
1.4264067e-06
1.42421e-06
1.421941e-06
1.419597e-06
1.4171754e-06
1.4146735e-06
1.4120885e-06
1.4094174e-06
1.4066574e-06
1.4038051e-06
1.4008575e-06
1.3978109e-06
1.394662e-06
1.391407e-06
1.3880422e-06
1.3845639e-06
1.3809678e-06
1.3772499e-06
1.3734051e-06
1.3694274e-06
1.3653081e-06
1.3610394e-06
1.3566043e-06
1.3519927e-06
1.3471861e-06
1.3421853e-06
1.3369301e-06
1.3314717e-06
1.3261652e-06
1.3211681e-06
1.3172131e-06
1.3145137e-06
1.3164198e-06
1.3254964e-06
1.3540687e-06
1.4243783e-06
1.5980285e-06
1.9804942e-06
2.6663956e-06
3.8216843e-06
5.3859776e-06
7.3049199e-06
9.4414379e-06
1.1651534e-05
1.3846856e-05
1.6005539e-05
1.8136974e-05
2.0247763e-05
2.2336206e-05
2.4400441e-05
2.6440697e-05
2.8456942e-05
3.044867e-05
3.2415722e-05
3.4358075e-05
3.6275651e-05
3.8168458e-05
4.0036559e-05
4.1880023e-05
4.3698922e-05
4.5493332e-05
4.7263357e-05
4.9009074e-05
5.0730657e-05
5.2427641e-05
5.4101598e-05
5.5754626e-05
5.7386323e-05
5.8993999e-05
6.057512e-05
6.212918e-05
6.3657531e-05
6.5162414e-05
6.664486e-05
6.8109048e-05
6.9541559e-05
7.100391e-05
7.2221268e-05
7.4412151e-05
1.4607395e-06
1.4598588e-06
1.4589339e-06
1.4579747e-06
1.456983e-06
1.4559585e-06
1.4549001e-06
1.4538067e-06
1.4526773e-06
1.4515107e-06
1.4503057e-06
1.4490612e-06
1.447776e-06
1.4464491e-06
1.4450793e-06
1.4436654e-06
1.4422063e-06
1.4407005e-06
1.4391463e-06
1.4375422e-06
1.4358862e-06
1.4341765e-06
1.4324112e-06
1.4305881e-06
1.4287052e-06
1.4267604e-06
1.4247517e-06
1.4226766e-06
1.4205331e-06
1.4183186e-06
1.4160307e-06
1.4136667e-06
1.4112241e-06
1.4086998e-06
1.4060911e-06
1.4033948e-06
1.4006081e-06
1.3977278e-06
1.3947506e-06
1.3916735e-06
1.3884928e-06
1.3852048e-06
1.3818056e-06
1.3782903e-06
1.3746543e-06
1.3708896e-06
1.3669889e-06
1.3629362e-06
1.3587208e-06
1.354325e-06
1.3497528e-06
1.3449341e-06
1.3400108e-06
1.3351908e-06
1.3311247e-06
1.3268529e-06
1.3271362e-06
1.3313621e-06
1.3474452e-06
1.3943811e-06
1.5098417e-06
1.8075638e-06
2.4064017e-06
3.462147e-06
5.0284788e-06
7.0238914e-06
9.3071582e-06
1.1700282e-05
1.408808e-05
1.6439278e-05
1.8763858e-05
2.1069224e-05
2.3353296e-05
2.5614059e-05
2.7851471e-05
3.0065037e-05
3.2254032e-05
3.441813e-05
3.6557063e-05
3.8670573e-05
4.0758476e-05
4.2820634e-05
4.4856982e-05
4.6867446e-05
4.8852027e-05
5.080989e-05
5.2742136e-05
5.4651004e-05
5.6536837e-05
5.839799e-05
6.0232041e-05
6.2037681e-05
6.3815262e-05
6.5566433e-05
6.7292121e-05
6.8996977e-05
7.0666505e-05
7.237016e-05
7.3794839e-05
7.6351179e-05
1.4620337e-06
1.4613109e-06
1.4605532e-06
1.4597679e-06
1.4589561e-06
1.4581175e-06
1.4572513e-06
1.4563567e-06
1.4554327e-06
1.4544784e-06
1.453493e-06
1.4524754e-06
1.4514247e-06
1.4503401e-06
1.4492206e-06
1.4480653e-06
1.4468731e-06
1.4456429e-06
1.4443734e-06
1.4430633e-06
1.4417111e-06
1.4403152e-06
1.4388742e-06
1.4373863e-06
1.4358499e-06
1.4342634e-06
1.432625e-06
1.4309328e-06
1.4291852e-06
1.4273802e-06
1.4255157e-06
1.4235896e-06
1.4215999e-06
1.4195442e-06
1.4174203e-06
1.4152256e-06
1.4129577e-06
1.4106142e-06
1.4081924e-06
1.4056896e-06
1.4031031e-06
1.4004298e-06
1.3976668e-06
1.3948109e-06
1.3918586e-06
1.3888066e-06
1.3856508e-06
1.3823871e-06
1.3790109e-06
1.3755147e-06
1.371892e-06
1.3681267e-06
1.3642094e-06
1.3601252e-06
1.355858e-06
1.3513008e-06
1.3468463e-06
1.3426378e-06
1.3392139e-06
1.3372018e-06
1.3393676e-06
1.3500061e-06
1.3845948e-06
1.4761373e-06
1.7275287e-06
2.2834235e-06
3.3146977e-06
4.937696e-06
7.0567064e-06
9.5130279e-06
1.2097713e-05
1.46781e-05
1.7222044e-05
1.9741717e-05
2.2243532e-05
2.4724615e-05
2.7183236e-05
2.9619074e-05
3.2031151e-05
3.4418564e-05
3.67807e-05
3.9116993e-05
4.1427057e-05
4.371052e-05
4.5967072e-05
4.8195412e-05
5.0396348e-05
5.2572062e-05
5.4723092e-05
5.6848543e-05
5.8946349e-05
6.1014807e-05
6.3053448e-05
6.5063217e-05
6.7044719e-05
6.9002867e-05
7.092203e-05
7.2879624e-05
7.4523415e-05
7.7464213e-05
1.4632746e-06
1.4626741e-06
1.4620457e-06
1.4613946e-06
1.4607216e-06
1.4600266e-06
1.4593087e-06
1.4585674e-06
1.4578018e-06
1.4570112e-06
1.456195e-06
1.4553522e-06
1.4544822e-06
1.4535842e-06
1.4526574e-06
1.4517011e-06
1.4507144e-06
1.4496963e-06
1.4486459e-06
1.4475619e-06
1.4464432e-06
1.4452887e-06
1.4440969e-06
1.4428666e-06
1.4415965e-06
1.4402851e-06
1.4389311e-06
1.4375329e-06
1.4360891e-06
1.4345982e-06
1.4330585e-06
1.4314683e-06
1.4298258e-06
1.4281292e-06
1.4263766e-06
1.4245661e-06
1.4226956e-06
1.4207632e-06
1.4187667e-06
1.4167038e-06
1.4145724e-06
1.4123699e-06
1.410094e-06
1.4077419e-06
1.4053109e-06
1.4027982e-06
1.4002008e-06
1.3975156e-06
1.3947395e-06
1.3918693e-06
1.3889013e-06
1.3858321e-06
1.3826567e-06
1.3793692e-06
1.375958e-06
1.3724126e-06
1.3687104e-06
1.3648614e-06
1.3607831e-06
1.3566286e-06
1.3526126e-06
1.3492518e-06
1.3466298e-06
1.3480562e-06
1.3564049e-06
1.3855574e-06
1.4679538e-06
1.707368e-06
2.2715675e-06
3.3630071e-06
5.1184333e-06
7.4282813e-06
1.0095753e-05
1.2883615e-05
1.5657659e-05
1.8396356e-05
2.1114562e-05
2.3815755e-05
2.6496502e-05
2.9155441e-05
3.1791604e-05
3.4403667e-05
3.699074e-05
3.9551949e-05
4.2086432e-05
4.4592251e-05
4.7069947e-05
4.9521543e-05
5.1947345e-05
5.4346804e-05
5.6718195e-05
5.9059696e-05
6.1370233e-05
6.365004e-05
6.5899234e-05
6.8122776e-05
7.0303798e-05
7.2527631e-05
7.4402078e-05
7.7747037e-05
1.4644629e-06
1.4639587e-06
1.4634319e-06
1.4628863e-06
1.4623224e-06
1.4617401e-06
1.4611387e-06
1.4605176e-06
1.4598764e-06
1.4592143e-06
1.4585308e-06
1.4578251e-06
1.4570968e-06
1.4563451e-06
1.4555694e-06
1.4547691e-06
1.4539434e-06
1.4530915e-06
1.4522126e-06
1.4513058e-06
1.4503701e-06
1.4494045e-06
1.4484079e-06
1.4473792e-06
1.4463174e-06
1.4452213e-06
1.4440896e-06
1.4429214e-06
1.4417152e-06
1.4404698e-06
1.4391838e-06
1.4378559e-06
1.4364847e-06
1.4350685e-06
1.4336058e-06
1.4320951e-06
1.4305347e-06
1.4289229e-06
1.4272579e-06
1.425538e-06
1.4237613e-06
1.4219258e-06
1.4200294e-06
1.41807e-06
1.4160453e-06
1.4139529e-06
1.4117905e-06
1.4095554e-06
1.4072451e-06
1.4048568e-06
1.4023879e-06
1.3998357e-06
1.3971973e-06
1.3944697e-06
1.391649e-06
1.3887321e-06
1.3857121e-06
1.3825832e-06
1.3793309e-06
1.3759418e-06
1.3724166e-06
1.3686799e-06
1.3648036e-06
1.3610329e-06
1.3578445e-06
1.3551874e-06
1.3564169e-06
1.3642695e-06
1.392929e-06
1.4778921e-06
1.7400497e-06
2.3706717e-06
3.6279785e-06
5.6099742e-06
8.1874411e-06
1.1100397e-05
1.4097486e-05
1.7066443e-05
2.0004368e-05
2.2925121e-05
2.582823e-05
2.8711026e-05
3.1572546e-05
3.441112e-05
3.7225023e-05
4.0011451e-05
4.277057e-05
4.5504142e-05
4.8211906e-05
5.0893201e-05
5.3546432e-05
5.6169746e-05
5.8761652e-05
6.132172e-05
6.3849474e-05
6.6349712e-05
6.8804202e-05
7.1306092e-05
7.3422372e-05
7.71906e-05
1.4656025e-06
1.4651754e-06
1.4647296e-06
1.4642681e-06
1.4637912e-06
1.4632987e-06
1.4627901e-06
1.462265e-06
1.4617228e-06
1.4611631e-06
1.4605853e-06
1.4599889e-06
1.4593733e-06
1.4587381e-06
1.4580826e-06
1.4574064e-06
1.4567088e-06
1.4559892e-06
1.4552468e-06
1.4544809e-06
1.4536907e-06
1.4528753e-06
1.4520339e-06
1.4511655e-06
1.4502692e-06
1.4493441e-06
1.4483892e-06
1.4474035e-06
1.4463859e-06
1.4453355e-06
1.444251e-06
1.4431313e-06
1.4419752e-06
1.4407814e-06
1.4395487e-06
1.4382757e-06
1.436961e-06
1.4356033e-06
1.4342011e-06
1.4327528e-06
1.431257e-06
1.4297119e-06
1.4281159e-06
1.4264672e-06
1.4247639e-06
1.4230041e-06
1.4211857e-06
1.4193067e-06
1.4173648e-06
1.4153578e-06
1.4132835e-06
1.4111395e-06
1.4089235e-06
1.4066329e-06
1.404265e-06
1.4018169e-06
1.3992857e-06
1.396668e-06
1.3939607e-06
1.3911588e-06
1.3882576e-06
1.3852439e-06
1.3821049e-06
1.3788375e-06
1.375373e-06
1.3717545e-06
1.3682382e-06
1.365251e-06
1.3629165e-06
1.3643596e-06
1.3733278e-06
1.4070316e-06
1.5082464e-06
1.8389986e-06
2.6106896e-06
4.1881232e-06
6.5067857e-06
9.4093214e-06
1.2577958e-05
1.5776754e-05
1.8939997e-05
2.2081602e-05
2.5208705e-05
2.831774e-05
3.1406416e-05
3.4471141e-05
3.7511492e-05
4.0528891e-05
4.3522214e-05
4.6490222e-05
4.943108e-05
5.2342819e-05
5.5223618e-05
5.8072435e-05
6.0888132e-05
6.3675153e-05
6.6413746e-05
6.9204729e-05
7.1573471e-05
7.57822e-05
1.4667014e-06
1.4663366e-06
1.4659563e-06
1.4655628e-06
1.4651561e-06
1.4647362e-06
1.4643026e-06
1.4638549e-06
1.4633927e-06
1.4629155e-06
1.462423e-06
1.4619147e-06
1.4613901e-06
1.4608488e-06
1.4602903e-06
1.4597142e-06
1.4591198e-06
1.4585068e-06
1.4578744e-06
1.4572221e-06
1.4565491e-06
1.4558547e-06
1.4551383e-06
1.454399e-06
1.453636e-06
1.4528486e-06
1.452036e-06
1.4511972e-06
1.4503314e-06
1.4494378e-06
1.4485153e-06
1.4475631e-06
1.44658e-06
1.445565e-06
1.4445171e-06
1.4434351e-06
1.4423179e-06
1.4411643e-06
1.439973e-06
1.4387429e-06
1.4374725e-06
1.4361606e-06
1.4348056e-06
1.4334062e-06
1.4319607e-06
1.4304674e-06
1.4289248e-06
1.4273311e-06
1.4256844e-06
1.4239828e-06
1.4222245e-06
1.4204076e-06
1.4185301e-06
1.4165897e-06
1.4145842e-06
1.4125111e-06
1.4103679e-06
1.4081521e-06
1.4058611e-06
1.4034922e-06
1.4010426e-06
1.3985092e-06
1.3958879e-06
1.3931743e-06
1.390356e-06
1.3874204e-06
1.3843644e-06
1.3811182e-06
1.3777357e-06
1.3744767e-06
1.3716975e-06
1.3700815e-06
1.3722439e-06
1.384525e-06
1.4289944e-06
1.5719794e-06
2.0381745e-06
3.0992822e-06
5.0817293e-06
7.8500073e-06
1.1120703e-05
1.4542828e-05
1.7943936e-05
2.1312778e-05
2.4665779e-05
2.8000359e-05
3.1315512e-05
3.4612917e-05
3.7890356e-05
4.1145605e-05
4.4376181e-05
4.7579766e-05
5.0754169e-05
5.3897738e-05
5.7008606e-05
6.0090679e-05
6.3122515e-05
6.6212409e-05
6.8843295e-05
7.3509066e-05
1.467771e-06
1.4674572e-06
1.4671305e-06
1.4667924e-06
1.4664431e-06
1.4660824e-06
1.4657099e-06
1.4653254e-06
1.4649284e-06
1.4645186e-06
1.4640957e-06
1.4636592e-06
1.4632088e-06
1.462744e-06
1.4622646e-06
1.46177e-06
1.4612599e-06
1.4607337e-06
1.460191e-06
1.4596312e-06
1.4590537e-06
1.4584579e-06
1.4578433e-06
1.4572091e-06
1.4565547e-06
1.4558794e-06
1.4551825e-06
1.4544634e-06
1.4537212e-06
1.4529552e-06
1.4521645e-06
1.4513485e-06
1.4505061e-06
1.4496365e-06
1.4487389e-06
1.4478122e-06
1.4468554e-06
1.4458676e-06
1.4448478e-06
1.4437948e-06
1.4427075e-06
1.4415849e-06
1.4404256e-06
1.4392285e-06
1.4379921e-06
1.4367152e-06
1.4353963e-06
1.4340339e-06
1.4326264e-06
1.4311725e-06
1.4296703e-06
1.4281183e-06
1.4265149e-06
1.4248581e-06
1.4231461e-06
1.4213768e-06
1.419548e-06
1.4176577e-06
1.4157035e-06
1.4136833e-06
1.4115946e-06
1.409435e-06
1.407202e-06
1.404893e-06
1.402505e-06
1.4000343e-06
1.3974768e-06
1.3948205e-06
1.3920521e-06
1.3891711e-06
1.3861022e-06
1.3829088e-06
1.3800916e-06
1.3767662e-06
1.3769453e-06
1.3808015e-06
1.4003526e-06
1.4663752e-06
1.7136282e-06
2.4120388e-06
3.9769075e-06
6.5061143e-06
9.7837791e-06
1.3394937e-05
1.7037479e-05
2.0637314e-05
2.4216252e-05
2.7784502e-05
3.1338571e-05
3.4875811e-05
3.8393022e-05
4.1887346e-05
4.5356095e-05
4.879691e-05
5.2207106e-05
5.5589865e-05
5.8921863e-05
6.2318642e-05
6.5219869e-05
7.0357518e-05
1.4688223e-06
1.4685507e-06
1.4682681e-06
1.4679757e-06
1.4676736e-06
1.4673617e-06
1.4670397e-06
1.4667072e-06
1.466364e-06
1.4660097e-06
1.4656441e-06
1.4652667e-06
1.4648774e-06
1.4644757e-06
1.4640613e-06
1.4636339e-06
1.4631931e-06
1.4627384e-06
1.4622695e-06
1.4617858e-06
1.4612869e-06
1.4607723e-06
1.4602414e-06
1.4596936e-06
1.4591285e-06
1.4585454e-06
1.4579438e-06
1.457323e-06
1.4566823e-06
1.4560212e-06
1.4553389e-06
1.4546347e-06
1.453908e-06
1.4531579e-06
1.4523836e-06
1.4515844e-06
1.4507594e-06
1.4499077e-06
1.4490286e-06
1.4481209e-06
1.447184e-06
1.4462166e-06
1.4452178e-06
1.4441865e-06
1.4431217e-06
1.442022e-06
1.4408864e-06
1.4397136e-06
1.4385022e-06
1.437251e-06
1.4359585e-06
1.4346234e-06
1.4332443e-06
1.4318196e-06
1.4303477e-06
1.4288268e-06
1.4272552e-06
1.425631e-06
1.4239523e-06
1.4222172e-06
1.4204238e-06
1.4185698e-06
1.416653e-06
1.4146714e-06
1.4126224e-06
1.4105038e-06
1.4083129e-06
1.4060473e-06
1.4037032e-06
1.4012759e-06
1.3987565e-06
1.3961177e-06
1.3934084e-06
1.3904033e-06
1.3874472e-06
1.3848249e-06
1.3824526e-06
1.3834919e-06
1.3916849e-06
1.4264937e-06
1.5474052e-06
2.0013765e-06
3.1419201e-06
5.3979251e-06
8.6012342e-06
1.2352998e-05
1.6232108e-05
2.0078702e-05
2.3899311e-05
2.7708138e-05
3.1502973e-05
3.5281236e-05
3.9039862e-05
4.2775688e-05
4.6485148e-05
5.0170531e-05
5.3806423e-05
5.7515378e-05
6.069292e-05
6.6314669e-05
1.4698639e-06
1.4696274e-06
1.4693815e-06
1.4691272e-06
1.4688645e-06
1.4685932e-06
1.4683131e-06
1.4680239e-06
1.4677253e-06
1.4674172e-06
1.4670992e-06
1.4667711e-06
1.4664325e-06
1.4660832e-06
1.4657229e-06
1.4653512e-06
1.4649679e-06
1.4645727e-06
1.464165e-06
1.4637446e-06
1.463311e-06
1.4628637e-06
1.4624023e-06
1.4619264e-06
1.4614354e-06
1.4609288e-06
1.4604062e-06
1.4598669e-06
1.4593105e-06
1.4587364e-06
1.458144e-06
1.4575327e-06
1.4569018e-06
1.4562507e-06
1.4555787e-06
1.4548851e-06
1.4541693e-06
1.4534305e-06
1.4526678e-06
1.4518806e-06
1.451068e-06
1.4502292e-06
1.4493633e-06
1.4484693e-06
1.4475464e-06
1.4465934e-06
1.4456095e-06
1.4445934e-06
1.4435441e-06
1.4424605e-06
1.4413414e-06
1.4401855e-06
1.4389918e-06
1.4377588e-06
1.4364851e-06
1.4351693e-06
1.4338099e-06
1.4324053e-06
1.4309539e-06
1.4294541e-06
1.4279041e-06
1.4263021e-06
1.4246463e-06
1.4229348e-06
1.4211655e-06
1.4193363e-06
1.4174451e-06
1.4154896e-06
1.4134677e-06
1.4113767e-06
1.4092146e-06
1.4069767e-06
1.4046594e-06
1.4022527e-06
1.3997297e-06
1.3971113e-06
1.3942834e-06
1.39156e-06
1.3891835e-06
1.38837e-06
1.391434e-06
1.4096028e-06
1.4776629e-06
1.7557728e-06
2.5806248e-06
4.5621883e-06
7.625867e-06
1.1467896e-05
1.5573804e-05
1.9670445e-05
2.3734875e-05
2.7786791e-05
3.1825781e-05
3.5848869e-05
3.9852233e-05
4.38373e-05
4.7776473e-05
5.1799113e-05
5.5255808e-05
6.137002e-05
1.4709028e-06
1.4706958e-06
1.4704807e-06
1.4702583e-06
1.4700285e-06
1.4697913e-06
1.4695463e-06
1.4692934e-06
1.4690323e-06
1.4687629e-06
1.4684848e-06
1.4681979e-06
1.4679018e-06
1.4675964e-06
1.4672814e-06
1.4669565e-06
1.4666214e-06
1.4662759e-06
1.4659196e-06
1.4655521e-06
1.4651731e-06
1.4647823e-06
1.4643791e-06
1.4639633e-06
1.4635343e-06
1.4630918e-06
1.4626353e-06
1.4621643e-06
1.4616784e-06
1.4611771e-06
1.4606598e-06
1.4601261e-06
1.4595753e-06
1.459007e-06
1.4584205e-06
1.4578153e-06
1.4571907e-06
1.4565461e-06
1.4558809e-06
1.4551942e-06
1.4544856e-06
1.4537541e-06
1.4529991e-06
1.4522198e-06
1.4514153e-06
1.4505847e-06
1.4497273e-06
1.448842e-06
1.4479279e-06
1.446984e-06
1.4460094e-06
1.445003e-06
1.4439637e-06
1.4428903e-06
1.4417819e-06
1.4406369e-06
1.4394542e-06
1.4382324e-06
1.4369701e-06
1.435666e-06
1.4343185e-06
1.4329261e-06
1.4314873e-06
1.4300002e-06
1.4284634e-06
1.4268749e-06
1.4252328e-06
1.4235353e-06
1.4217804e-06
1.4199659e-06
1.4180897e-06
1.4161499e-06
1.4141434e-06
1.4120692e-06
1.4099217e-06
1.4076967e-06
1.4053774e-06
1.402968e-06
1.4003635e-06
1.3977268e-06
1.3953471e-06
1.3932446e-06
1.3944602e-06
1.4039585e-06
1.4458767e-06
1.6085796e-06
2.2377502e-06
3.8593711e-06
6.7896346e-06
1.07216e-05
1.5062496e-05
1.9422284e-05
2.3739276e-05
2.803989e-05
3.2327394e-05
3.6603862e-05
4.0840397e-05
4.5173305e-05
4.8907783e-05
5.5517387e-05
1.4719444e-06
1.4717624e-06
1.4715733e-06
1.4713779e-06
1.471176e-06
1.4709674e-06
1.4707522e-06
1.4705299e-06
1.4703005e-06
1.4700637e-06