/*--------------------------------*- C++ -*----------------------------------*\
  =========                 |
  \\      /  F ield         | OpenFOAM: The Open Source CFD Toolbox
   \\    /   O peration     | Website:  https://openfoam.org
    \\  /    A nd           | Version:  12
     \\/     M anipulation  |
\*---------------------------------------------------------------------------*/
FoamFile
{
    format      ascii;
    class       volScalarField;
    location    "2000";
    object      nuTilda;
}
// * * * * * * * * * * * * * * * * * * * * * * * * * * * * * * * * * * * * * //

dimensions      [0 2 -1 0 0 0 0];

internalField   nonuniform List<scalar> 
13056
(
1.9997622e-06
1.9997744e-06
1.9998432e-06
2.0000196e-06
2.0003026e-06
2.0006779e-06
2.0011282e-06
2.0016376e-06
2.0021924e-06
2.0027809e-06
2.0033934e-06
2.0040222e-06
2.004661e-06
2.0053056e-06
2.005953e-06
2.0066019e-06
2.0072523e-06
2.0079062e-06
2.0085648e-06
2.00924e-06
2.0099103e-06
2.0106528e-06
2.0110108e-06
2.0090504e-06
2.9939717e-08
2.195797e-08
2.082427e-08
2.0422515e-08
2.0162696e-08
1.9943552e-08
1.9748926e-08
1.9573752e-08
1.9414579e-08
1.9268523e-08
1.9133442e-08
1.9007772e-08
1.8890298e-08
1.8780028e-08
1.867613e-08
1.8577913e-08
1.8484791e-08
1.8396262e-08
1.8311884e-08
1.823127e-08
1.8154085e-08
1.8080025e-08
1.8008835e-08
1.794028e-08
1.7874142e-08
1.7810243e-08
1.7748412e-08
1.7688488e-08
1.7630336e-08
1.7573834e-08
1.751886e-08
1.7465306e-08
1.7413079e-08
1.7362093e-08
1.7312259e-08
1.7263499e-08
1.7215747e-08
1.7168941e-08
1.7123014e-08
1.7077904e-08
1.7033565e-08
1.6989949e-08
1.6947005e-08
1.6904684e-08
1.6862948e-08
1.6821761e-08
1.6781084e-08
1.6740878e-08
1.6701106e-08
1.6661742e-08
1.6622757e-08
1.6584117e-08
1.6545791e-08
1.6507751e-08
1.6469976e-08
1.6432439e-08
1.6395114e-08
1.635797e-08
1.6320988e-08
1.6284146e-08
1.6247421e-08
1.6210785e-08
1.6174213e-08
1.6137686e-08
1.6101184e-08
1.6064681e-08
1.6028151e-08
1.5991569e-08
1.5954915e-08
1.5918167e-08
1.5881295e-08
1.5844271e-08
1.5807072e-08
1.5769673e-08
1.5732044e-08
1.569415e-08
1.5655961e-08
1.5617448e-08
1.5578578e-08
1.5539308e-08
1.54996e-08
1.5459419e-08
1.5418721e-08
1.5377452e-08
1.5335566e-08
1.5293012e-08
1.5249729e-08
1.5205647e-08
1.5160713e-08
1.5115839e-08
1.5072453e-08
1.5030982e-08
1.4991284e-08
1.4953226e-08
1.4916682e-08
1.4881548e-08
1.4847728e-08
1.481513e-08
1.4783667e-08
1.4753268e-08
1.4723869e-08
1.4695406e-08
1.4667815e-08
1.4641037e-08
1.4615023e-08
1.4589699e-08
1.4565058e-08
1.4540822e-08
1.4517391e-08
1.4492993e-08
1.4471763e-08
1.4436271e-08
1.9997622e-06
1.9997744e-06
1.9998431e-06
2.0000195e-06
2.0003025e-06
2.0006778e-06
2.001128e-06
2.0016374e-06
2.0021921e-06
2.0027805e-06
2.003393e-06
2.0040217e-06
2.0046605e-06
2.005305e-06
2.0059523e-06
2.0066011e-06
2.0072515e-06
2.0079053e-06
2.0085639e-06
2.0092389e-06
2.0099091e-06
2.0106515e-06
2.0110098e-06
2.0090556e-06
8.7714112e-08
6.61701e-08
6.2773788e-08
6.1563773e-08
6.0781048e-08
6.0121256e-08
5.9535272e-08
5.9007763e-08
5.8528349e-08
5.8088384e-08
5.7681441e-08
5.7302821e-08
5.6948875e-08
5.6616614e-08
5.630354e-08
5.6007572e-08
5.5726948e-08
5.5460157e-08
5.5205867e-08
5.4962919e-08
5.4730297e-08
5.4507092e-08
5.4292531e-08
5.4085907e-08
5.388657e-08
5.3693974e-08
5.350761e-08
5.3326995e-08
5.3151718e-08
5.298141e-08
5.281571e-08
5.2654284e-08
5.2496861e-08
5.2343177e-08
5.2192964e-08
5.2045986e-08
5.1902049e-08
5.176096e-08
5.1622519e-08
5.1486542e-08
5.1352888e-08
5.1221413e-08
5.1091962e-08
5.0964392e-08
5.0838582e-08
5.0714425e-08
5.0591808e-08
5.047061e-08
5.0350721e-08
5.0232059e-08
5.0114538e-08
4.9998059e-08
4.9882525e-08
4.9767856e-08
4.9653982e-08
4.9540829e-08
4.942831e-08
4.931634e-08
4.9204856e-08
4.9093795e-08
4.8983085e-08
4.8872646e-08
4.8762398e-08
4.8652286e-08
4.8542248e-08
4.8432207e-08
4.8322084e-08
4.8211804e-08
4.8101308e-08
4.7990528e-08
4.7879377e-08
4.7767764e-08
4.7655624e-08
4.7542882e-08
4.7429444e-08
4.7315209e-08
4.7200084e-08
4.7083983e-08
4.6966802e-08
4.6848418e-08
4.6728715e-08
4.6607584e-08
4.6484892e-08
4.6360484e-08
4.6234212e-08
4.6105926e-08
4.5975444e-08
4.5842552e-08
4.570709e-08
4.5571812e-08
4.5441017e-08
4.5315994e-08
4.519632e-08
4.5081586e-08
4.4971418e-08
4.48655e-08
4.4763545e-08
4.4665271e-08
4.457042e-08
4.4478779e-08
4.439015e-08
4.4304341e-08
4.4221165e-08
4.4140436e-08
4.4062014e-08
4.3985669e-08
4.3911384e-08
4.3838324e-08
4.3767688e-08
4.3694143e-08
4.3630145e-08
4.3523145e-08
1.9997621e-06
1.9997742e-06
1.999843e-06
2.0000192e-06
2.0003021e-06
2.0006772e-06
2.0011273e-06
2.0016365e-06
2.002191e-06
2.0027793e-06
2.0033916e-06
2.00402e-06
2.0046587e-06
2.005303e-06
2.0059501e-06
2.0065987e-06
2.0072489e-06
2.0079024e-06
2.0085607e-06
2.0092355e-06
2.0099054e-06
2.0106473e-06
2.0110059e-06
2.0090578e-06
1.439164e-07
1.112797e-07
1.0563182e-07
1.0359858e-07
1.0228367e-07
1.0117612e-07
1.0019236e-07
9.9306445e-08
9.8501016e-08
9.7761675e-08
9.7077701e-08
9.6441242e-08
9.5846187e-08
9.5287531e-08
9.476109e-08
9.4263375e-08
9.3791433e-08
9.334273e-08
9.2915032e-08
9.2506391e-08
9.2115104e-08
9.1739644e-08
9.1378711e-08
9.1031121e-08
9.0695781e-08
9.0371774e-08
9.0058244e-08
8.9754381e-08
8.9459491e-08
8.9172957e-08
8.8894171e-08
8.8622574e-08
8.8357705e-08
8.8099125e-08
8.7846384e-08
8.7599082e-08
8.7356893e-08
8.7119495e-08
8.688655e-08
8.665775e-08
8.6432855e-08
8.6211626e-08
8.5993801e-08
8.5779139e-08
8.5567438e-08
8.5358517e-08
8.5152185e-08
8.4948241e-08
8.4746498e-08
8.4546819e-08
8.4349058e-08
8.415305e-08
8.3958633e-08
8.3765668e-08
8.3574041e-08
8.3383626e-08
8.3194278e-08
8.3005854e-08
8.2818246e-08
8.2631349e-08
8.2445042e-08
8.2259189e-08
8.2073659e-08
8.1888357e-08
8.1703178e-08
8.1517995e-08
8.1332671e-08
8.1147085e-08
8.0961133e-08
8.0774703e-08
8.0587647e-08
8.0399816e-08
8.0211094e-08
8.002136e-08
7.9830455e-08
7.9638208e-08
7.9444462e-08
7.9249073e-08
7.9051867e-08
7.8852636e-08
7.8651183e-08
7.8447327e-08
7.8240845e-08
7.8031473e-08
7.7818963e-08
7.7603065e-08
7.738347e-08
7.7159818e-08
7.6931841e-08
7.6704173e-08
7.6484049e-08
7.6273639e-08
7.6072231e-08
7.5879136e-08
7.5693726e-08
7.5515468e-08
7.534388e-08
7.5178486e-08
7.5018854e-08
7.4864623e-08
7.4715462e-08
7.4571046e-08
7.4431062e-08
7.4295197e-08
7.4163213e-08
7.4034726e-08
7.3909707e-08
7.3786752e-08
7.3667873e-08
7.3544125e-08
7.3436417e-08
7.3256332e-08
1.9997619e-06
1.999774e-06
1.9998427e-06
2.0000187e-06
2.0003013e-06
2.0006762e-06
2.001126e-06
2.0016349e-06
2.0021892e-06
2.0027771e-06
2.0033891e-06
2.0040173e-06
2.0046556e-06
2.0052995e-06
2.0059463e-06
2.0065946e-06
2.0072443e-06
2.0078975e-06
2.0085553e-06
2.0092296e-06
2.0098991e-06
2.0106399e-06
2.010999e-06
2.0090571e-06
1.9922445e-07
1.5789058e-07
1.5001662e-07
1.4713585e-07
1.4527408e-07
1.4370718e-07
1.4231497e-07
1.4106055e-07
1.3991946e-07
1.3887159e-07
1.3790192e-07
1.3699941e-07
1.3615546e-07
1.35363e-07
1.3461615e-07
1.3390996e-07
1.3324029e-07
1.3260353e-07
1.3199653e-07
1.3141655e-07
1.3086116e-07
1.3032821e-07
1.2981586e-07
1.2932242e-07
1.2884636e-07
1.2838637e-07
1.2794124e-07
1.2750982e-07
1.2709113e-07
1.2668429e-07
1.2628845e-07
1.259028e-07
1.255267e-07
1.2515952e-07
1.2480063e-07
1.2444946e-07
1.2410554e-07
1.2376842e-07
1.2343762e-07
1.231127e-07
1.2279332e-07
1.2247915e-07
1.221698e-07
1.2186495e-07
1.2156429e-07
1.2126758e-07
1.2097455e-07
1.206849e-07
1.2039838e-07
1.2011479e-07
1.1983392e-07
1.1955554e-07
1.1927941e-07
1.1900535e-07
1.1873318e-07
1.1846274e-07
1.181938e-07
1.1792618e-07
1.1765972e-07
1.1739426e-07
1.1712964e-07
1.1686567e-07
1.1660215e-07
1.1633895e-07
1.1607593e-07
1.158129e-07
1.1554967e-07
1.1528607e-07
1.1502194e-07
1.1475714e-07
1.1449144e-07
1.1422464e-07
1.1395658e-07
1.1368708e-07
1.1341591e-07
1.1314284e-07
1.1286763e-07
1.125901e-07
1.1230997e-07
1.1202698e-07
1.1174082e-07
1.1145125e-07
1.1115795e-07
1.1086055e-07
1.1055868e-07
1.10252e-07
1.0994007e-07
1.0962238e-07
1.0929854e-07
1.0897514e-07
1.0866245e-07
1.0836356e-07
1.0807746e-07
1.0780317e-07
1.0753979e-07
1.0728657e-07
1.0704283e-07
1.0680788e-07
1.0658112e-07
1.0636203e-07
1.0615015e-07
1.05945e-07
1.0574615e-07
1.0555315e-07
1.0536566e-07
1.0518315e-07
1.0500556e-07
1.048309e-07
1.0466204e-07
1.0448629e-07
1.043333e-07
1.0407747e-07
1.9997616e-06
1.9997737e-06
1.9998422e-06
2.000018e-06
2.0003003e-06
2.0006747e-06
2.0011241e-06
2.0016326e-06
2.0021865e-06
2.002774e-06
2.0033855e-06
2.0040132e-06
2.0046511e-06
2.0052945e-06
2.0059408e-06
2.0065885e-06
2.0072377e-06
2.0078903e-06
2.0085475e-06
2.009221e-06
2.0098899e-06
2.0106293e-06
2.0109889e-06
2.0090534e-06
2.5418015e-07
2.0659657e-07
1.9655712e-07
1.9279898e-07
1.9037179e-07
1.8833044e-07
1.8651559e-07
1.8487894e-07
1.8338898e-07
1.8201997e-07
1.8075259e-07
1.7957261e-07
1.7846889e-07
1.7743228e-07
1.7645513e-07
1.7553105e-07
1.7465461e-07
1.7382116e-07
1.7302658e-07
1.7226729e-07
1.7154013e-07
1.7084231e-07
1.701714e-07
1.6952523e-07
1.6890178e-07
1.6829934e-07
1.6771634e-07
1.6715128e-07
1.6660286e-07
1.6606995e-07
1.6555143e-07
1.6504625e-07
1.6455356e-07
1.6407254e-07
1.6360237e-07
1.631423e-07
1.6269173e-07
1.6225005e-07
1.6181664e-07
1.6139093e-07
1.6097248e-07
1.6056083e-07
1.6015551e-07
1.5975606e-07
1.5936212e-07
1.5897333e-07
1.5858936e-07
1.5820982e-07
1.5783438e-07
1.5746277e-07
1.5709471e-07
1.5672992e-07
1.5636808e-07
1.5600894e-07
1.5565228e-07
1.5529788e-07
1.5494545e-07
1.5459474e-07
1.5424554e-07
1.5389766e-07
1.5355088e-07
1.5320494e-07
1.5285959e-07
1.5251467e-07
1.5216997e-07
1.5182525e-07
1.5148028e-07
1.5113481e-07
1.5078865e-07
1.5044161e-07
1.5009339e-07
1.4974373e-07
1.4939241e-07
1.490392e-07
1.486838e-07
1.4832591e-07
1.4796522e-07
1.4760147e-07
1.4723433e-07
1.4686343e-07
1.4648838e-07
1.4610885e-07
1.4572444e-07
1.4533464e-07
1.4493899e-07
1.4453704e-07
1.441282e-07
1.437118e-07
1.4328735e-07
1.4286346e-07
1.4245362e-07
1.4206187e-07
1.4168688e-07
1.4132736e-07
1.4098214e-07
1.4065025e-07
1.4033076e-07
1.4002282e-07
1.3972559e-07
1.3943843e-07
1.391607e-07
1.3889181e-07
1.3863117e-07
1.383782e-07
1.3813245e-07
1.3789323e-07
1.3766045e-07
1.3743154e-07
1.3721021e-07
1.3697992e-07
1.3677939e-07
1.3644405e-07
1.9997613e-06
1.9997733e-06
1.9998416e-06
2.000017e-06
2.0002988e-06
2.0006728e-06
2.0011217e-06
2.0016296e-06
2.0021829e-06
2.0027698e-06
2.0033808e-06
2.0040079e-06
2.004645e-06
2.0052878e-06
2.0059335e-06
2.0065804e-06
2.0072289e-06
2.0078806e-06
2.008537e-06
2.0092095e-06
2.0098775e-06
2.010615e-06
2.0109755e-06
2.0090468e-06
3.0918865e-07
2.5796053e-07
2.4589045e-07
2.4122845e-07
2.3821634e-07
2.3568389e-07
2.3343001e-07
2.3139476e-07
2.2953984e-07
2.2783406e-07
2.2625396e-07
2.2478213e-07
2.2340487e-07
2.2211094e-07
2.2089089e-07
2.1973683e-07
2.1864205e-07
2.176008e-07
2.1660795e-07
2.1565907e-07
2.1475025e-07
2.13878e-07
2.1303931e-07
2.1223148e-07
2.1145199e-07
2.1069873e-07
2.0996971e-07
2.0926309e-07
2.0857726e-07
2.0791077e-07
2.0726225e-07
2.066304e-07
2.0601414e-07
2.0541246e-07
2.0482433e-07
2.0424882e-07
2.0368516e-07
2.0313262e-07
2.0259041e-07
2.0205783e-07
2.015343e-07
2.0101928e-07
2.0051216e-07
2.0001239e-07
1.9951949e-07
1.9903303e-07
1.9855259e-07
1.9807769e-07
1.9760791e-07
1.9714291e-07
1.9668236e-07
1.9622588e-07
1.957731e-07
1.9532368e-07
1.9487737e-07
1.9443386e-07
1.9399284e-07
1.9355395e-07
1.9311696e-07
1.9268161e-07
1.9224762e-07
1.9181468e-07
1.9138249e-07
1.9095082e-07
1.9051943e-07
1.9008801e-07
1.8965627e-07
1.8922391e-07
1.8879068e-07
1.8835633e-07
1.8792052e-07
1.874829e-07
1.8704319e-07
1.8660112e-07
1.8615631e-07
1.8570837e-07
1.8525693e-07
1.8480165e-07
1.8434213e-07
1.8387789e-07
1.8340847e-07
1.8293344e-07
1.8245228e-07
1.8196438e-07
1.8146917e-07
1.8096605e-07
1.8045431e-07
1.7993311e-07
1.7940183e-07
1.7887125e-07
1.7835826e-07
1.7786789e-07
1.773985e-07
1.7694849e-07
1.7651637e-07
1.7610093e-07
1.7570102e-07
1.7531555e-07
1.7494351e-07
1.7458405e-07
1.742364e-07
1.7389982e-07
1.7357356e-07
1.7325691e-07
1.729493e-07
1.7264985e-07
1.7235848e-07
1.7207196e-07
1.717949e-07
1.7150675e-07
1.7125574e-07
1.7083594e-07
1.9997608e-06
1.9997728e-06
1.9998409e-06
2.0000158e-06
2.000297e-06
2.0006703e-06
2.0011185e-06
2.0016257e-06
2.0021783e-06
2.0027645e-06
2.0033746e-06
2.0040009e-06
2.0046373e-06
2.0052793e-06
2.005924e-06
2.00657e-06
2.0072175e-06
2.0078682e-06
2.0085235e-06
2.0091948e-06
2.0098617e-06
2.0105966e-06
2.0109585e-06
2.0090371e-06
3.6452216e-07
3.1247841e-07
2.9865343e-07
2.9308115e-07
2.8946935e-07
2.8643122e-07
2.8372218e-07
2.8127106e-07
2.7903339e-07
2.7697315e-07
2.7506298e-07
2.7328243e-07
2.7161537e-07
2.700484e-07
2.6857032e-07
2.6717173e-07
2.6584461e-07
2.6458205e-07
2.6337794e-07
2.6222693e-07
2.6112433e-07
2.6006593e-07
2.5904814e-07
2.5806766e-07
2.571215e-07
2.5620707e-07
2.55322e-07
2.5446405e-07
2.5363128e-07
2.5282194e-07
2.5203438e-07
2.5126701e-07
2.5051854e-07
2.4978773e-07
2.4907335e-07
2.4837427e-07
2.4768956e-07
2.4701833e-07
2.4635963e-07
2.457126e-07
2.4507654e-07
2.444508e-07
2.4383466e-07
2.4322742e-07
2.4262851e-07
2.4203742e-07
2.4145362e-07
2.4087655e-07
2.4030568e-07
2.3974062e-07
2.3918095e-07
2.3862621e-07
2.3807596e-07
2.375298e-07
2.3698739e-07
2.3644839e-07
2.3591239e-07
2.3537899e-07
2.3484787e-07
2.3431875e-07
2.3379128e-07
2.3326508e-07
2.3273978e-07
2.3221511e-07
2.3169076e-07
2.3116639e-07
2.3064161e-07
2.3011607e-07
2.2958948e-07
2.2906152e-07
2.2853177e-07
2.2799982e-07
2.2746533e-07
2.2692796e-07
2.2638726e-07
2.2584275e-07
2.2529398e-07
2.2474054e-07
2.2418194e-07
2.236176e-07
2.2304695e-07
2.2246948e-07
2.2188455e-07
2.2129144e-07
2.2068942e-07
2.2007778e-07
2.1945567e-07
2.1882205e-07
2.1817616e-07
2.1753113e-07
2.1690747e-07
2.1631132e-07
2.1574067e-07
2.1519356e-07
2.1466823e-07
2.1416315e-07
2.1367696e-07
2.1320832e-07
2.12756e-07
2.1231898e-07
2.1189633e-07
2.1148712e-07
2.1109047e-07
2.1070549e-07
2.103315e-07
2.0996744e-07
2.096132e-07
2.0926489e-07
2.0892806e-07
2.0857785e-07
2.082727e-07
2.0776228e-07
1.9997603e-06
1.9997722e-06
1.9998399e-06
2.0000143e-06
2.0002947e-06
2.0006672e-06
2.0011145e-06
2.0016209e-06
2.0021725e-06
2.0027578e-06
2.003367e-06
2.0039923e-06
2.0046277e-06
2.0052686e-06
2.0059122e-06
2.0065571e-06
2.0072033e-06
2.0078528e-06
2.0085067e-06
2.0091765e-06
2.0098419e-06
2.0105737e-06
2.0109377e-06
2.0090244e-06
4.2032432e-07
3.7051774e-07
3.5546338e-07
3.4902358e-07
3.4481255e-07
3.4126274e-07
3.3808719e-07
3.3520513e-07
3.3256757e-07
3.3013472e-07
3.2787604e-07
3.2576844e-07
3.2379349e-07
3.2193583e-07
3.2018253e-07
3.1852271e-07
3.1694706e-07
3.1544753e-07
3.1401697e-07
3.1264913e-07
3.113385e-07
3.1008015e-07
3.0886984e-07
3.0770372e-07
3.0657823e-07
3.0549034e-07
3.0443725e-07
3.0341632e-07
3.0242523e-07
3.0146195e-07
3.0052449e-07
2.9961101e-07
2.9871995e-07
2.9784986e-07
2.9699928e-07
2.9616686e-07
2.953515e-07
2.9455215e-07
2.9376769e-07
2.9299709e-07
2.9223953e-07
2.9149422e-07
2.9076031e-07
2.9003699e-07
2.8932356e-07
2.8861943e-07
2.8792396e-07
2.8723648e-07
2.8655638e-07
2.8588316e-07
2.8521636e-07
2.8455542e-07
2.8389982e-07
2.8324906e-07
2.8260277e-07
2.8196052e-07
2.8132184e-07
2.8068624e-07
2.8005336e-07
2.7942283e-07
2.7879427e-07
2.7816721e-07
2.7754122e-07
2.7691595e-07
2.7629107e-07
2.7566616e-07
2.7504074e-07
2.7441442e-07
2.7378683e-07
2.731576e-07
2.7252624e-07
2.7189224e-07
2.7125521e-07
2.7061473e-07
2.6997028e-07
2.6932128e-07
2.686672e-07
2.6800755e-07
2.6734174e-07
2.6666908e-07
2.659889e-07
2.6530057e-07
2.6460336e-07
2.6389638e-07
2.6317877e-07
2.6244971e-07
2.6170814e-07
2.6095285e-07
2.6018293e-07
2.5941403e-07
2.5867059e-07
2.5795995e-07
2.572797e-07
2.5662751e-07
2.5600126e-07
2.5539917e-07
2.5481958e-07
2.5426092e-07
2.5372171e-07
2.5320074e-07
2.5269689e-07
2.5220907e-07
2.5173621e-07
2.5127727e-07
2.5083145e-07
2.5039745e-07
2.4997516e-07
2.4955996e-07
2.4915843e-07
2.4874111e-07
2.4837737e-07
2.4776881e-07
1.9997596e-06
1.9997714e-06
1.9998388e-06
2.0000124e-06
2.000292e-06
2.0006634e-06
2.0011097e-06
2.001615e-06
2.0021655e-06
2.0027496e-06
2.0033577e-06
2.0039818e-06
2.0046159e-06
2.0052555e-06
2.0058978e-06
2.0065412e-06
2.007186e-06
2.0078339e-06
2.0084861e-06
2.0091541e-06
2.0098178e-06
2.0105458e-06
2.0109129e-06
2.0090087e-06
4.7661879e-07
4.3223093e-07
4.1687897e-07
4.0971365e-07
4.0493845e-07
4.0089129e-07
3.9725072e-07
3.9393066e-07
3.9088081e-07
3.8805988e-07
3.8543551e-07
3.8298279e-07
3.806815e-07
3.7851462e-07
3.7646769e-07
3.7452848e-07
3.7268649e-07
3.7093256e-07
3.6925854e-07
3.6765726e-07
3.6612243e-07
3.6464837e-07
3.6323019e-07
3.6186345e-07
3.6054405e-07
3.5926845e-07
3.5803345e-07
3.5683597e-07
3.5567332e-07
3.5454313e-07
3.5344311e-07
3.5237109e-07
3.5132528e-07
3.5030397e-07
3.4930547e-07
3.4832823e-07
3.4737092e-07
3.4643234e-07
3.4551118e-07
3.4460625e-07
3.4371657e-07
3.4284123e-07
3.4197923e-07
3.4112963e-07
3.4029161e-07
3.3946446e-07
3.3864746e-07
3.3783981e-07
3.370408e-07
3.3624986e-07
3.3546642e-07
3.3468984e-07
3.3391951e-07
3.3315486e-07
3.3239542e-07
3.3164071e-07
3.3089018e-07
3.3014326e-07
3.2939951e-07
3.2865851e-07
3.279198e-07
3.2718285e-07
3.2644713e-07
3.2571225e-07
3.2497782e-07
3.2424332e-07
3.2350823e-07
3.2277206e-07
3.2203438e-07
3.2129477e-07
3.2055264e-07
3.198074e-07
3.1905858e-07
3.183057e-07
3.1754815e-07
3.1678524e-07
3.1601634e-07
3.1524088e-07
3.1445817e-07
3.136674e-07
3.1286778e-07
3.1205858e-07
3.1123893e-07
3.1040777e-07
3.0956412e-07
3.0870699e-07
3.0783515e-07
3.0694717e-07
3.0604198e-07
3.0513798e-07
3.0426391e-07
3.0342839e-07
3.0262859e-07
3.0186179e-07
3.0112549e-07
3.0041757e-07
2.9973612e-07
2.9907926e-07
2.9844528e-07
2.9783273e-07
2.9724031e-07
2.9666674e-07
2.9611077e-07
2.9557115e-07
2.9504696e-07
2.9453667e-07
2.9404016e-07
2.9355202e-07
2.9307991e-07
2.9258946e-07
2.9216183e-07
2.9144618e-07
1.9997588e-06
1.9997705e-06
1.9998374e-06
2.0000102e-06
2.0002886e-06
2.0006589e-06
2.0011039e-06
2.0016079e-06
2.0021571e-06
2.0027398e-06
2.0033464e-06
2.0039691e-06
2.0046016e-06
2.0052397e-06
2.0058803e-06
2.0065221e-06
2.0071651e-06
2.0078111e-06
2.0084614e-06
2.0091271e-06
2.0097887e-06
2.0105121e-06
2.0108838e-06
2.0089901e-06
5.3332703e-07
4.9746281e-07
4.8333143e-07
4.7576326e-07
4.7052758e-07
4.6603856e-07
4.6196174e-07
4.5821493e-07
4.5475281e-07
4.5153672e-07
4.485351e-07
4.4572288e-07
4.4307909e-07
4.4058569e-07
4.3822719e-07
4.3599034e-07
4.3386364e-07
4.3183699e-07
4.2990135e-07
4.2804871e-07
4.2627201e-07
4.2456487e-07
4.2292177e-07
4.2133769e-07
4.1980798e-07
4.1832863e-07
4.1689597e-07
4.1550651e-07
4.1415717e-07
4.1284523e-07
4.1156809e-07
4.1032326e-07
4.0910866e-07
4.0792235e-07
4.067624e-07
4.0562699e-07
4.0451463e-07
4.034239e-07
4.0235332e-07
4.0130151e-07
4.0026734e-07
3.9924974e-07
3.9824759e-07
3.9725978e-07
3.9628538e-07
3.9532355e-07
3.9437346e-07
3.9343422e-07
3.9250496e-07
3.9158503e-07
3.9067379e-07
3.897705e-07
3.8887443e-07
3.8798493e-07
3.8710147e-07
3.8622347e-07
3.8535031e-07
3.8448132e-07
3.8361599e-07
3.8275383e-07
3.8189431e-07
3.8103681e-07
3.8018073e-07
3.7932561e-07
3.7847098e-07
3.7761625e-07
3.7676083e-07
3.7590412e-07
3.7504564e-07
3.7418489e-07
3.733212e-07
3.7245388e-07
3.7158237e-07
3.7070612e-07
3.6982441e-07
3.6893646e-07
3.6804153e-07
3.6713894e-07
3.6622791e-07
3.6530748e-07
3.6437674e-07
3.6343483e-07
3.6248074e-07
3.6151325e-07
3.6053121e-07
3.5953346e-07
3.5851858e-07
3.574849e-07
3.5643118e-07
3.5537883e-07
3.5436131e-07
3.5338867e-07
3.524576e-07
3.5156493e-07
3.5070777e-07
3.4988364e-07
3.4909033e-07
3.4832564e-07
3.4758758e-07
3.4687447e-07
3.4618479e-07
3.4551705e-07
3.4486979e-07
3.4424159e-07
3.4363133e-07
3.4303728e-07
3.4245926e-07
3.4189103e-07
3.4134143e-07
3.4077074e-07
3.4027299e-07
3.3943968e-07
1.9997578e-06
1.9997694e-06
1.9998358e-06
2.0000075e-06
2.0002847e-06
2.0006535e-06
2.001097e-06
2.0015994e-06
2.002147e-06
2.0027281e-06
2.003333e-06
2.0039539e-06
2.0045847e-06
2.0052209e-06
2.0058596e-06
2.0064993e-06
2.0071402e-06
2.007784e-06
2.0084319e-06
2.0090949e-06
2.0097541e-06
2.0104719e-06
2.01085e-06
2.0089689e-06
5.9026291e-07
5.6575199e-07
5.5502429e-07
5.4766974e-07
5.422015e-07
5.3740228e-07
5.3297017e-07
5.2884467e-07
5.2499659e-07
5.2139728e-07
5.1802075e-07
5.1484485e-07
5.1184986e-07
5.0901807e-07
5.063339e-07
5.0378378e-07
5.0135571e-07
4.9903898e-07
4.9682392e-07
4.9470188e-07
4.9266517e-07
4.9070681e-07
4.8882073e-07
4.8700138e-07
4.8524362e-07
4.8354296e-07
4.818953e-07
4.8029676e-07
4.7874387e-07
4.7723357e-07
4.7576292e-07
4.7432914e-07
4.7292984e-07
4.7156285e-07
4.7022598e-07
4.6891717e-07
4.6763469e-07
4.6637697e-07
4.6514232e-07
4.6392915e-07
4.6273617e-07
4.6156218e-07
4.6040589e-07
4.5926603e-07
4.5814153e-07
4.5703145e-07
4.5593483e-07
4.5485064e-07
4.537779e-07
4.5271586e-07
4.5166377e-07
4.506208e-07
4.4958611e-07
4.4855896e-07
4.4753871e-07
4.4652473e-07
4.4551629e-07
4.4451263e-07
4.4351314e-07
4.4251728e-07
4.4152443e-07
4.4053389e-07
4.3954495e-07
4.3855707e-07
4.3756973e-07
4.3658227e-07
4.3559396e-07
4.3460414e-07
4.3361226e-07
4.3261772e-07
4.3161976e-07
4.3061759e-07
4.2961055e-07
4.2859802e-07
4.2757916e-07
4.2655307e-07
4.2551889e-07
4.2447585e-07
4.2342302e-07
4.2235933e-07
4.212837e-07
4.2019515e-07
4.190925e-07
4.1797437e-07
4.168394e-07
4.1568625e-07
4.145133e-07
4.1331861e-07
4.1210075e-07
4.1088444e-07
4.097084e-07
4.0858421e-07
4.0750806e-07
4.064763e-07
4.0548557e-07
4.0453302e-07
4.0361608e-07
4.0273222e-07
4.0187914e-07
4.010549e-07
4.0025773e-07
3.9948592e-07
3.987378e-07
3.9801169e-07
3.9730633e-07
3.9661972e-07
3.9595163e-07
3.9529491e-07
3.9465969e-07
3.9400042e-07
3.9342523e-07
3.9246184e-07
1.9997567e-06
1.9997681e-06
1.9998338e-06
2.0000043e-06
2.00028e-06
2.0006471e-06
2.0010888e-06
2.0015894e-06
2.002135e-06
2.0027142e-06
2.0033171e-06
2.0039359e-06
2.0045646e-06
2.0051985e-06
2.005835e-06
2.0064723e-06
2.0071107e-06
2.0077519e-06
2.0083969e-06
2.0090568e-06
2.0097131e-06
2.0104244e-06
2.0108114e-06
2.0089454e-06
6.4711428e-07
6.3641223e-07
6.31827e-07
6.2570987e-07
6.2043801e-07
6.1558876e-07
6.1097413e-07
6.0658553e-07
6.0242822e-07
5.9849574e-07
5.9477584e-07
5.9125464e-07
5.8791728e-07
5.8474891e-07
5.8173564e-07
5.7886491e-07
5.7612521e-07
5.7350597e-07
5.7099741e-07
5.6859064e-07
5.6627768e-07
5.6405121e-07
5.6190477e-07
5.5983247e-07
5.5782876e-07
5.5588876e-07
5.5400805e-07
5.5218238e-07
5.5040793e-07
5.4868134e-07
5.4699937e-07
5.4535895e-07
5.437574e-07
5.4219231e-07
5.4066126e-07
5.3916194e-07
5.3769242e-07
5.3625091e-07
5.3483555e-07
5.3344454e-07
5.3207641e-07
5.3072982e-07
5.2940332e-07
5.2809549e-07
5.268051e-07
5.2553107e-07
5.2427233e-07
5.2302773e-07
5.2179614e-07
5.205767e-07
5.1936857e-07
5.1817081e-07
5.1698247e-07
5.1580268e-07
5.1463073e-07
5.134659e-07
5.1230736e-07
5.1115424e-07
5.1000584e-07
5.0886154e-07
5.0772064e-07
5.0658234e-07
5.0544583e-07
5.043105e-07
5.0317572e-07
5.0204075e-07
5.0090478e-07
4.9976703e-07
4.9862687e-07
4.974836e-07
4.9633639e-07
4.9518429e-07
4.9402657e-07
4.928625e-07
4.9169113e-07
4.9051142e-07
4.8932238e-07
4.8812312e-07
4.869126e-07
4.8568956e-07
4.8445277e-07
4.8320111e-07
4.8193322e-07
4.806475e-07
4.7934241e-07
4.780164e-07
4.766676e-07
4.7529381e-07
4.7389334e-07
4.7249465e-07
4.7114225e-07
4.6984949e-07
4.6861196e-07
4.6742547e-07
4.6628617e-07
4.6519076e-07
4.641363e-07
4.6311989e-07
4.6213887e-07
4.6119101e-07
4.602743e-07
4.5938674e-07
4.5852643e-07
4.5769144e-07
4.5688031e-07
4.5609075e-07
4.5532251e-07
4.5456742e-07
4.5383698e-07
4.5307933e-07
4.524181e-07
4.5130995e-07
1.9997554e-06
1.9997666e-06
1.9998316e-06
2.0000007e-06
2.0002745e-06
2.0006396e-06
2.0010792e-06
2.0015776e-06
2.002121e-06
2.0026979e-06
2.0032984e-06
2.0039148e-06
2.0045409e-06
2.0051723e-06
2.005806e-06
2.0064406e-06
2.0070761e-06
2.0077141e-06
2.0083559e-06
2.009012e-06
2.009665e-06
2.0103686e-06
2.0107677e-06
2.0089203e-06
7.0345137e-07
7.0859276e-07
7.132297e-07
7.0982327e-07
7.0545225e-07
7.01002e-07
6.9652042e-07
6.9209518e-07
6.8779222e-07
6.8364523e-07
6.7966815e-07
6.7586399e-07
6.722287e-07
6.6875451e-07
6.6543239e-07
6.6225315e-07
6.5920755e-07
6.5628649e-07
6.5348113e-07
6.5078319e-07
6.48185e-07
6.4567944e-07
6.4326004e-07
6.4092088e-07
6.3865631e-07
6.3646126e-07
6.3433113e-07
6.3226145e-07
6.3024817e-07
6.2828772e-07
6.2637664e-07
6.245116e-07
6.2268972e-07
6.2090839e-07
6.1916497e-07
6.1745693e-07
6.1578215e-07
6.1413867e-07
6.1252445e-07
6.1093751e-07
6.0937619e-07
6.0783901e-07
6.0632438e-07
6.0483072e-07
6.0335663e-07
6.0190093e-07
6.0046241e-07
5.9903979e-07
5.9763182e-07
5.9623749e-07
5.9485588e-07
5.9348595e-07
5.921266e-07
5.9077687e-07
5.8943595e-07
5.8810302e-07
5.8677714e-07
5.8545735e-07
5.8414285e-07
5.8283291e-07
5.8152675e-07
5.8022347e-07
5.7892215e-07
5.7762208e-07
5.7632255e-07
5.7502274e-07
5.737217e-07
5.7241855e-07
5.7111256e-07
5.6980297e-07
5.6848878e-07
5.6716895e-07
5.6584262e-07
5.6450896e-07
5.6316689e-07
5.6181522e-07
5.6045282e-07
5.5907867e-07
5.5769158e-07
5.5629011e-07
5.5487285e-07
5.5343851e-07
5.5198555e-07
5.5051214e-07
5.490165e-07
5.4749686e-07
5.4595109e-07
5.4437666e-07
5.4277164e-07
5.4116865e-07
5.396187e-07
5.381371e-07
5.3671879e-07
5.3535898e-07
5.3405324e-07
5.3279782e-07
5.3158933e-07
5.3042445e-07
5.2930013e-07
5.2821383e-07
5.2716322e-07
5.2614603e-07
5.2516007e-07
5.2420315e-07
5.2327358e-07
5.2236875e-07
5.2148836e-07
5.2062314e-07
5.1978612e-07
5.1891843e-07
5.1816097e-07
5.1689061e-07
1.9997538e-06
1.9997648e-06
1.9998289e-06
1.9999964e-06
2.0002681e-06
2.0006309e-06
2.001068e-06
2.0015638e-06
2.0021046e-06
2.0026788e-06
2.0032765e-06
2.0038901e-06
2.0045133e-06
2.0051416e-06
2.0057722e-06
2.0064035e-06
2.0070356e-06
2.00767e-06
2.0083079e-06
2.0089598e-06
2.0096088e-06
2.0103034e-06
2.0107191e-06
2.0088946e-06
7.587399e-07
7.8131527e-07
7.9841465e-07
7.9956667e-07
7.9710289e-07
7.9372689e-07
7.8987805e-07
7.8579557e-07
7.8163763e-07
7.7750037e-07
7.7344032e-07
7.6948925e-07
7.6566247e-07
7.6196559e-07
7.5839926e-07
7.5496137e-07
7.5164781e-07
7.4845322e-07
7.4537146e-07
7.4239624e-07
7.3952139e-07
7.3674085e-07
7.3404893e-07
7.3144031e-07
7.2890968e-07
7.2645222e-07
7.2406349e-07
7.2173911e-07
7.1947502e-07
7.1726762e-07
7.1511343e-07
7.1300901e-07
7.1095135e-07
7.0893775e-07
7.0696548e-07
7.0503184e-07
7.0313456e-07
7.0127158e-07
6.9944074e-07
6.9763987e-07
6.958672e-07
6.9412112e-07
6.9239992e-07
6.9070187e-07
6.8902544e-07
6.8736933e-07
6.8573223e-07
6.8411274e-07
6.8250946e-07
6.8092127e-07
6.7934716e-07
6.7778598e-07
6.7623653e-07
6.7469771e-07
6.7316861e-07
6.7164833e-07
6.7013585e-07
6.6863005e-07
6.6713003e-07
6.6563499e-07
6.6414406e-07
6.6265622e-07
6.6117043e-07
6.5968587e-07
6.5820177e-07
6.5671718e-07
6.5523104e-07
6.5374235e-07
6.5225027e-07
6.5075394e-07
6.4925224e-07
6.4774399e-07
6.4622819e-07
6.4470389e-07
6.431699e-07
6.4162484e-07
6.4006743e-07
6.3849648e-07
6.3691067e-07
6.3530835e-07
6.336879e-07
6.3204785e-07
6.3038645e-07
6.2870161e-07
6.269913e-07
6.2525349e-07
6.2348575e-07
6.216852e-07
6.1984963e-07
6.1801633e-07
6.1624368e-07
6.1454918e-07
6.1292705e-07
6.1137182e-07
6.0987844e-07
6.0844259e-07
6.0706041e-07
6.0572812e-07
6.0444223e-07
6.0319981e-07
6.0199822e-07
6.0083486e-07
5.9970724e-07
5.9861283e-07
5.9754972e-07
5.9651493e-07
5.955081e-07
5.9451875e-07
5.9356158e-07
5.9256999e-07
5.9170419e-07
5.9025079e-07
1.999752e-06
1.9997627e-06
1.9998259e-06
1.9999914e-06
2.0002607e-06
2.0006207e-06
2.001055e-06
2.0015478e-06
2.0020856e-06
2.0026566e-06
2.0032511e-06
2.0038613e-06
2.0044811e-06
2.0051059e-06
2.0057329e-06
2.0063604e-06
2.0069884e-06
2.0076186e-06
2.0082521e-06
2.008899e-06
2.0095435e-06
2.0102277e-06
2.0106655e-06
2.0088696e-06
8.1235271e-07
8.5349879e-07
8.8637488e-07
8.9420028e-07
8.9491832e-07
8.9350688e-07
8.9097812e-07
8.8778533e-07
8.8421162e-07
8.8043897e-07
8.7658461e-07
8.7272285e-07
8.6889871e-07
8.651391e-07
8.6146058e-07
8.5787309e-07
8.5438168e-07
8.5098787e-07
8.4769082e-07
8.4448831e-07
8.413774e-07
8.3835453e-07
8.3541598e-07
8.3255797e-07
8.2977642e-07
8.2706741e-07
8.2442727e-07
8.2185218e-07
8.193385e-07
8.1688295e-07
8.1448233e-07
8.1213336e-07
8.0983314e-07
8.0757908e-07
8.0536848e-07
8.0319866e-07
8.0106732e-07
7.989724e-07
7.969117e-07
7.9488299e-07
7.9288441e-07
7.9091431e-07
7.8897092e-07
7.870524e-07
7.8515714e-07
7.8328374e-07
7.8143083e-07
7.7959692e-07
7.7778048e-07
7.7598031e-07
7.7419533e-07
7.7242429e-07
7.7066588e-07
7.689189e-07
7.6718235e-07
7.6545525e-07
7.6373648e-07
7.6202481e-07
7.6031923e-07
7.5861885e-07
7.5692272e-07
7.552297e-07
7.5353864e-07
7.518486e-07
7.5015873e-07
7.4846797e-07
7.4677514e-07
7.450791e-07
7.4337891e-07
7.4167358e-07
7.3996188e-07
7.3824246e-07
7.3651419e-07
7.3477599e-07
7.3302652e-07
7.3126421e-07
7.2948761e-07
7.2769537e-07
7.2588597e-07
7.2405756e-07
7.2220829e-07
7.2033648e-07
7.1844015e-07
7.1651691e-07
7.1456444e-07
7.1258044e-07
7.1056214e-07
7.0850626e-07
7.0641026e-07
7.0431674e-07
7.0229239e-07
7.0035719e-07
6.985046e-07
6.9672836e-07
6.9502271e-07
6.9338274e-07
6.9180402e-07
6.9028228e-07
6.8881351e-07
6.8739438e-07
6.8602187e-07
6.8469303e-07
6.83405e-07
6.8215493e-07
6.809406e-07
6.7975864e-07
6.7860864e-07
6.7747875e-07
6.7638552e-07
6.7525381e-07
6.7426546e-07
6.7260453e-07
1.9997498e-06
1.9997603e-06
1.9998224e-06
1.9999857e-06
2.0002521e-06
2.000609e-06
2.00104e-06
2.0015293e-06
2.0020635e-06
2.0026309e-06
2.0032217e-06
2.003828e-06
2.0044438e-06
2.0050646e-06
2.0056873e-06
2.0063104e-06
2.0069338e-06
2.0075592e-06
2.0081876e-06
2.0088288e-06
2.0094679e-06
2.0101402e-06
2.0106072e-06
2.0088472e-06
8.6357647e-07
9.2399129e-07
9.7597364e-07
9.9283425e-07
9.9823813e-07
9.9986178e-07
9.9950061e-07
9.9789416e-07
9.9548374e-07
9.9255983e-07
9.8931826e-07
9.8588996e-07
9.8236062e-07
9.7878707e-07
9.7520876e-07
9.7165347e-07
9.6814011e-07
9.6468097e-07
9.6128371e-07
9.5795288e-07
9.5469099e-07
9.5149892e-07
9.4837651e-07
9.4532288e-07
9.4233632e-07
9.3941482e-07
9.3655628e-07
9.337582e-07
9.3101796e-07
9.2833317e-07
9.2570135e-07
9.231198e-07
9.2058608e-07
9.1809799e-07
9.1565318e-07
9.1324919e-07
9.1088391e-07
9.0855545e-07
9.0626176e-07
9.0400067e-07
9.0177037e-07
8.9956927e-07
8.9739564e-07
8.9524765e-07
8.9312363e-07
8.9102219e-07