/*--------------------------------*- C++ -*----------------------------------*\
  =========                 |
  \\      /  F ield         | OpenFOAM: The Open Source CFD Toolbox
   \\    /   O peration     | Website:  https://openfoam.org
    \\  /    A nd           | Version:  12
     \\/     M anipulation  |
\*---------------------------------------------------------------------------*/
FoamFile
{
    format      ascii;
    class       volScalarField;
    location    "2000";
    object      p;
}
// * * * * * * * * * * * * * * * * * * * * * * * * * * * * * * * * * * * * * //

dimensions      [0 2 -2 0 0 0 0];

internalField   nonuniform List<scalar> 
7480
(
0.008717086
0.0081282982
0.0070201976
0.0064119982
0.0061121989
0.0058667556
0.005606288
0.0053527156
0.0051126245
0.0048747141
0.0046318704
0.0043831553
0.0041395598
0.0039208499
0.0037505242
0.0036401035
0.0035853237
0.003549782
0.0035290515
0.0035137853
0.0035020146
0.0034933239
0.0034814368
0.0034550638
0.0034162596
0.0033733609
0.0033305637
0.0032902863
0.0032498832
0.0032100077
0.003171583
0.0031346003
0.0030996244
0.0030646757
0.003026392
0.0029852851
0.002943118
0.0029014516
0.0028616387
0.0028235421
0.0027864828
0.0027504557
0.0027155146
0.0026816027
0.0026483197
0.0026150741
0.0025814121
0.0025476664
0.0025139352
0.0024788945
0.00244115
0.0024032433
0.0023676209
0.0023346209
0.0023020422
0.0022684823
0.0022331545
0.0021953618
0.0021561868
0.002117004
0.0020777901
0.0020380837
0.0019979607
0.0019574742
0.0019163975
0.0018747555
0.0018326851
0.0017901097
0.001746995
0.0017034004
0.0016592041
0.0016143636
0.0015689372
0.0015228058
0.0014759767
0.0014284606
0.0013801196
0.0013309914
0.0012810458
0.0012301039
0.0011783748
0.0011255253
0.001071238
0.0010158443
0.0009582686
0.0008906086
0.00081686465
0.00076201295
0.00070787057
0.00065015978
0.00059209513
0.00053549633
0.00048021632
0.00042550795
0.0003732129
0.00032032215
0.00028390992
0.0002260077
0.00038490121
-0.00027975559
0.0082807028
0.0076994614
0.0068348853
0.0063081386
0.0060393344
0.0058145108
0.0055723234
0.0053354435
0.0051149997
0.0049026953
0.0046924704
0.0044828461
0.004282038
0.0041014783
0.003951491
0.0038377426
0.0037546329
0.0036998876
0.0036587989
0.0036254238
0.0035935864
0.0035600798
0.00352084
0.0034757644
0.0034287549
0.0033816649
0.0033376093
0.0032968998
0.0032569647
0.0032178355
0.0031800068
0.0031433707
0.0031081208
0.0030724499
0.003033771
0.0029927103
0.0029508403
0.002909524
0.0028699214
0.0028317933
0.0027944946
0.0027581168
0.0027227787
0.0026884644
0.0026546989
0.0026208903
0.0025866815
0.0025522242
0.0025176337
0.0024817962
0.0024443564
0.0024072529
0.0023724372
0.0023394117
0.0023063131
0.0022722224
0.0022365469
0.0021985851
0.0021593171
0.002120044
0.0020807382
0.0020409437
0.0020007383
0.001960172
0.0019190145
0.0018772915
0.0018351389
0.0017924783
0.0017492766
0.0017055951
0.0016613131
0.0016163888
0.0015708806
0.0015246694
0.0014777628
0.0014301716
0.0013817593
0.0013325655
0.0012825582
0.0012315577
0.0011797724
0.0011268684
0.0010725263
0.0010170687
0.00095925057
0.00089012483
0.00081948585
0.00076662952
0.00071216266
0.00065347844
0.00059474331
0.0005376571
0.00048199157
0.00042699105
0.00037449282
0.00032145293
0.00028492788
0.00022701819
0.00038595754
-0.0002789885
0.0079896825
0.0075790562
0.0069020206
0.00638697
0.0060969479
0.0058591055
0.0056106752
0.0053669526
0.0051393407
0.0049197024
0.0047017263
0.0044825992
0.0042704529
0.0040761845
0.0039117551
0.0037858405
0.003699228
0.0036493324
0.0036195903
0.0035972274
0.0035746218
0.0035485276
0.0035177397
0.0034843028
0.0034478394
0.0034081369
0.0033670603
0.0033253714
0.0032834942
0.0032417922
0.0032007966
0.0031605517
0.0031216951
0.00308337
0.0030433156
0.0030016417
0.0029595078
0.0029180948
0.0028784597
0.0028402742
0.0028028418
0.0027662715
0.0027306935
0.0026961128
0.0026619585
0.0026276426
0.0025929352
0.0025580425
0.0025229907
0.002486839
0.0024494208
0.0024121656
0.0023769748
0.0023434896
0.0023100547
0.0022757825
0.0022400163
0.0022020272
0.0021627381
0.0021234122
0.0020840242
0.0020441304
0.0020038211
0.00196315
0.0019218885
0.0018800678
0.001837822
0.0017950684
0.0017517741
0.0017080022
0.0016636319
0.0016186222
0.0015730316
0.0015267403
0.0014797566
0.0014320908
0.0013836058
0.0013343407
0.001284264
0.0012331966
0.0011813479
0.0011283829
0.001073984
0.001018484
0.00096052713
0.00089094546
0.000823723
0.00077107978
0.00071614524
0.00065693341
0.00059775215
0.00054024399
0.00048420052
0.00042889502
0.00037615903
0.00032291393
0.0002862321
0.00022832035
0.00038717448
-0.00027802798
0.0077640023
0.0074468281
0.0068507693
0.0063462894
0.0060458405
0.0058104005
0.0055700582
0.00533303
0.005111218
0.0048983552
0.0046882653
0.0044785331
0.0042770458
0.0040938829
0.003939993
0.0038226569
0.0037417558
0.0036919322
0.0036579749
0.0036280809
0.0035972416
0.0035641002
0.0035283517
0.0034909918
0.0034510732
0.0034093466
0.0033668633
0.0033243149
0.0032834555
0.0032441101
0.0032060478
0.0031689423
0.0031321074
0.003094412
0.0030546576
0.0030128381
0.0029699912
0.0029274615
0.0028866884
0.0028476567
0.002809687
0.0027727477
0.0027368828
0.0027021271
0.0026678463
0.0026333555
0.0025984113
0.0025633349
0.0025280071
0.0024915561
0.0024538539
0.0024162497
0.002380698
0.0023469263
0.0023133142
0.002278922
0.0022430735
0.0022050675
0.0021657813
0.0021264229
0.0020869678
0.0020469935
0.0020066069
0.0019658574
0.0019245155
0.0018826205
0.0018403023
0.0017974721
0.0017540993
0.0017102488
0.0016658002
0.0016207129
0.001575046
0.0015286791
0.0014816212
0.0014338827
0.0013853246
0.0013359861
0.0012858374
0.0012346994
0.0011827829
0.0011297519
0.0010752925
0.0010197388
0.00096177136
0.00089337367
0.00082724641
0.00077408313
0.00071881991
0.00065937365
0.00059995034
0.00054219986
0.00048594542
0.00043045198
0.00037754342
0.00032414751
0.00028735197
0.00022933032
0.00038822098
-0.0002772196
0.0075576139
0.0072962561
0.0067813178
0.006322744
0.0060321217
0.0058053675
0.0055737225
0.0053417021
0.0051224753
0.0049120477
0.0047049204
0.0044990653
0.0043013484
0.0041208597
0.0039670566
0.0038466271
0.0037598092
0.0037018572
0.0036606455
0.0036260001
0.0035930561
0.003559729
0.0035248055
0.0034882115
0.0034491605
0.0034082721
0.0033663168
0.0033241518
0.003283448
0.0032440137
0.003205803
0.0031688841
0.0031320904
0.0030943603
0.0030554412
0.0030152128
0.0029743844
0.0029338215
0.0028941207
0.0028553683
0.0028173682
0.0027799935
0.0027433778
0.002707897
0.0026731214
0.0026383185
0.002603139
0.0025679021
0.0025324342
0.0024958314
0.0024579797
0.0024202376
0.0023845023
0.0023505056
0.0023166846
0.0022821136
0.0022461342
0.0022080799
0.0021687764
0.002129371
0.0020898473
0.0020498017
0.0020093498
0.0019685306
0.0019271163
0.0018851595
0.0018427783
0.0017998771
0.001756431
0.0017125074
0.0016679848
0.0016228236
0.0015770834
0.0015306429
0.0014835122
0.0014357018
0.0013870719
0.0013376629
0.0012874446
0.0012362379
0.0011842552
0.0011311588
0.0010766366
0.00102102
0.00096305285
0.00089569415
0.00083021981
0.00077690001
0.00072144627
0.00066179747
0.00060214092
0.00054415948
0.00048770064
0.00043201647
0.00037893323
0.00032539559
0.00028848553
0.0002303182
0.00038923986
-0.00027632574
0.0073686474
0.0071507367
0.0067135078
0.0063004188
0.0060145625
0.0057877498
0.005559372
0.0053301414
0.0051127095
0.0049052525
0.0047011135
0.0045004663
0.0043080286
0.0041320498
0.0039812186
0.0038617472
0.0037741921
0.0037142585
0.0036714996
0.003636155
0.0036028011
0.0035689379
0.0035332809
0.0034957324
0.0034559188
0.0034144048
0.0033719304
0.0033293802
0.0032881272
0.0032480957
0.0032092412
0.0031715022
0.0031337535
0.0030951931
0.0030557182
0.0030151901
0.0029743463
0.002933976
0.0028943146
0.0028558155
0.0028187138
0.0027826768
0.0027474255
0.0027127219
0.0026781874
0.0026433848
0.0026079277
0.0025722483
0.0025364058
0.0024995692
0.0024615965
0.0024238031
0.0023879739
0.0023538126
0.0023198225
0.0022851169
0.002249046
0.0022109566
0.0021716363
0.0021321941
0.0020926224
0.0020525233
0.0020120209
0.001971145
0.0019296713
0.0018876648
0.0018452313
0.0018022695
0.0017587606
0.001714774
0.0016701865
0.0016249599
0.0015791541
0.0015326471
0.00148545
0.0014375734
0.0013888771
0.0013394028
0.0012891196
0.0012378483
0.0011858034
0.001132645
0.0010780619
0.0010223817
0.00096439437
0.00089773396
0.00083297818
0.0007797885
0.00072427557
0.00066446689
0.00060458011
0.00054634738
0.00048964764
0.00043374555
0.00038047274
0.00032677602
0.00028972558
0.00023140029
0.00039027712
-0.00027523633
0.0071961078
0.0070121788
0.0066408013
0.0062686289
0.0059899352
0.0057654418
0.0055438174
0.0053212505
0.005108555
0.0049060408
0.0047058819
0.0045107853
0.0043236046
0.0041519118
0.0040037306
0.0038846991
0.0037955089
0.0037322236
0.0036857375
0.0036470143
0.0036106963
0.0035744054
0.0035369979
0.0034982499
0.0034578143
0.0034160139
0.0033734737
0.0033309726
0.0032896618
0.0032495914
0.0032106763
0.0031727938
0.0031349926
0.0030965325
0.0030572075
0.0030168397
0.0029760497
0.0029355157
0.0028955287
0.0028566946
0.00281931
0.0027831141
0.0027478102
0.002712979
0.0026785669
0.0026444241
0.0026100616
0.0025752458
0.0025397632
0.0025031387
0.002465182
0.0024272128
0.0023911067
0.0023566736
0.0023224794
0.0022876543
0.0022515407
0.0022134624
0.0021741612
0.0021347194
0.0020951357
0.0020550122
0.0020144856
0.0019735793
0.0019320689
0.0018900286
0.0018475591
0.0018045548
0.0017609999
0.0017169657
0.0016723275
0.0016270485
0.0015811894
0.0015346268
0.0014873736
0.0014394401
0.0013906858
0.0013411537
0.0012908123
0.0012394824
0.0011873809
0.0011341654
0.0010795258
0.0010237846
0.00096576768
0.00089967561
0.00083563954
0.00078262533
0.00072711811
0.0006672054
0.00060711922
0.00054864512
0.00049170224
0.00043557742
0.00038210841
0.00032824425
0.00029103652
0.00023254519
0.00039128705
-0.00027393665
0.0070379643
0.0068802102
0.0065637595
0.0062303354
0.0059630318
0.0057428189
0.0055280655
0.0053118359
0.0051032922
0.0049039376
0.0047080452
0.0045173868
0.0043347419
0.0041669016
0.0040211297
0.0039025139
0.0038118549
0.0037456439
0.0036959924
0.0036546868
0.0036165048
0.0035790115
0.0035409578
0.0035018585
0.0034613099
0.0034194935
0.0033769784
0.0033344918
0.0032930496
0.0032527992
0.0032136385
0.0031754274
0.0031373499
0.0030986823
0.0030591855
0.0030187376
0.0029778947
0.0029373179
0.0028973525
0.0028585363
0.0028210872
0.0027847223
0.0027491084
0.0027138873
0.0026791249
0.0026447328
0.0026103149
0.002575394
0.0025398428
0.0025036372
0.0024665516
0.0024294132
0.0023936794
0.0023593274
0.0023250211
0.0022899712
0.0022536897
0.0022155597
0.0021762548
0.0021368215
0.0020972568
0.0020571444
0.0020166295
0.0019757287
0.0019342119
0.0018921629
0.001849681
0.0018066565
0.0017630764
0.0017190139
0.0016743426
0.0016290276
0.0015831305
0.0015365262
0.0014892299
0.0014412515
0.0013924498
0.0013428698
0.0012924791
0.0012410984
0.0011889479
0.0011356818
0.0010809914
0.0010251936
0.0009671481
0.00090159381
0.00083822098
0.00078535149
0.00072987539
0.00066990062
0.00060964856
0.00055095563
0.00049378415
0.00043744517
0.00038378289
0.00032975294
0.00029237958
0.00023371478
0.00039222121
-0.0002724126
0.0068922843
0.0067549092
0.0064843015
0.0061870575
0.0059334684
0.0057183029
0.0055099609
0.0053001782
0.0050963075
0.004900831
0.0047097903
0.0045238926
0.0043461036
0.0041824247
0.0040393544
0.0039215051
0.0038297665
0.0037610597
0.0037085344
0.0036647447
0.0036246116
0.0035856179
0.003546443
0.0035064655
0.0034652949
0.0034230518
0.0033802524
0.003337565
0.0032958733
0.0032553699
0.0032159409
0.0031774236
0.0031390986
0.0031002694
0.0030606875
0.0030202668
0.0029794893
0.002938976
0.0028990744
0.0028602503
0.0028227139
0.0027862337
0.0027505074
0.0027152251
0.002680409
0.0026459163
0.0026113134
0.0025761203
0.0025403082
0.0025039443
0.0024668775
0.0024297537
0.0023939416
0.0023597481
0.0023259711
0.0022914279
0.0022554068
0.0022174569
0.0021781785
0.0021386638
0.0020990347
0.0020588976
0.0020183886
0.0019775143
0.00193602
0.0018939925
0.0018515283
0.0018085107
0.0017649304
0.0017208629
0.0016761796
0.0016308479
0.0015849309
0.0015383016
0.0014909775
0.0014429686
0.0013941325
0.0013445168
0.0012940878
0.0012426663
0.0011904763
0.001137168
0.0010824342
0.0010265861
0.00096851739
0.00090348517
0.00084072206
0.00078796811
0.00073253391
0.00067252508
0.00061213477
0.00055324552
0.00049586222
0.00043932076
0.00038547175
0.00033128124
0.00029373648
0.00023489112
0.00039304337
-0.00027063321
0.0067572829
0.0066361086
0.0064036563
0.0061393844
0.0059008132
0.0056917566
0.0054899755
0.0052870872
0.0050885525
0.004897414
0.0047111406
0.0045299341
0.0043567857
0.0041970291
0.0040564807
0.0039393454
0.0038465766
0.0037755085
0.0037201887
0.0036739036
0.0036317798
0.0035912613
0.0035509877
0.003510241
0.0034686086
0.003426129
0.0033832296
0.0033405016
0.0032987044
0.0032580537
0.0032184383
0.003179679
0.0031411413
0.0031021709
0.0030625137
0.0030221043
0.002981361
0.0029408647
0.0029009671
0.0028620916
0.0028244531
0.0027878589
0.002752021
0.0027166446
0.0026817102
0.002647076
0.0026123459
0.0025770875
0.002541263
0.0025048944
0.0024678093
0.0024305762
0.002394528
0.0023600743
0.0023261555
0.0022914738
0.0022553892
0.0022177568
0.0021790485
0.0021399706
0.0021005436
0.0020604815
0.0020199342
0.0019790159
0.0019375056
0.0018954866
0.0018530501
0.0018100609
0.001766506
0.0017224599
0.001677789
0.0016324635
0.0015865476
0.0015399123
0.0014925782
0.0014445552
0.0013957
0.0013460627
0.0012956086
0.0012441583
0.0011919402
0.0011385999
0.0010838319
0.0010279421
0.00096985724
0.00090533059
0.00084313625
0.0007904763
0.00073508964
0.00067506802
0.00061456331
0.00055549914
0.00049792094
0.00044118967
0.00038716194
0.00033281742
0.00029509608
0.00023606299
0.00039372179
-0.00026855829
0.0066315225
0.0065235061
0.0063227581
0.0060880661
0.0058652175
0.0056634033
0.0054683931
0.0052725761
0.005079741
0.0048931803
0.004711616
0.0045351411
0.0043665846
0.0042107216
0.0040727592
0.0039565231
0.0038629974
0.0037898998
0.0037320614
0.0036834572
0.003639462
0.0035975027
0.0035561766
0.0035146804
0.0034725609
0.0034297835
0.0033866972
0.0033438291
0.0033018391
0.0032609581
0.0032210861
0.0031820333
0.0031432376
0.0031040892
0.0030643278
0.0030239009
0.0029831747
0.0029426896
0.0029027991
0.00286389
0.0028261705
0.0027894745
0.0027535261
0.0027180464
0.0026829932
0.0026482336
0.0026134013
0.0025780868
0.0025422218
0.0025058171
0.0024687453
0.0024315524
0.0023954816
0.0023609129
0.0023268085
0.002291891
0.0022556009
0.0022178852
0.0021791815
0.0021400717
0.0021007109
0.0020610267
0.0020208857
0.0019801986
0.0019388066
0.0018967928
0.0018543326
0.0018113323
0.0017677887
0.0017237702
0.001679129
0.0016338315
0.0015879394
0.0015413194
0.0014939955
0.0014459769
0.0013971194
0.0013474765
0.001297012
0.0012455463
0.0011933133
0.0011399529
0.0010851616
0.0010292405
0.000971148
0.00090711016
0.00084544887
0.00079286432
0.00073752923
0.00067751386
0.0006169174
0.0005576998
0.00049994466
0.0004430377
0.00038884061
0.00033434983
0.0002964473
0.00023721874
0.00039422342
-0.00026614165
0.0065138407
0.0064167069
0.0062423166
0.0060338666
0.0058268986
0.0056332798
0.0054452416
0.0052565664
0.0050697435
0.0048880681
0.0047113007
0.004539631
0.0043756411
0.0042236298
0.0040882672
0.003973031
0.0038789212
0.0038040132
0.0037438306
0.0036929922
0.0036471504
0.0036037408
0.0035613247
0.0035190361
0.0034763832
0.0034332716
0.0033899783
0.003346966
0.0033048036
0.0032637204
0.0032236254
0.0031843194
0.0031452997
0.0031060002
0.0030661572
0.003025727
0.0029850311
0.0029445695
0.0029046927
0.0028657546
0.0028279542
0.0027911515
0.0027550871
0.0027195004
0.0026843311
0.0026494495
0.0026145107
0.0025791249
0.0025432047
0.0025067634
0.0024697138
0.0024325631
0.0023964502
0.0023617418
0.0023274819
0.0022924649
0.0022561415
0.0022184256
0.0021796725
0.0021404304
0.0021009374
0.0020612127
0.0020210261
0.0019803243
0.0019391707
0.0018975161
0.0018553113
0.0018124294
0.0017689041
0.0017248731
0.0016802267
0.0016349444
0.0015890814
0.0015424908
0.0014951958
0.0014472014
0.0013983597
0.0013487288
0.00129827
0.0012468037
0.0011945701
0.0011412026
0.0010864002
0.00103046
0.00097236947
0.00090880304
0.00084763919
0.0007951127
0.00073983348
0.0006798431
0.00061917754
0.00055982885
0.00050191615
0.00044484929
0.00039049378
0.00033586589
0.00029777827
0.00023834619
0.00039448939
-0.00026333345
0.0064032689
0.0063152762
0.0061628508
0.005977488
0.0057861133
0.0056014218
0.0054205896
0.0052391068
0.0050585569
0.0048820575
0.0047101784
0.0045433306
0.0043838589
0.0042356457
0.0041028911
0.0039887588
0.0038942535
0.0038177779
0.0037554665
0.0037025325
0.0036549235
0.0036101092
0.0035666242
0.003523556
0.0034803746
0.0034369306
0.0033934295
0.0033502682
0.0033079333
0.0032666433
0.0032263172
0.0031867528
0.0031474986
0.0031080331
0.0030680933
0.0030276409
0.0029869592
0.0029465079
0.0029066316
0.0028676556
0.0028297692
0.0027928565
0.0027566753
0.0027209803
0.0026856948
0.0026506895
0.002615641
0.0025801807
0.0025442085
0.0025077372
0.0024707087
0.0024335904
0.0023974274
0.0023625815
0.0023281783
0.002293067
0.0022566935
0.0022189634
0.0021802115
0.0021409721
0.0021014802
0.002061712
0.0020214171
0.0019805875
0.0019393679
0.0018976801
0.0018554554
0.0018127318
0.0017695065
0.0017257067
0.0016811668
0.0016359049
0.0015900376
0.001543449
0.0014961732
0.0014482092
0.0013993963
0.0013497933
0.001299357
0.0012479057
0.001195687
0.0011423264
0.0010875259
0.0010315798
0.00097350182
0.00091038792
0.00084968413
0.00079719906
0.00074198071
0.00068203453
0.00062132308
0.00056186667
0.00050381734
0.00044660808
0.00039210666
0.00033735231
0.0002990764
0.00023943152
0.00039448444
-0.00026008383
0.0062989919
0.0062187822
0.0060847265
0.0059195553
0.0057431625
0.0055679004
0.0053945137
0.0052202515
0.0050461582
0.0048750787
0.004708183
0.0045461683
0.0043911868
0.0042467434
0.0041166239
0.0040037089
0.0039089993
0.0038311912
0.0037669604
0.0037120665
0.0036627623
0.0036165772
0.0035720299
0.0035281752
0.0034844479
0.0034406482
0.0033969147
0.0033535813
0.0033110611
0.0032695566
0.0032289966
0.0031891789
0.0031496954
0.0031100669
0.0030700338
0.0030295594
0.0029888931
0.0029484557
0.002908582
0.0028695727
0.0028316067
0.0027945889
0.0027582941
0.0027224912
0.0026870899
0.0026519616
0.0026168035
0.0025812682
0.0025452448
0.0025087428
0.0024717291
0.0024346368
0.0023984251
0.0023634477
0.0023289027
0.0022936902
0.0022572581
0.0022195131
0.0021807702
0.002141533
0.002102027
0.0020622271
0.0020219146
0.0019810839
0.0019398406
0.0018980755
0.0018557361
0.0018129392
0.0017696818
0.0017258615
0.0016814557
0.0016364489
0.0015907737
0.0015442722
0.0014970092
0.0014490466
0.0014002442
0.0013506634
0.0013002566
0.001248832
0.0011966426
0.0011433033
0.0010885186
0.0010325808
0.0009745265
0.00091184453
0.00085156117
0.00079910077
0.00074394858
0.00068406623
0.00062333271
0.000563793
0.0005056294
0.00044829687
0.00039366366
0.00033879503
0.00030032838
0.00024045993
0.00039416151
-0.00025633194
0.0062003198
0.0061268148
0.006008188
0.0058606087
0.0056983715
0.0055328138
0.0053670826
0.0052000526
0.0050325349
0.0048670793
0.0047052706
0.004548105
0.0043975934
0.0042568993
0.0041294414
0.0040178496
0.0039231156
0.003844198
0.0037782528
0.003721541
0.0036706233
0.0036231115
0.0035775209
0.0035328838
0.003488605
0.0034444388
0.0034004621
0.0033569474
0.0033142413
0.0032725256
0.0032317362
0.0031916736
0.0031519665
0.0031121759
0.003072048
0.0030315456
0.0029908885
0.0029504602
0.0029105837
0.0028715379
0.0028334909
0.0027963662
0.0027599555
0.0027240407
0.0026885214
0.002653269
0.0026180002
0.0025823874
0.0025463107
0.0025097763
0.0024727731
0.0024357029
0.0023994435
0.0023643366
0.0023296482
0.0022943319
0.0022578415
0.0022200832
0.0021813481
0.0021421074
0.0021025826
0.0020627565
0.0020224313
0.0019815897
0.0019403219
0.001898537
0.0018561938
0.0018133811
0.0017700594
0.0017261353
0.0016816621
0.0016366229
0.0015909353
0.0015445813
0.0014975354
0.0014497113
0.0014009757
0.0013514023
0.0013009997
0.0012495898
0.0011974292
0.0011441185
0.0010893609
0.0010334459
0.00097542674
0.0009131548
0.00085325032
0.00080079701
0.00074571571
0.00068591675
0.00062518523
0.00056558733
0.00050733297
0.00044989778
0.0003951484
0.00034017915
0.00030152016
0.00024141654
0.00039346474
-0.00025200895
0.0061066646
0.0060389938
0.0059333874
0.0058011041
0.0056520698
0.0054962848
0.0053383651
0.0051785665
0.0050176923
0.0048580217
0.0047014004
0.0045490999
0.0044030389
0.0042660784
0.004141312
0.0040311482
0.0039365666
0.003856758
0.0037893048
0.0037309256
0.0036784857
0.0036296991
0.0035830897
0.0035376777
0.003492843
0.0034482994
0.0034040663
0.0033603576
0.0033174596
0.0032755303
0.0032345107
0.0031942064
0.003154278
0.003114324
0.0030740988
0.0030335632
0.0029929104
0.0029524887
0.0029126069
0.0028735245
0.0028353987
0.0027981688
0.0027616434
0.0027256167
0.0026899801
0.0026546049
0.0026192258
0.0025835343
0.0025474037
0.0025108368
0.0024738409
0.0024367891
0.0024004818
0.002365247
0.0023304155
0.0022949949
0.0022584458
0.0022206722
0.0021819418
0.0021426962
0.0021031545
0.0020633045
0.0020229631
0.0019821052
0.0019408146
0.0018990154
0.0018566637
0.0018138322
0.0017704893
0.0017265571
0.0016820671
0.001636968
0.0015911877
0.0015447834
0.0014977044
0.0014498852
0.0014013131
0.001351924
0.0013016167
0.0012502423
0.0011980928
0.001144791
0.001090053
0.0010341661
0.00097618987
0.00091430382
0.00085473503
0.00080227025
0.00074726337
0.00068756654
0.00062686065
0.00056722975
0.00050890878
0.00045139259
0.00039654394
0.00034148906
0.00030263682
0.00024228508
0.0003923587
-0.00024704978
0.0060175224
0.0059549724
0.0058604089
0.0057414182
0.0056045773
0.0054584572
0.0053084351
0.0051558527
0.0050016473
0.0048478783
0.0046965334
0.0045491142
0.0044074868
0.0042742505
0.0041522101
0.004043578
0.0039493205
0.0038688326
0.0038000748
0.0037401826
0.0036863181
0.0036363137
0.0035887156
0.0035425401
0.0034971486
0.003452219
0.0034077187
0.003363806
0.003320712
0.0032785691
0.0032373217
0.0031967818
0.0031566374
0.0031165218
0.003076199
0.0030356267
0.0029949744
0.002954557
0.0029146675
0.0028755476
0.0028373441
0.0028000098
0.0027633696
0.0027272295
0.0026914748
0.0026559767
0.0026204866
0.0025847141
0.0025485281
0.0025119277
0.0024749353
0.002437897
0.0024015411
0.0023661803
0.0023312062
0.0022956802
0.0022590712
0.0022212797
0.002182552
0.0021433015
0.002103743
0.0020638683
0.002023509
0.001982635
0.0019413238
0.001899509
0.001857144
0.0018142934
0.0017709339
0.0017269909
0.001682483
0.0016373651
0.0015915769
0.0015451515
0.0014980101
0.0014501102
0.001401499
0.0013520848
0.0013018256
0.001250614
0.0011986099
0.0011453709
0.0010906468
0.0010347691
0.00097682408
0.0009152879
0.0008560055
0.00080350783
0.00074857672
0.00068899919
0.00062834142
0.00056870206
0.00051033858
0.00045276352
0.00039783329
0.00034270882
0.00030366296
0.00024304841
0.00039077776
-0.00024138705
0.0059324584
0.0058744371
0.0057892881
0.005681856
0.0055561937
0.0054194895
0.0052773735
0.0051319725
0.004984426
0.0048366326
0.0046906364
0.0045481141
0.0044109053
0.004281388
0.0041621105
0.0040551115
0.0039613436
0.003880381
0.0038105192
0.003749272
0.0036940877
0.0036429299
0.0035943796
0.0035474575
0.0035015124
0.0034561917
0.0034114156
0.0033672904
0.0033239965
0.0032816406
0.0032401677
0.0031993973
0.0031590415
0.0031187653
0.0030783435
0.0030377305
0.0029970738
0.0029566575
0.0029167575
0.0028775989
0.0028393187
0.0028018811
0.0027651265
0.0027288723
0.0026929993
0.0026573788
0.0026217777
0.002585923
0.0025496806
0.002513046
0.0024760537
0.0024390247
0.0024026198
0.0023671353
0.0023320197
0.0022963874
0.0022597171
0.0022219058
0.0021831793
0.0021439233
0.0021043475
0.0020644479
0.00202407
0.0019831801
0.0019418481
0.0019000162
0.0018576374
0.0018147694
0.0017713929
0.0017274351
0.0016829088
0.0016377756
0.0015919767
0.0015455334
0.0014983767
0.0014504688
0.0014018285
0.0013523481
0.0013020249
0.0012507776
0.0011987754
0.0011456449
0.0010910667
0.0010352742
0.0009773754
0.00091614194
0.00085707761
0.00080451186
0.00074964928
0.0006902035
0.00062961368
0.00056998881
0.00051160615
0.00045399415
0.00039900026
0.00034382275
0.00030458313
0.00024368859
0.00038866328
-0.00023495155
0.0058510961
0.0057971062
0.0057200257
0.0056226604
0.0055071917
0.0053795488
0.0052452692
0.0051069892
0.0049660622
0.0048242789
0.0046836831
0.0045460699
0.004413266
0.0042874649
0.0041709888
0.004065722
0.0039726036
0.0038913642
0.0038205956
0.0037581542
0.0037017615
0.0036495211
0.0036000609
0.0035524139
0.0035059221
0.003460208
0.0034151494
0.0033708048
0.003327308
0.00328474
0.0032430447
0.0032020492
0.0031614872
0.0031210523
0.0030805309
0.0030398738
0.0029992088
0.002958791
0.0029188782
0.0028796804
0.0028413249
0.0028037852
0.002766917
0.0027305482
0.0026945569
0.0026588145
0.0026231023
0.0025871639
0.002550864
0.0025141941
0.0024771982
0.0024401739
0.0024037196
0.0023681134
0.0023328571
0.0022971176
0.0022603847
0.0022225515
0.0021838243
0.0021445621
0.0021049686
0.0020650438
0.0020246468
0.0019837405
0.0019423874
0.0019005377
0.0018581451
0.0018152594
0.0017718648
0.0017278917
0.0016833482
0.0016381992
0.0015923862
0.0015459255
0.0014987561
0.0014508371
0.0014021795
0.0013526872
0.0013023529
0.0012510615
0.001198997
0.0011458304
0.001091227
0.0010354814
0.00097772787
0.00091686186
0.00085799642
0.00080532391
0.00075050188
0.00069118414
0.00063067223
0.00057107957
0.00051269839
0.00045507027
0.00040003026
0.00034481628
0.00030538252
0.00024418809
0.00038596186
-0.00022767669
0.0057731078
0.0057227274
0.0056525989
0.0055640213
0.0054578142
0.0053388039
0.0052122183
0.0050809691
0.0049465956
0.0048108215
0.0046756548
0.0045429569
0.0044145443
0.0042924579
0.0041788224
0.0040753842
0.003983069
0.0039017437
0.0038302616
0.0037667885
0.0037093043
0.0036560585
0.0036057365
0.0035573913
0.0035103642
0.0034642576
0.0034189126
0.0033743435
0.0033306419
0.0032878634
0.0032459495
0.0032047348
0.0031639721
0.003123381
0.0030827595
0.0030420553
0.0030013781
0.0029609559
0.0029210281
0.0028817903
0.0028433606
0.0028057203
0.0027687391
0.0027322553
0.0026961456
0.002660282
0.0026244588
0.0025884355
0.0025520768
0.0025153706
0.0024783676
0.0024413439
0.0024048392
0.0023691138
0.0023337179
0.0022978705
0.0022610737
0.0022232168
0.002184487
0.0021452178
0.0021056062
0.0020656563
0.0020252395
0.0019843162
0.0019429419
0.001901074
0.001858667
0.0018157634
0.0017723502
0.0017283616
0.0016838007
0.0016386349
0.0015928075
0.0015463304
0.0014991469
0.0014512143
0.0014025406
0.0013530378
0.0013026903
0.0012513911
0.0011993098
0.001146118
0.001091476
0.0010356862
0.00097791497
0.00091728162
0.00085863498
0.00080592261
0.00075116676
0.00069197887
0.00063153812
0.00057198003
0.00051361084
0.00045598221
0.00040091132
0.00034567654
0.00030604725
0.0002445307
0.00038262656
-0.00021950418
0.0056982072
0.0056510752
0.0055869686
0.0055060847
0.0054082727
0.0052974203
0.0051783229
0.0050539814
0.0049260711
0.0047962735
0.0046665405
0.0045387556
0.0044147195
0.004296347
0.0041855906
0.0040840742
0.0039927096
0.0039114822
0.0038394754
0.0037751339
0.0037166798
0.0036625116
0.003611382
0.0035623706
0.0035148237
0.0034683291
0.0034226962
0.0033778997
0.0033339925
0.0032910062
0.0032488782
0.0032074503
0.0031664927
0.0031257483
0.0030850268
0.003044273
0.00300358
0.0029631507
0.002923206
0.0028839275
0.0028454248
0.0028076855
0.0027705924
0.0027339936
0.0026977657
0.0026617817
0.0026258477
0.0025897385
0.0025533199
0.0025165762
0.0024795628
0.0024425352
0.0024059795
0.0023701369
0.0023346028
0.002298647
0.0022617851
0.0022239023
0.002185168
0.0021458909
0.0021062608
0.0020662857
0.0020258484
0.0019849077
0.0019435121
0.0019016255
0.0018592034
0.0018162817
0.0017728496
0.0017288449
0.0016842664
0.0016390833
0.0015932412
0.0015467474
0.0014995491
0.0014516028
0.0014029137
0.0013533984
0.0013030371
0.0012517313
0.0011996291
0.0011464228
0.0010917882
0.0010359874
0.00097822646
0.00091770027
0.00085913377
0.00080622314
0.00075151829
0.00069254852
0.00063223126
0.00057272344
0.0005143642
0.00045673578
0.00040163978
0.00034639483
0.00030656571
0.00024469857
0.00037862612
-0.00021039213
0.0056261434
0.0055819479
0.0055230858
0.0054489598
0.0053587482
0.0052555554
0.0051436883
0.0050260985
0.004904538
0.0047806561
0.0046563375
0.0045334523
0.0044137755
0.0042991151
0.004191275
0.0040917696
0.0040014966
0.0039205433
0.0038481959
0.0037831488
0.0037238505
0.0036688488
0.0036169712
0.0035673308
0.0035192841
0.0034724096
0.0034264904
0.0033814657
0.0033373537
0.0032941629
0.003251826
0.0032101916
0.0031690455
0.0031281512
0.0030873302
0.0030465248
0.0030058127
0.0029653737
0.0029254103
0.0028860907
0.0028475163
0.0028096797
0.0027724758
0.0027357623
0.0026994166
0.0026633129
0.0026272686
0.0025910725
0.0025545928
0.0025178104
0.0024807832
0.0024437476
0.00240714
0.0023711825
0.0023355117
0.002299447
0.0022625188
0.0022246081
0.0021858674
0.0021465816
0.0021069326
0.0020669321
0.0020264738
0.001985515
0.001944098
0.0019021923
0.0018597546
0.0018168145
0.0017733632
0.001729342
0.0016847454
0.0016395447
0.0015936876
0.0015471767
0.0014999631
0.001452003
0.0014032981
0.0013537697
0.001303395
0.0012520814
0.0011999577
0.0011467387
0.0010921115
0.0010362939
0.00097860419
0.00091818129
0.00085965512
0.00080655325
0.00075176549
0.00069286892
0.00063264485
0.00057326092
0.00051497001
0.00045735958
0.00040223558
0.00034697756
0.00030693758
0.0002446638
0.0003739579
-0.00020032343
0.005556695
0.0055151651
0.0054608947
0.0053927268
0.0053093933
0.0052133557
0.0051084213
0.0049973957
0.004882049
0.004763997
0.0046450506
0.0045270396
0.0044117006
0.0043007488
0.0041958597
0.00409845
0.0040094026
0.0039288923
0.0038563827
0.003790792
0.0037307784
0.003675037
0.0036224763
0.0035722492
0.0035237274
0.0034764851
0.0034302842
0.0033850329
0.0033407181
0.0032973274
0.0032547879
0.0032129542
0.0031716262
0.0031305862
0.0030896666
0.0030488079
0.003008074
0.002967623
0.0029276394
0.0028882783
0.0028496335
0.0028117016
0.0027743882
0.0027375606
0.0027010977
0.0026648753