/*--------------------------------*- C++ -*----------------------------------*\
  =========                 |
  \\      /  F ield         | OpenFOAM: The Open Source CFD Toolbox
   \\    /   O peration     | Website:  https://openfoam.org
    \\  /    A nd           | Version:  12
     \\/     M anipulation  |
\*---------------------------------------------------------------------------*/
FoamFile
{
    format      ascii;
    class       volScalarField;
    location    "2000";
    object      p;
}
// * * * * * * * * * * * * * * * * * * * * * * * * * * * * * * * * * * * * * //

dimensions      [0 2 -2 0 0 0 0];

internalField   nonuniform List<scalar> 
13056
(
0.00408312
0.0041029353
0.0041461976
0.0042008642
0.0042652797
0.0043393823
0.0044225132
0.0045139528
0.0046133636
0.0047207926
0.0048365869
0.0049613952
0.0050962495
0.0052427102
0.0054030644
0.0055807465
0.0057807498
0.0060114561
0.0062844734
0.0066275377
0.0070654625
0.0077616515
0.0086469322
0.012584701
0.0091136894
0.0040416181
0.003947567
0.0043931435
0.0045155171
0.0044649057
0.0043918503
0.0043235834
0.0042550273
0.0041859232
0.0041182117
0.0040532398
0.0039916529
0.0039331902
0.0038775743
0.0038245938
0.0037740939
0.003725918
0.0036797445
0.0036355779
0.0035930292
0.0035521251
0.003512747
0.0034744883
0.0034375571
0.0034018087
0.0033668842
0.0033329291
0.0032999196
0.0032676117
0.0032358899
0.0032049453
0.0031746537
0.0031447433
0.0031152699
0.0030863742
0.003057923
0.0030296923
0.0030017192
0.0029741731
0.0029469526
0.002919809
0.0028928039
0.0028660211
0.002839477
0.0028129843
0.0027864919
0.0027600179
0.002733704
0.00270745
0.0026810502
0.0026545657
0.0026280383
0.0026015317
0.0025748962
0.0025480274
0.0025209404
0.0024937455
0.0024664268
0.0024387777
0.0024107943
0.0023824609
0.0023539154
0.0023250657
0.0022956875
0.0022658251
0.0022354933
0.0022047594
0.0021734623
0.0021414543
0.0021087143
0.0020753873
0.0020413792
0.0020064047
0.001970463
0.0019335856
0.0018957662
0.0018567632
0.0018164007
0.0017747091
0.0017316775
0.0016870357
0.0016405124
0.0015921648
0.0015418701
0.001489224
0.0014340057
0.0013762074
0.0013156457
0.0012528369
0.0011898873
0.0011279521
0.001066838
0.001006484
0.00094704002
0.00088840073
0.00083036275
0.00077297048
0.00071644584
0.00066077726
0.00060579859
0.00055165949
0.00049849179
0.00044661272
0.00039632633
0.00034762537
0.00030223968
0.00025856015
0.00022878577
0.00019037453
0.00031234233
-0.00024362881
0.00408312
0.0041029353
0.0041461976
0.0042008642
0.0042652797
0.0043393823
0.0044225132
0.0045139528
0.0046133636
0.0047207926
0.0048365869
0.0049613952
0.0050962495
0.0052427102
0.0054030644
0.0055807465
0.0057807498
0.0060114561
0.0062844734
0.0066275377
0.0070654625
0.0077616513
0.0086469323
0.012567647
0.0091144939
0.0040422803
0.0039476647
0.0043931803
0.0045155432
0.0044649278
0.0043918697
0.0043236006
0.0042550426
0.0041859371
0.0041182243
0.0040532513
0.0039916636
0.0039332001
0.0038775834
0.0038246023
0.0037741018
0.0037259255
0.0036797515
0.0036355844
0.0035930354
0.0035521309
0.0035127525
0.0034744935
0.0034375621
0.0034018134
0.0033668887
0.0033329333
0.0032999236
0.0032676156
0.0032358935
0.0032049489
0.003174657
0.0031447465
0.003115273
0.0030863771
0.0030579258
0.003029695
0.0030017218
0.0029741756
0.002946955
0.0029198113
0.0028928061
0.0028660232
0.002839479
0.0028129863
0.0027864938
0.0027600197
0.0027337058
0.0027074517
0.0026810519
0.0026545673
0.0026280399
0.0026015332
0.0025748976
0.0025480288
0.0025209417
0.0024937467
0.002466428
0.0024387788
0.0024107955
0.002382462
0.0023539165
0.0023250667
0.0022956885
0.0022658261
0.0022354942
0.0022047603
0.0021734632
0.0021414551
0.0021087151
0.0020753881
0.0020413799
0.0020064054
0.0019704637
0.0019335862
0.0018957669
0.0018567638
0.0018164013
0.0017747097
0.001731678
0.0016870362
0.0016405129
0.0015921653
0.0015418706
0.0014892244
0.0014340061
0.0013762078
0.0013156461
0.0012528373
0.0011898877
0.0011279524
0.0010668383
0.0010064843
0.00094704029
0.000888401
0.00083036301
0.00077297073
0.00071644608
0.00066077749
0.00060579881
0.00055165971
0.000498492
0.00044661292
0.00039632652
0.00034762556
0.00030223986
0.00025856033
0.00022878594
0.00019037471
0.00031234254
-0.00024362867
0.00408312
0.0041029353
0.0041461976
0.0042008642
0.0042652797
0.0043393823
0.0044225132
0.0045139528
0.0046133636
0.0047207927
0.0048365869
0.0049613952
0.0050962495
0.0052427102
0.0054030644
0.0055807465
0.0057807498
0.0060114561
0.0062844734
0.0066275377
0.0070654624
0.0077616509
0.0086469324
0.012551439
0.0091153679
0.0040430451
0.0039477807
0.0043932243
0.0045155744
0.0044649543
0.0043918928
0.0043236211
0.004255061
0.0041859537
0.0041182395
0.0040532652
0.0039916764
0.0039332119
0.0038775944
0.0038246124
0.0037741113
0.0037259343
0.0036797598
0.0036355923
0.0035930427
0.0035521378
0.0035127591
0.0034744998
0.003437568
0.003401819
0.003366894
0.0033329384
0.0032999284
0.0032676202
0.0032358979
0.003204953
0.003174661
0.0031447503
0.0031152767
0.0030863807
0.0030579292
0.0030296983
0.0030017249
0.0029741786
0.0029469579
0.0029198141
0.0028928088
0.0028660258
0.0028394815
0.0028129887
0.0027864961
0.0027600219
0.0027337079
0.0027074538
0.0026810538
0.0026545692
0.0026280417
0.0026015349
0.0025748993
0.0025480304
0.0025209433
0.0024937483
0.0024664295
0.0024387803
0.0024107969
0.0023824633
0.0023539177
0.0023250679
0.0022956896
0.0022658272
0.0022354953
0.0022047613
0.0021734642
0.0021414561
0.0021087161
0.002075389
0.0020413808
0.0020064063
0.0019704645
0.001933587
0.0018957676
0.0018567645
0.001816402
0.0017747103
0.0017316787
0.0016870368
0.0016405135
0.0015921658
0.0015418711
0.0014892249
0.0014340066
0.0013762082
0.0013156465
0.0012528377
0.0011898881
0.0011279528
0.0010668386
0.0010064846
0.00094704062
0.00088840131
0.00083036331
0.00077297102
0.00071644636
0.00066077776
0.00060579907
0.00055165996
0.00049849224
0.00044661316
0.00039632675
0.00034762579
0.00030224008
0.00025856054
0.00022878616
0.00019037493
0.0003123428
-0.00024362851
0.00408312
0.0041029353
0.0041461976
0.0042008642
0.0042652797
0.0043393823
0.0044225132
0.0045139528
0.0046133636
0.0047207927
0.0048365869
0.0049613952
0.0050962495
0.0052427102
0.0054030644
0.0055807465
0.0057807498
0.006011456
0.0062844733
0.0066275376
0.0070654622
0.0077616503
0.0086469326
0.012536987
0.0091163474
0.0040437501
0.0039478901
0.0043932677
0.0045156051
0.0044649803
0.0043919156
0.0043236413
0.0042550791
0.00418597
0.0041182543
0.0040532788
0.0039916889
0.0039332234
0.0038776051
0.0038246224
0.0037741206
0.003725943
0.003679768
0.0036355999
0.00359305
0.0035521447
0.0035127655
0.0034745059
0.0034375737
0.0034018245
0.0033668992
0.0033329433
0.0032999331
0.0032676247
0.0032359022
0.0032049572
0.003174665
0.0031447541
0.0031152803
0.0030863841
0.0030579325
0.0030297014
0.0030017279
0.0029741815
0.0029469607
0.0029198168
0.0028928114
0.0028660283
0.0028394839
0.002812991
0.0027864983
0.0027600241
0.00273371
0.0027074558
0.0026810558
0.002654571
0.0026280435
0.0026015367
0.0025749009
0.002548032
0.0025209449
0.0024937498
0.0024664309
0.0024387817
0.0024107982
0.0023824646
0.002353919
0.0023250691
0.0022956908
0.0022658284
0.0022354964
0.0022047624
0.0021734652
0.0021414571
0.002108717
0.0020753899
0.0020413816
0.0020064071
0.0019704653
0.0019335878
0.0018957683
0.0018567652
0.0018164027
0.001774711
0.0017316793
0.0016870374
0.0016405141
0.0015921664
0.0015418716
0.0014892254
0.0014340071
0.0013762087
0.001315647
0.0012528381
0.0011898885
0.0011279531
0.001066839
0.001006485
0.00094704095
0.00088840162
0.00083036361
0.00077297131
0.00071644663
0.00066077803
0.00060579933
0.00055166021
0.00049849249
0.0004466134
0.00039632698
0.00034762601
0.00030224029
0.00025856075
0.00022878637
0.00019037513
0.00031234304
-0.00024362835
0.00408312
0.0041029353
0.0041461976
0.0042008642
0.0042652797
0.0043393823
0.0044225132
0.0045139528
0.0046133636
0.0047207927
0.0048365869
0.0049613952
0.0050962495
0.0052427102
0.0054030644
0.0055807464
0.0057807497
0.006011456
0.0062844733
0.0066275375
0.007065462
0.0077616493
0.0086469329
0.012522719
0.0091174859
0.0040443939
0.0039480014
0.0043933126
0.0045156367
0.004465007
0.004391939
0.004323662
0.0042550976
0.0041859868
0.0041182696
0.0040532928
0.0039917017
0.0039332353
0.0038776161
0.0038246327
0.0037741302
0.003725952
0.0036797763
0.0036356078
0.0035930574
0.0035521517
0.0035127722
0.0034745121
0.0034375797
0.0034018301
0.0033669045
0.0033329484
0.003299938
0.0032676293
0.0032359066
0.0032049614
0.003174669
0.0031447579
0.003115284
0.0030863877
0.0030579359
0.0030297047
0.0030017311
0.0029741845
0.0029469636
0.0029198196
0.0028928141
0.0028660309
0.0028394864
0.0028129934
0.0027865006
0.0027600263
0.0027337121
0.0027074578
0.0026810577
0.0026545729
0.0026280453
0.0026015384
0.0025749027
0.0025480337
0.0025209465
0.0024937513
0.0024664324
0.0024387831
0.0024107996
0.0023824659
0.0023539203
0.0023250704
0.002295692
0.0022658295
0.0022354975
0.0022047634
0.0021734662
0.0021414581
0.002108718
0.0020753908
0.0020413825
0.002006408
0.0019704661
0.0019335886
0.0018957691
0.0018567659
0.0018164034
0.0017747116
0.0017316799
0.001687038
0.0016405146
0.0015921669
0.0015418721
0.0014892259
0.0014340075
0.0013762091
0.0013156474
0.0012528385
0.0011898888
0.0011279535
0.0010668393
0.0010064853
0.00094704128
0.00088840194
0.00083036392
0.0007729716
0.00071644692
0.0006607783
0.0006057996
0.00055166046
0.00049849273
0.00044661364
0.00039632721
0.00034762623
0.00030224051
0.00025856097
0.00022878658
0.00019037533
0.0003123433
-0.00024362819
0.00408312
0.0041029353
0.0041461976
0.0042008642
0.0042652797
0.0043393823
0.0044225132
0.0045139528
0.0046133636
0.0047207927
0.0048365869
0.0049613952
0.0050962495
0.0052427102
0.0054030644
0.0055807464
0.0057807497
0.006011456
0.0062844732
0.0066275373
0.0070654618
0.0077616479
0.0086469335
0.01250806
0.0091186184
0.0040449708
0.0039481214
0.0043933611
0.0045156707
0.0044650356
0.004391964
0.0043236842
0.0042551175
0.0041860047
0.0041182859
0.0040533077
0.0039917155
0.003933248
0.0038776279
0.0038246436
0.0037741404
0.0037259615
0.0036797853
0.0036356162
0.0035930653
0.0035521591
0.0035127792
0.0034745188
0.003437586
0.0034018362
0.0033669103
0.0033329539
0.0032999432
0.0032676343
0.0032359113
0.0032049659
0.0031746733
0.0031447621
0.0031152879
0.0030863914
0.0030579395
0.0030297082
0.0030017344
0.0029741877
0.0029469667
0.0029198225
0.0028928169
0.0028660336
0.002839489
0.0028129959
0.0027865031
0.0027600286
0.0027337144
0.00270746
0.0026810598
0.002654575
0.0026280473
0.0026015403
0.0025749045
0.0025480354
0.0025209482
0.0024937529
0.002466434
0.0024387846
0.0024108011
0.0023824673
0.0023539216
0.0023250717
0.0022956933
0.0022658307
0.0022354987
0.0022047646
0.0021734673
0.0021414591
0.002108719
0.0020753918
0.0020413835
0.0020064089
0.001970467
0.0019335894
0.0018957699
0.0018567667
0.0018164041
0.0017747123
0.0017316806
0.0016870387
0.0016405153
0.0015921675
0.0015418727
0.0014892264
0.0014340081
0.0013762096
0.0013156479
0.0012528389
0.0011898893
0.0011279539
0.0010668397
0.0010064857
0.00094704163
0.00088840228
0.00083036424
0.00077297191
0.00071644722
0.00066077859
0.00060579988
0.00055166074
0.000498493
0.00044661389
0.00039632746
0.00034762648
0.00030224075
0.00025856119
0.00022878681
0.00019037555
0.00031234357
-0.00024362802
0.00408312
0.0041029353
0.0041461976
0.0042008642
0.0042652797
0.0043393823
0.0044225132
0.0045139528
0.0046133636
0.0047207927
0.0048365869
0.0049613952
0.0050962495
0.0052427102
0.0054030644
0.0055807464
0.0057807497
0.0060114559
0.0062844731
0.0066275371
0.0070654615
0.0077616461
0.0086469341
0.012492981
0.0091197711
0.0040455536
0.0039482543
0.0043934151
0.0045157081
0.0044650671
0.0043919915
0.0043237085
0.0042551392
0.0041860244
0.0041183038
0.0040533241
0.0039917306
0.0039332619
0.0038776408
0.0038246556
0.0037741516
0.003725972
0.0036797951
0.0036356254
0.003593074
0.0035521673
0.0035127869
0.0034745261
0.0034375929
0.0034018427
0.0033669165
0.0033329598
0.0032999488
0.0032676396
0.0032359165
0.0032049708
0.003174678
0.0031447666
0.0031152922
0.0030863956
0.0030579435
0.003029712
0.003001738
0.0029741912
0.0029469701
0.0029198257
0.00289282
0.0028660366
0.0028394919
0.0028129987
0.0027865057
0.0027600312
0.0027337169
0.0027074624
0.0026810621
0.0026545772
0.0026280494
0.0026015424
0.0025749065
0.0025480373
0.00252095
0.0024937547
0.0024664357
0.0024387863
0.0024108027
0.0023824689
0.0023539231
0.0023250731
0.0022956947
0.0022658321
0.0022355
0.0022047658
0.0021734685
0.0021414603
0.0021087201
0.0020753929
0.0020413845
0.0020064098
0.001970468
0.0019335903
0.0018957708
0.0018567675
0.0018164049
0.0017747131
0.0017316813
0.0016870394
0.0016405159
0.0015921682
0.0015418733
0.001489227
0.0014340086
0.0013762102
0.0013156484
0.0012528394
0.0011898897
0.0011279544
0.0010668401
0.0010064861
0.00094704202
0.00088840265
0.00083036459
0.00077297225
0.00071644755
0.00066077891
0.00060580018
0.00055166103
0.00049849328
0.00044661417
0.00039632773
0.00034762674
0.000302241
0.00025856144
0.00022878706
0.00019037579
0.00031234386
-0.00024362784
0.00408312
0.0041029353
0.0041461976
0.0042008642
0.0042652797
0.0043393823
0.0044225132
0.0045139528
0.0046133636
0.0047207927
0.0048365869
0.0049613952
0.0050962495
0.0052427102
0.0054030644
0.0055807464
0.0057807496
0.0060114558
0.0062844729
0.0066275368
0.0070654611
0.0077616438
0.008646935
0.012477532
0.0091209548
0.0040462701
0.003948406
0.0043934767
0.0045157504
0.0044651025
0.0043920224
0.0043237358
0.0042551636
0.0041860464
0.0041183238
0.0040533424
0.0039917473
0.0039332774
0.0038776551
0.003824669
0.003774164
0.0037259836
0.003679806
0.0036356357
0.0035930836
0.0035521764
0.0035127955
0.0034745342
0.0034376006
0.00340185
0.0033669234
0.0033329664
0.0032999551
0.0032676456
0.0032359222
0.0032049762
0.0031746832
0.0031447715
0.003115297
0.0030864001
0.0030579478
0.0030297161
0.0030017421
0.0029741951
0.0029469738
0.0029198293
0.0028928234
0.0028660399
0.0028394951
0.0028130018
0.0027865087
0.002760034
0.0027337196
0.002707465
0.0026810647
0.0026545796
0.0026280518
0.0026015447
0.0025749087
0.0025480395
0.002520952
0.0024937567
0.0024664376
0.0024387881
0.0024108044
0.0023824706
0.0023539248
0.0023250747
0.0022956962
0.0022658335
0.0022355014
0.0022047672
0.0021734698
0.0021414615
0.0021087213
0.002075394
0.0020413856
0.0020064109
0.001970469
0.0019335913
0.0018957717
0.0018567684
0.0018164058
0.0017747139
0.0017316822
0.0016870402
0.0016405167
0.0015921689
0.001541874
0.0014892277
0.0014340092
0.0013762108
0.0013156489
0.00125284
0.0011898902
0.0011279548
0.0010668406
0.0010064865
0.00094704244
0.00088840305
0.00083036498
0.00077297263
0.00071644791
0.00066077925
0.00060580052
0.00055166135
0.00049849359
0.00044661447
0.00039632802
0.00034762702
0.00030224128
0.00025856171
0.00022878733
0.00019037605
0.00031234418
-0.00024362764
0.00408312
0.0041029353
0.0041461976
0.0042008642
0.0042652797
0.0043393823
0.0044225132
0.0045139528
0.0046133636
0.0047207927
0.0048365869
0.0049613952
0.0050962495
0.0052427102
0.0054030643
0.0055807463
0.0057807496
0.0060114557
0.0062844727
0.0066275364
0.0070654606
0.0077616407
0.0086469362
0.012461761
0.0091218521
0.0040472229
0.0039485874
0.0043935497
0.0045157999
0.0044651437
0.0043920582
0.0043237674
0.0042551917
0.0041860717
0.0041183468
0.0040533634
0.0039917666
0.0039332952
0.0038776716
0.0038246842
0.0037741782
0.0037259969
0.0036798184
0.0036356473
0.0035930946
0.0035521867
0.0035128053
0.0034745434
0.0034376093
0.0034018583
0.0033669313
0.0033329738
0.0032999622
0.0032676524
0.0032359286
0.0032049824
0.0031746891
0.0031447772
0.0031153024
0.0030864053
0.0030579528
0.0030297209
0.0030017466
0.0029741994
0.002946978
0.0029198333
0.0028928273
0.0028660436
0.0028394987
0.0028130052
0.002786512
0.0027600372
0.0027337227
0.002707468
0.0026810675
0.0026545824
0.0026280544
0.0026015472
0.0025749111
0.0025480418
0.0025209543
0.0024937589
0.0024664397
0.0024387901
0.0024108064
0.0023824725
0.0023539266
0.0023250765
0.0022956979
0.0022658352
0.002235503
0.0022047687
0.0021734713
0.0021414629
0.0021087226
0.0020753953
0.0020413869
0.0020064121
0.0019704702
0.0019335924
0.0018957728
0.0018567695
0.0018164068
0.0017747149
0.0017316831
0.001687041
0.0016405175
0.0015921697
0.0015418747
0.0014892284
0.0014340099
0.0013762114
0.0013156495
0.0012528405
0.0011898908
0.0011279554
0.0010668411
0.001006487
0.0009470429
0.0008884035
0.00083036541
0.00077297304
0.00071644831
0.00066077964
0.00060580089
0.00055166171
0.00049849394
0.00044661481
0.00039632835
0.00034762734
0.00030224159
0.00025856202
0.00022878764
0.00019037634
0.00031234454
-0.00024362741
0.00408312
0.0041029353
0.0041461976
0.0042008642
0.0042652797
0.0043393823
0.0044225132
0.0045139528
0.0046133636
0.0047207927
0.0048365869
0.0049613952
0.0050962495
0.0052427102
0.0054030643
0.0055807463
0.0057807495
0.0060114555
0.0062844725
0.0066275359
0.00706546
0.0077616368
0.0086469378
0.012445747
0.0091221337
0.0040485016
0.0039488175
0.0043936404
0.0045158604
0.0044651936
0.0043921015
0.0043238054
0.0042552256
0.0041861021
0.0041183743
0.0040533885
0.0039917896
0.0039333164
0.0038776911
0.0038247024
0.0037741951
0.0037260126
0.0036798331
0.0036356611
0.0035931075
0.0035521989
0.0035128167
0.0034745543
0.0034376196
0.003401868
0.0033669405
0.0033329826
0.0032999705
0.0032676603
0.0032359362
0.0032049896
0.003174696
0.0031447837
0.0031153086
0.0030864113
0.0030579586
0.0030297264
0.0030017519
0.0029742045
0.0029469828
0.002919838
0.0028928318
0.0028660479
0.0028395028
0.0028130092
0.0027865158
0.0027600409
0.0027337262
0.0027074714
0.0026810708
0.0026545856
0.0026280575
0.0026015502
0.002574914
0.0025480446
0.002520957
0.0024937614
0.0024664422
0.0024387925
0.0024108087
0.0023824747
0.0023539287
0.0023250785
0.0022956998
0.0022658371
0.0022355048
0.0022047705
0.002173473
0.0021414646
0.0021087242
0.0020753968
0.0020413883
0.0020064135
0.0019704715
0.0019335937
0.001895774
0.0018567707
0.0018164079
0.001774716
0.0017316841
0.001687042
0.0016405185
0.0015921706
0.0015418756
0.0014892292
0.0014340107
0.0013762121
0.0013156502
0.0012528412
0.0011898914
0.001127956
0.0010668417
0.0010064876
0.00094704344
0.00088840401
0.0008303659
0.00077297351
0.00071644876
0.00066078008
0.00060580131
0.00055166212
0.00049849434
0.00044661519
0.00039632872
0.0003476277
0.00030224195
0.00025856236
0.00022878798
0.00019037666
0.00031234494
-0.00024362716
0.00408312
0.0041029353
0.0041461976
0.0042008642
0.0042652797
0.0043393823
0.0044225132
0.0045139528
0.0046133636
0.0047207927
0.0048365869
0.0049613951
0.0050962495
0.0052427101
0.0054030643
0.0055807462
0.0057807494
0.0060114554
0.0062844722
0.0066275352
0.0070654592
0.0077616318
0.00864694
0.012429596
0.0091221029
0.0040502144
0.0039491279
0.0043937602
0.0045159387
0.0044652575
0.0043921565
0.0043238536
0.0042552682
0.0041861403
0.0041184088
0.0040534199
0.0039918183
0.0039333427
0.0038777154
0.0038247248
0.003774216
0.003726032
0.0036798513
0.0036356781
0.0035931234
0.0035522139
0.0035128308
0.0034745676
0.0034376322
0.0034018799
0.0033669518
0.0033329933
0.0032999807
0.00326767
0.0032359454
0.0032049984
0.0031747043
0.0031447917
0.0031153163
0.0030864186
0.0030579655
0.0030297331
0.0030017583
0.0029742106
0.0029469887
0.0029198437
0.0028928372
0.0028660531
0.0028395078
0.002813014
0.0027865204
0.0027600454
0.0027337305
0.0027074755
0.0026810748
0.0026545894
0.0026280612
0.0026015537
0.0025749174
0.0025480479
0.0025209601
0.0024937645
0.0024664451
0.0024387953
0.0024108114
0.0023824773
0.0023539312
0.0023250809
0.0022957022
0.0022658393
0.002235507
0.0022047725
0.002173475
0.0021414665
0.0021087261
0.0020753986
0.00204139
0.0020064152
0.0019704731
0.0019335952
0.0018957755
0.001856772
0.0018164092
0.0017747172
0.0017316853
0.0016870432
0.0016405196
0.0015921716
0.0015418766
0.0014892302
0.0014340116
0.001376213
0.0013156511
0.001252842
0.0011898922
0.0011279567
0.0010668424
0.0010064882
0.00094704406
0.00088840461
0.00083036648
0.00077297406
0.00071644929
0.00066078059
0.00060580181
0.0005516626
0.0004984948
0.00044661564
0.00039632916
0.00034762812
0.00030224236
0.00025856276
0.00022878838
0.00019037704
0.00031234542
-0.00024362686
0.00408312
0.0041029353
0.0041461976
0.0042008642
0.0042652797
0.0043393823
0.0044225132
0.0045139528
0.0046133636
0.0047207926
0.0048365868
0.0049613951
0.0050962495
0.0052427101
0.0054030642
0.0055807461
0.0057807492
0.0060114551
0.0062844717
0.0066275344
0.0070654581
0.0077616254
0.0086469428
0.012413416
0.0091222027
0.0040525054
0.0039495712
0.004393929
0.0045160462
0.0044653442
0.0043922307
0.0043239181
0.004255325
0.0041861909
0.0041184544
0.0040534611
0.0039918559
0.0039333771
0.0038777471
0.0038247541
0.0037742431
0.0037260572
0.0036798747
0.0036357
0.003593144
0.0035522331
0.003512849
0.0034745846
0.0034376483
0.0034018951
0.0033669662
0.0033330069
0.0032999936
0.0032676823
0.0032359571
0.0032050095
0.0031747149
0.0031448018
0.0031153259
0.0030864278
0.0030579744
0.0030297415
0.0030017664
0.0029742184
0.0029469961
0.0029198508
0.0028928441
0.0028660597
0.0028395141
0.0028130201
0.0027865262
0.0027600509
0.0027337359
0.0027074807
0.0026810798
0.0026545941
0.0026280658
0.0026015581
0.0025749216
0.0025480519
0.0025209641
0.0024937683
0.0024664488
0.0024387988
0.0024108148
0.0023824806
0.0023539344
0.0023250839
0.0022957051
0.0022658421
0.0022355096
0.0022047751
0.0021734774
0.0021414689
0.0021087283
0.0020754008
0.0020413921
0.0020064172
0.001970475
0.0019335971
0.0018957772
0.0018567738
0.0018164108
0.0017747188
0.0017316868
0.0016870446
0.0016405209
0.0015921729
0.0015418779
0.0014892314
0.0014340127
0.0013762141
0.0013156521
0.001252843
0.0011898931
0.0011279576
0.0010668432
0.001006489
0.00094704482
0.00088840533
0.00083036717
0.00077297473
0.00071644993
0.00066078121
0.0006058024
0.00055166317
0.00049849536
0.00044661618
0.00039632968
0.00034762863
0.00030224285
0.00025856324
0.00022878886
0.0001903775
0.00031234598
-0.00024362651
0.00408312
0.0041029353
0.0041461976
0.0042008642
0.0042652797
0.0043393823
0.0044225132
0.0045139528
0.0046133636
0.0047207926
0.0048365868
0.0049613951
0.0050962494
0.00524271
0.0054030641
0.005580746
0.005780749
0.0060114548
0.0062844712
0.0066275333
0.0070654567
0.0077616172
0.0086469465
0.012397291
0.0091224882
0.0040556266
0.0039502292
0.0043941811
0.004516203
0.0044654685
0.004392336
0.0043240089
0.0042554046
0.0041862615
0.0041185176
0.0040535182
0.0039919077
0.0039334245
0.0038777905
0.0038247941
0.00377428
0.0037260915
0.0036799066
0.0036357297
0.0035931718
0.0035522592
0.0035128734
0.0034746076
0.0034376699
0.0034019155
0.0033669855
0.0033330252
0.003300011
0.0032676987
0.0032359727
0.0032050244
0.0031747291
0.0031448153
0.0031153388
0.0030864401
0.0030579861
0.0030297527
0.0030017771
0.0029742286
0.0029470059
0.0029198602
0.0028928531
0.0028660683
0.0028395224
0.002813028
0.0027865339
0.0027600583
0.0027337429
0.0027074874
0.0026810863
0.0026546004
0.0026280718
0.0026015639
0.0025749272
0.0025480573
0.0025209692
0.0024937732
0.0024664535
0.0024388034
0.0024108192
0.0023824848
0.0023539384
0.0023250878
0.0022957088
0.0022658457
0.0022355131
0.0022047784
0.0021734806
0.0021414719
0.0021087313
0.0020754036
0.0020413948
0.0020064198
0.0019704775
0.0019335995
0.0018957795
0.0018567759
0.0018164129
0.0017747208
0.0017316887
0.0016870464
0.0016405227
0.0015921746
0.0015418794
0.0014892329
0.0014340142
0.0013762154
0.0013156534
0.0012528442
0.0011898942
0.0011279587
0.0010668442
0.00100649
0.00094704577
0.00088840624
0.00083036805
0.00077297557
0.00071645074
0.00066078199
0.00060580315
0.0005516639
0.00049849605
0.00044661685
0.00039633033
0.00034762926
0.00030224347
0.00025856384
0.00022878946
0.00019037807
0.00031234669
-0.00024362606
0.00408312
0.0041029353
0.0041461976
0.0042008642
0.0042652797
0.0043393823
0.0044225132
0.0045139528
0.0046133636
0.0047207926
0.0048365868
0.0049613951
0.0050962494
0.00524271
0.005403064
0.0055807458
0.0057807488
0.0060114544
0.0062844705
0.0066275319
0.007065455
0.0077616067
0.0086469514
0.012381248
0.009122868
0.004059927
0.0039512137
0.0043945697
0.004516441
0.0044656541
0.0043924919
0.0043241424
0.0042555208
0.0041863639
0.0041186089
0.0040536003
0.0039919821
0.0039334921
0.0038778524
0.003824851
0.0037743325
0.0037261401
0.0036799517
0.0036357717
0.0035932109
0.0035522958
0.0035129077
0.0034746399
0.0034377003
0.0034019441
0.0033670125
0.0033330508
0.0033000351
0.0032677216
0.0032359944
0.003205045
0.0031747487
0.003144834
0.0031153566
0.003086457
0.0030580022
0.0030297682
0.0030017919
0.0029742427
0.0029470194
0.0029198731
0.0028928654
0.0028660802
0.0028395337
0.0028130389
0.0027865443
0.0027600683
0.0027337525
0.0027074967
0.0026810951
0.0026546089
0.00262808
0.0026015718
0.0025749347
0.0025480645
0.0025209762
0.0024937799
0.00246646
0.0024388096
0.0024108251
0.0023824905
0.0023539439
0.0023250931
0.0022957139
0.0022658506
0.0022355178
0.0022047829
0.0021734849
0.0021414761
0.0021087353
0.0020754074
0.0020413985
0.0020064233
0.0019704808
0.0019336027
0.0018957826
0.0018567789
0.0018164157
0.0017747235
0.0017316913
0.0016870489
0.001640525
0.0015921768
0.0015418815
0.0014892349
0.0014340161
0.0013762172
0.0013156551
0.0012528458
0.0011898958
0.0011279601
0.0010668456
0.0010064913
0.00094704703
0.00088840745
0.0008303692
0.00077297668
0.0007164518
0.00066078301
0.00060580414
0.00055166485
0.00049849697
0.00044661774
0.00039633119
0.00034763009
0.00030224428
0.00025856463
0.00022879025
0.00019037882
0.00031234761
-0.00024362548
0.00408312
0.0041029353
0.0041461976
0.0042008642
0.0042652797
0.0043393823
0.0044225132
0.0045139528
0.0046133636
0.0047207926
0.0048365868
0.004961395
0.0050962493
0.0052427099
0.0054030639
0.0055807456
0.0057807484
0.0060114538
0.0062844696
0.0066275302
0.0070654528
0.0077615933
0.0086469577
0.01236524
0.0091232428
0.0040655774
0.0039526555
0.0043951703
0.0045168063
0.0044659355
0.0043927264
0.0043243422
0.0042556937
0.0041865158
0.0041187438
0.0040537212
0.0039920912
0.0039335912
0.0038779429
0.0038249339
0.0037744088
0.0037262106
0.003680017
0.0036358324
0.0035932675
0.0035523487
0.0035129572
0.0034746863
0.0034377439
0.0034019852
0.0033670512
0.0033330874
0.0033000697
0.0032677544
0.0032360255
0.0032050745
0.0031747767
0.0031448606
0.0031153819
0.0030864812
0.0030580253
0.0030297902
0.0030018129
0.0029742628
0.0029470386
0.0029198914
0.002892883
0.002866097
0.0028395499
0.0028130543
0.0027865591
0.0027600825
0.0027337661
0.0027075098
0.0026811077
0.0026546209
0.0026280915
0.0026015829
0.0025749454
0.0025480748
0.002520986
0.0024937893
0.002466469
0.0024388183
0.0024108335
0.0023824985
0.0023539516
0.0023251005
0.002295721
0.0022658574
0.0022355243
0.0022047892
0.002173491
0.0021414819
0.0021087408
0.0020754127
0.0020414036
0.0020064281
0.0019704855
0.0019336071
0.0018957869
0.0018567829
0.0018164196
0.0017747272
0.0017316948
0.0016870522
0.0016405282
0.0015921799
0.0015418844
0.0014892376
0.0014340187
0.0013762197
0.0013156574
0.001252848
0.0011898979
0.0011279621
0.0010668475
0.0010064931
0.00094704875
0.0008884091
0.00083037078
0.00077297819
0.00071645326
0.00066078441
0.00060580548
0.00055166614
0.00049849822
0.00044661895
0.00039633236
0.00034763123
0.00030224538
0.0002585657
0.00022879132
0.00019037984
0.00031234887
-0.00024362469
0.00408312
0.0041029353
0.0041461975
0.0042008642
0.0042652797
0.0043393823
0.0044225132
0.0045139528
0.0046133636
0.0047207926
0.0048365868
0.004961395
0.0050962493
0.0052427098
0.0054030637
0.0055807453
0.005780748
0.0060114531
0.0062844685
0.0066275279
0.0070654499
0.0077615762
0.0086469658
0.012349141
0.0091235131
0.0040724113
0.0039546841
0.0043960777
0.0045173581
0.0044663566
0.0043930758
0.0043246389
0.00425595
0.0041867403
0.0041189428
0.0040538992
0.0039922515
0.0039337366
0.0038780754
0.0038250552
0.0037745204
0.0037263135
0.0036801123
0.0036359209
0.0035933499
0.0035524256
0.0035130292
0.0034747538
0.0034378073
0.0034020449
0.0033671074
0.0033331404
0.0033001199
0.0032678018
0.0032360705
0.0032051172
0.0031748172
0.0031448992
0.0031154186
0.0030865161
0.0030580586
0.0030298219
0.0030018432
0.0029742917
0.0029470663
0.0029199179
0.0028929083
0.0028661212
0.002839573
0.0028130765
0.0027865804
0.0027601029
0.0027337857
0.0027075285
0.0026811257
0.0026546382
0.0026281081
0.0026015988
0.0025749607
0.0025480894
0.0025210001
0.0024938029
0.002466482
0.0024388308
0.0024108454
0.00238251
0.0023539627
0.0023251111
0.0022957312
0.0022658671
0.0022355337
0.0022047982
0.0021734996
0.0021414901
0.0021087487
0.0020754203
0.0020414108
0.0020064351
0.0019704921
0.0019336135
0.0018957929
0.0018567887
0.0018164252
0.0017747325
0.0017316998
0.001687057
0.0016405328
0.0015921842
0.0015418886
0.0014892415
0.0014340224
0.0013762232
0.0013156607
0.0012528512
0.0011899009
0.0011279649
0.0010668502
0.0010064957
0.0009470512
0.00088841143
0.00083037301
0.00077298033
0.00071645531
0.00066078638
0.00060580738
0.00055166797
0.00049849999
0.00044662065
0.00039633401
0.00034763283
0.00030224694
0.00025856721
0.00022879282
0.00019038127
0.00031235064
-0.00024362358
0.00408312
0.0041029352
0.0041461975
0.0042008642
0.0042652797
0.0043393823
0.0044225132
0.0045139527
0.0046133636
0.0047207926
0.0048365867
0.0049613949
0.0050962492
0.0052427096
0.0054030635
0.005580745
0.0057807474
0.0060114522
0.006284467
0.0066275251
0.0070654462
0.0077615544
0.0086469763
0.012332796
0.0091235374
0.0040802481
0.0039574227
0.0043973938
0.0045181627
0.0044669666
0.0043935806
0.0043250674
0.0042563198
0.0041870641
0.0041192296
0.0040541555
0.0039924824
0.0039339457
0.0038782659
0.0038252296
0.0037746806
0.0037264613
0.0036802491
0.0036360479
0.0035934681
0.0035525359
0.0035131324
0.0034748505
0.0034378981
0.0034021303
0.0033671879
0.0033332164
0.0033001917
0.0032678698
0.0032361349
0.0032051783
0.0031748753
0.0031449543
0.0031154711
0.0030865661
0.0030581062
0.0030298674
0.0030018865
0.0029743332
0.0029471059
0.0029199557
0.0028929445
0.0028661559
0.0028396063
0.0028131084
0.0027866109
0.0027601321
0.0027338137
0.0027075554
0.0026811515
0.002654663
0.0026281319
0.0026016216