/*--------------------------------*- C++ -*----------------------------------*\
  =========                 |
  \\      /  F ield         | OpenFOAM: The Open Source CFD Toolbox
   \\    /   O peration     | Website:  https://openfoam.org
    \\  /    A nd           | Version:  12
     \\/     M anipulation  |
\*---------------------------------------------------------------------------*/
FoamFile
{
    format      ascii;
    class       surfaceScalarField;
    location    "2000";
    object      phi;
}
// * * * * * * * * * * * * * * * * * * * * * * * * * * * * * * * * * * * * * //

dimensions      [0 3 -1 0 0 0 0];

internalField   nonuniform List<scalar> 
25880
(
2.0046355e-06
1.8648164e-11
2.0045767e-06
5.8820294e-11
2.0044841e-06
9.2600513e-11
2.0043708e-06
1.1331455e-10
2.0042407e-06
1.3004645e-10
2.0040953e-06
1.4540955e-10
2.0039354e-06
1.5992185e-10
2.0037613e-06
1.7410425e-10
2.0035727e-06
1.8859718e-10
2.0033687e-06
2.0398136e-10
2.0031479e-06
2.2080191e-10
2.0029082e-06
2.3970996e-10
2.0026466e-06
2.615527e-10
2.002359e-06
2.8765699e-10
2.0020393e-06
3.1963264e-10
2.0016781e-06
3.6124921e-10
2.0012635e-06
4.1457474e-10
2.0007663e-06
4.9721417e-10
2.0001702e-06
5.9611023e-10
1.9993326e-06
8.3756546e-10
1.998303e-06
1.0296514e-09
1.9955376e-06
2.7654061e-09
1.9933095e-06
2.2280949e-09
1.0254746e-06
9.6783488e-07
4.3147165e-08
9.8232744e-07
2.738846e-08
1.5758705e-08
2.5367152e-08
2.0213076e-09
2.4554809e-08
8.1234324e-10
2.397475e-08
5.8005879e-10
2.3477698e-08
4.9705236e-10
2.3038052e-08
4.3964609e-10
2.2644708e-08
3.9334386e-10
2.2289053e-08
3.5565446e-10
2.1964256e-08
3.2479756e-10
2.1665338e-08
2.989173e-10
2.1388602e-08
2.7673645e-10
2.1131132e-08
2.5747039e-10
2.0890533e-08
2.4059813e-10
2.066482e-08
2.2571328e-10
2.0452335e-08
2.1248558e-10
2.0251677e-08
2.0065717e-10
2.0061643e-08
1.9003407e-10
1.9881182e-08
1.8046128e-10
1.9709385e-08
1.7179729e-10
1.954545e-08
1.6393528e-10
1.9388681e-08
1.5676838e-10
1.9238472e-08
1.5020945e-10
1.9094263e-08
1.4420874e-10
1.895557e-08
1.3869271e-10
1.8821968e-08
1.3360275e-10
1.8693052e-08
1.2891556e-10
1.8568466e-08
1.2458624e-10
1.8447899e-08
1.2056622e-10
1.8331062e-08
1.1683756e-10
1.8217677e-08
1.1338499e-10
1.8107508e-08
1.1016881e-10
1.8000346e-08
1.0716207e-10
1.7895981e-08
1.0436461e-10
1.7794218e-08
1.0176338e-10
1.7694891e-08
9.9326969e-11
1.7597852e-08
9.7039023e-11
1.7502948e-08
9.4903961e-11
1.7410032e-08
9.2915963e-11
1.7318983e-08
9.1049239e-11
1.7229693e-08
8.9290222e-11
1.7142047e-08
8.7645473e-11
1.7055934e-08
8.6113134e-11
1.6971256e-08
8.4677762e-11
1.6887931e-08
8.3325768e-11
1.6805874e-08
8.2056557e-11
1.6725e-08
8.0874334e-11
1.6645224e-08
7.9775915e-11
1.6566478e-08
7.874551e-11
1.6488702e-08
7.7775919e-11
1.6411828e-08
7.6874445e-11
1.6335785e-08
7.6042538e-11
1.6260512e-08
7.5272953e-11
1.6185957e-08
7.4555317e-11
1.6112069e-08
7.388809e-11
1.6038791e-08
7.3277779e-11
1.5966065e-08
7.2726488e-11
1.589384e-08
7.2224971e-11
1.5822074e-08
7.1765539e-11
1.5750722e-08
7.1352143e-11
1.5679732e-08
7.0990178e-11
1.5609051e-08
7.0680719e-11
1.5538637e-08
7.041408e-11
1.5468452e-08
7.0185091e-11
1.539845e-08
7.0001681e-11
1.5328582e-08
6.9868625e-11
1.5258798e-08
6.9783589e-11
1.5189059e-08
6.9739333e-11
1.5119324e-08
6.9734501e-11
1.5049546e-08
6.9777966e-11
1.497967e-08
6.9875825e-11
1.490965e-08
7.0020097e-11
1.4839445e-08
7.0205199e-11
1.4769005e-08
7.0440476e-11
1.4698271e-08
7.073411e-11
1.4627186e-08
7.108426e-11
1.4555701e-08
7.1485045e-11
1.4483761e-08
7.1939878e-11
1.4411301e-08
7.2460068e-11
1.4338253e-08
7.3048308e-11
1.4264554e-08
7.3698635e-11
1.4190139e-08
7.4415428e-11
1.4114926e-08
7.5213327e-11
1.4038831e-08
7.6094848e-11
1.3961775e-08
7.7056102e-11
1.3883667e-08
7.8107653e-11
1.3804399e-08
7.9267838e-11
1.3723872e-08
8.0527177e-11
1.3641948e-08
8.1924119e-11
1.3561986e-08
7.9962272e-11
1.3485822e-08
7.6163422e-11
1.3413171e-08
7.2651061e-11
1.3343759e-08
6.9411881e-11
1.3277332e-08
6.642728e-11
1.3213666e-08
6.3666452e-11
1.3152564e-08
6.1101645e-11
1.3093843e-08
5.8720734e-11
1.303733e-08
5.6512963e-11
1.2982874e-08
5.4455936e-11
1.2930344e-08
5.2530325e-11
1.2879614e-08
5.0729486e-11
1.2830565e-08
4.904906e-11
1.278308e-08
4.7485809e-11
1.2737054e-08
4.6025162e-11
1.2692375e-08
4.4679097e-11
1.2648964e-08
4.3411051e-11
1.2606565e-08
4.239957e-11
1.2565279e-08
4.1285636e-11
1.2523893e-08
4.1385831e-11
1.2484424e-08
3.9469695e-11
1.2435768e-08
4.8655998e-11
3.0832807e-11
2.0345091e-06
3.7574385e-11
2.0344494e-06
1.1852143e-10
2.0343554e-06
1.865954e-10
2.0342404e-06
2.2834454e-10
2.0341084e-06
2.6206867e-10
2.0339608e-06
2.9303228e-10
2.0337984e-06
3.2227935e-10
2.0336217e-06
3.5086001e-10
2.0334302e-06
3.8006506e-10
2.0332231e-06
4.1106493e-10
2.0329989e-06
4.4495817e-10
2.0327556e-06
4.8305692e-10
2.0324901e-06
5.2706839e-10
2.0321981e-06
5.7966616e-10
2.0318736e-06
6.4409399e-10
2.0315069e-06
7.2794728e-10
2.0310861e-06
8.3539313e-10
2.0305814e-06
1.0019034e-09
2.0299763e-06
1.2011706e-09
2.0291262e-06
1.6876745e-09
2.0280812e-06
2.0747252e-09
2.0252747e-06
5.5718638e-09
2.0230125e-06
4.4902511e-09
1.0967975e-06
1.89405e-06
1.2950639e-07
1.9496185e-06
8.3804412e-08
6.1460685e-08
7.7621483e-08
8.2042361e-09
7.5134285e-08
3.2995418e-09
7.3357812e-08
2.356531e-09
7.1836656e-08
2.0182084e-09
7.0491448e-08
1.7848547e-09
6.9287914e-08
1.596877e-09
6.8199696e-08
1.4438733e-09
6.7205906e-08
1.3185871e-09
6.6291316e-08
1.2135071e-09
6.54446e-08
1.1234529e-09
6.4656831e-08
1.045239e-09
6.3920685e-08
9.7674451e-10
6.323008e-08
9.1631793e-10
6.2579947e-08
8.6261844e-10
6.1966005e-08
8.1459986e-10
6.1384564e-08
7.7147512e-10
6.0832412e-08
7.3261297e-10
6.0306767e-08
6.9744185e-10
5.9805178e-08
6.6552463e-10
5.9325516e-08
6.3643004e-10
5.8865921e-08
6.0980482e-10
5.8424687e-08
5.8544299e-10
5.8000329e-08
5.6305034e-10
5.7591543e-08
5.4238848e-10
5.71971e-08
5.2335931e-10
5.6815902e-08
5.0578368e-10
5.6447003e-08
4.894649e-10
5.6089513e-08
4.7432816e-10
5.5742587e-08
4.6031089e-10
5.5405501e-08
4.4725475e-10
5.5077613e-08
4.3504962e-10
5.4758286e-08
4.2369251e-10
5.4446917e-08
4.1313157e-10
5.4143003e-08
4.0324107e-10
5.3846089e-08
3.9395373e-10
5.3555707e-08
3.8528579e-10
5.3271408e-08
3.7721433e-10
5.2992821e-08
3.6963642e-10
5.2719615e-08
3.6249636e-10
5.2451442e-08
3.5581896e-10
5.2187957e-08
3.4959762e-10
5.1928864e-08
3.4377039e-10
5.1673908e-08
3.382824e-10
5.1422834e-08
3.3313003e-10
5.1175378e-08
3.2833034e-10
5.0931284e-08
3.2387057e-10
5.0690341e-08
3.1968778e-10
5.0452365e-08
3.1575222e-10
5.0217147e-08
3.1209233e-10
4.9984475e-08
3.0871474e-10
4.9754158e-08
3.0559027e-10
4.9526036e-08
3.0267732e-10
4.9299955e-08
2.9996892e-10
4.9075742e-08
2.9749112e-10
4.8853215e-08
2.9525267e-10
4.8632224e-08
2.9321671e-10
4.8412637e-08
2.9135207e-10
4.8194315e-08
2.8967387e-10
4.7977101e-08
2.8820431e-10
4.7760834e-08
2.8694765e-10
4.7545383e-08
2.8586539e-10
4.7330632e-08
2.8493625e-10
4.7116442e-08
2.8419159e-10
4.6902659e-08
2.8365127e-10
4.6689137e-08
2.8330592e-10
4.647575e-08
2.8312656e-10
4.6262377e-08
2.8310723e-10
4.6048871e-08
2.8328366e-10
4.5835066e-08
2.8368065e-10
4.562082e-08
2.842665e-10
4.5406007e-08
2.8501841e-10
4.5190474e-08
2.8597356e-10
4.4974042e-08
2.871655e-10
4.475654e-08
2.88587e-10
4.453781e-08
2.9021439e-10
4.4317689e-08
2.9206108e-10
4.4095976e-08
2.9417282e-10
4.3872464e-08
2.9656088e-10
4.3646961e-08
2.992013e-10
4.3419265e-08
3.0211152e-10
4.3189128e-08
3.0535067e-10
4.2956293e-08
3.0892946e-10
4.2720517e-08
3.1283221e-10
4.2481523e-08
3.1710134e-10
4.223898e-08
3.218113e-10
4.1992583e-08
3.26924e-10
4.1741911e-08
3.3259579e-10
4.1497242e-08
3.2463111e-10
4.1264198e-08
3.092083e-10
4.10419e-08
2.9494888e-10
4.0829513e-08
2.8179847e-10
4.0626259e-08
2.6968149e-10
4.0431452e-08
2.5847314e-10
4.0244493e-08
2.4806066e-10
4.0064819e-08
2.3839458e-10
3.9891901e-08
2.294313e-10
3.9725277e-08
2.2108016e-10
3.9564545e-08
2.1326264e-10
3.9409323e-08
2.0595148e-10
3.9259243e-08
1.9912911e-10
3.9113946e-08
1.9278233e-10
3.8973119e-08
1.8685213e-10
3.8836411e-08
1.8138709e-10
3.8703584e-08
1.7623809e-10
3.8573853e-08
1.7213089e-10
3.8447535e-08
1.6760344e-10
3.8320908e-08
1.6801266e-10
3.8200215e-08
1.6016301e-10
3.8051052e-08
1.9781888e-10
1.2473734e-10
2.0947016e-06
5.7060679e-11
2.0946401e-06
1.7999371e-10
2.0945433e-06
2.8338759e-10
2.0944249e-06
3.4680824e-10
2.0942889e-06
3.9803988e-10
2.0941369e-06
4.4507524e-10
2.0939696e-06
4.8950014e-10
2.0937876e-06
5.3291018e-10
2.0935904e-06
5.7726631e-10
2.0933771e-06
6.2434642e-10
2.0931462e-06
6.7581916e-10
2.0928956e-06
7.3367741e-10
2.0926222e-06
8.0051402e-10
2.0923215e-06
8.8038932e-10
2.0919873e-06
9.7822952e-10
2.0916097e-06
1.1055692e-09
2.0911764e-06
1.2687367e-09
2.0906567e-06
1.5215999e-09
2.0900336e-06
1.8242081e-09
2.0891583e-06
2.5630139e-09
2.0880822e-06
3.1507936e-09
2.0851929e-06
8.4612216e-09
2.0828637e-06
6.8193541e-09
1.1856915e-06
2.7912222e-06
2.2100228e-07
2.9143077e-06
1.452335e-07
1.3722947e-07
1.3451772e-07
1.8920018e-08
1.3020531e-07
7.6119539e-09
1.2712471e-07
5.4371312e-09
1.2448837e-07
4.6545453e-09
1.2215736e-07
4.1158686e-09
1.2007187e-07
3.6823686e-09
1.1818617e-07
3.3295637e-09
1.1646413e-07
3.040635e-09
1.1487933e-07
2.7983026e-09
1.1341215e-07
2.5906313e-09
1.1204712e-07
2.4102753e-09
1.1077153e-07
2.2523343e-09
1.0957485e-07
2.1129965e-09
1.084483e-07
1.9891702e-09
1.0738445e-07
1.878444e-09
1.0637692e-07
1.7790034e-09
1.0542015e-07
1.6893904e-09
1.045093e-07
1.6082905e-09
1.0364013e-07
1.5346914e-09
1.0280896e-07
1.4676021e-09
1.0201256e-07
1.4062085e-09
1.0124797e-07
1.3500301e-09
1.0051262e-07
1.2983948e-09
9.980426e-08
1.2507521e-09
9.9120749e-08
1.2068708e-09
9.846019e-08
1.1663421e-09
9.7820942e-08
1.1287136e-09
9.720146e-08
1.0938095e-09
9.6600286e-08
1.0614848e-09
9.6016162e-08
1.0313787e-09
9.5447976e-08
1.0032361e-09
9.4894622e-08
9.7704646e-10
9.4355062e-08
9.5269205e-10
9.3828417e-08
9.2988582e-10
9.3313899e-08
9.0847112e-10
9.2810703e-08
8.8848271e-10
9.2318048e-08
8.6986882e-10
9.1835289e-08
8.5239506e-10
9.1361854e-08
8.3593189e-10
9.0897139e-08
8.2053368e-10
9.044055e-08
8.0618656e-10
8.9991572e-08
7.9274905e-10
8.9549759e-08
7.80095e-10
8.9114675e-08
7.6821423e-10
8.8685859e-08
7.5714585e-10
8.8262869e-08
7.4686089e-10
8.7845341e-08
7.3721606e-10
8.7432951e-08
7.2814188e-10
8.7025341e-08
7.1970207e-10
8.6622143e-08
7.1191291e-10
8.6223026e-08
7.0470769e-10
8.5827712e-08
6.9799128e-10
8.5435934e-08
6.917464e-10
8.5047393e-08
6.860325e-10
8.4661775e-08
6.8087009e-10
8.4278817e-08
6.7617537e-10
8.3898292e-08
6.7187648e-10
8.3519959e-08
6.6800683e-10
8.3143546e-08
6.6461791e-10
8.2768774e-08
6.6171964e-10
8.2395415e-08
6.5922442e-10
8.2023268e-08
6.5708275e-10
8.1652094e-08
6.5536561e-10
8.1281626e-08
6.5411949e-10
8.0911609e-08
6.5332304e-10
8.0541825e-08
6.5291008e-10
8.0172066e-08
6.5286618e-10
7.9802077e-08
6.5327311e-10
7.9431569e-08
6.5418827e-10
7.9060296e-08
6.5553968e-10
7.868804e-08
6.5727447e-10
7.8314536e-08
6.5947729e-10
7.7939476e-08
6.6222587e-10
7.7562559e-08
6.6550409e-10
7.7183516e-08
6.6925758e-10
7.680206e-08
6.7351664e-10
7.6417847e-08
6.7838642e-10
7.6030514e-08
6.8389353e-10
7.5639732e-08
6.8998311e-10
7.5245149e-08
6.9669474e-10
7.4846335e-08
7.0416443e-10
7.4442847e-08
7.124176e-10
7.4034261e-08
7.2141821e-10
7.3620099e-08
7.3126345e-10
7.3199785e-08
7.4212494e-10
7.2772794e-08
7.5391556e-10
7.2338393e-08
7.6699614e-10
7.1914395e-08
7.4862908e-10
7.1510541e-08
7.1306244e-10
7.1125311e-08
6.8017915e-10
7.0757256e-08
6.4985328e-10
7.0405027e-08
6.2191035e-10
7.0067437e-08
5.9606306e-10
6.9743447e-08
5.7205122e-10
6.9432081e-08
5.4976035e-10
6.9132422e-08
5.2908996e-10
6.8843671e-08
5.0983149e-10
6.856513e-08
4.9180373e-10
6.8296138e-08
4.7494338e-10
6.8036057e-08
4.5921009e-10
6.7784266e-08
4.4457335e-10
6.7540221e-08
4.3089733e-10
6.7303314e-08
4.1829379e-10
6.7073134e-08
4.0641831e-10
6.6848321e-08
3.9694402e-10
6.6629427e-08
3.8649754e-10
6.6410005e-08
3.8743449e-10
6.6200912e-08
3.6925579e-10
6.5942226e-08
4.5650523e-10
2.8717383e-10
2.1861099e-06
7.7397459e-11
2.1860457e-06
2.4415409e-10
2.1859447e-06
3.8442255e-10
2.185821e-06
4.7047673e-10
2.1856791e-06
5.3999445e-10
2.1855203e-06
6.0381419e-10
2.1853457e-06
6.6408755e-10
2.1851557e-06
7.2298011e-10
2.1849498e-06
7.8315278e-10
2.1847271e-06
8.4701782e-10
2.1844861e-06
9.1683914e-10
2.1842245e-06
9.9532035e-10
2.183939e-06
1.0859788e-09
2.1836251e-06
1.1943222e-09
2.1832762e-06
1.3270328e-09
2.1828821e-06
1.4997566e-09
2.1824297e-06
1.7210775e-09
2.1818873e-06
2.0640626e-09
2.1812369e-06
2.474522e-09
2.1803233e-06
3.4766426e-09
2.1792002e-06
4.2739072e-09
2.176185e-06
1.147645e-08
2.1737542e-06
9.2501091e-09
1.2957769e-06
3.6691995e-06
3.2274056e-07
3.8873441e-06
2.1532607e-07
2.4464396e-07
1.99444e-07
3.4802084e-08
1.9304593e-07
1.4010024e-08
1.884762e-07
1.0006863e-08
1.8456776e-07
8.5629802e-09
1.8111255e-07
7.5710827e-09
1.780213e-07
6.7736192e-09
1.7522616e-07
6.1247046e-09
1.7267358e-07
5.5932115e-09
1.7032446e-07
5.147425e-09
1.6814968e-07
4.7654148e-09
1.6612628e-07
4.4336677e-09
1.6423546e-07
4.1431554e-09
1.624616e-07
3.8868598e-09
1.6079168e-07
3.6590939e-09
1.5921469e-07
3.4554248e-09
1.5772118e-07
3.2725149e-09
1.5630289e-07
3.10768e-09
1.5495268e-07
2.9585058e-09
1.5366424e-07
2.8231252e-09
1.5243213e-07
2.6997203e-09
1.5125154e-07
2.5867939e-09
1.5011812e-07
2.4834548e-09
1.4902804e-07
2.3884754e-09
1.4797795e-07
2.3008424e-09
1.4696469e-07
2.2201231e-09
1.4598546e-07
2.1455715e-09
1.4503782e-07
2.0763581e-09
1.4411947e-07
2.012154e-09
1.4322827e-07
1.9526912e-09
1.4236233e-07
1.8973128e-09
1.4152002e-07
1.8455481e-09
1.406997e-07
1.797372e-09
1.3989982e-07
1.7525704e-09
1.3911908e-07
1.71062e-09
1.3835632e-07
1.6712306e-09
1.3761035e-07
1.6344614e-09
1.3688e-07
1.6002191e-09
1.3616431e-07
1.5680773e-09
1.3546245e-07
1.537796e-09
1.3477351e-07
1.5094707e-09
1.3409662e-07
1.4830777e-09
1.3343101e-07
1.4583594e-09
1.3277602e-07
1.4350841e-09
1.3213101e-07
1.4132304e-09
1.3149528e-07
1.3928694e-09
1.3086819e-07
1.373949e-09
1.302492e-07
1.3562084e-09
1.2963783e-07
1.3395184e-09
1.2903353e-07
1.3239932e-09
1.2843578e-07
1.3096643e-09
1.2784408e-07
1.2964101e-09
1.2725801e-07
1.2840566e-09
1.2667719e-07
1.2725705e-09
1.2610116e-07
1.2620597e-09
1.2552947e-07
1.2525627e-09
1.2496172e-07
1.2439273e-09
1.2439757e-07
1.2360213e-09
1.2383668e-07
1.2289039e-09
1.2327863e-07
1.22267e-09
1.2272301e-07
1.2173383e-09
1.2216948e-07
1.2127495e-09
1.2161775e-07
1.2088118e-09
1.2106746e-07
1.2056537e-09
1.2051822e-07
1.2033616e-09
1.1996965e-07
1.201897e-09
1.1942142e-07
1.201139e-09
1.1887323e-07
1.20106e-09
1.1832469e-07
1.2018093e-09
1.1777538e-07
1.203493e-09
1.1722494e-07
1.2059804e-09
1.1667304e-07
1.2091738e-09
1.1611929e-07
1.2132272e-09
1.1556324e-07
1.2182841e-09
1.1500442e-07
1.2243158e-09
1.1444246e-07
1.2312226e-09
1.1387692e-07
1.2390593e-09
1.1330728e-07
1.2480187e-09
1.1273303e-07
1.2581508e-09
1.1215366e-07
1.2693552e-09
1.1156865e-07
1.2817039e-09
1.1097736e-07
1.2954464e-09
1.1037915e-07
1.3106307e-09
1.0977338e-07
1.3271906e-09
1.0915934e-07
1.345304e-09
1.0853618e-07
1.3652864e-09
1.0790311e-07
1.3869789e-09
1.0725906e-07
1.4110454e-09
1.0663044e-07
1.3772566e-09
1.0603167e-07
1.3118248e-09
1.0546052e-07
1.2513301e-09
1.0491484e-07
1.1955403e-09
1.0439261e-07
1.1441338e-09
1.0389209e-07
1.0965831e-09
1.0341173e-07
1.0524092e-09
1.0295009e-07
1.0114008e-09
1.0250581e-07
9.7337325e-10
1.020777e-07
9.3794355e-10
1.0166472e-07
9.0477821e-10
1.0126591e-07
8.7376005e-10
1.008803e-07
8.4481503e-10
1.0050699e-07
8.17887e-10
1.0014516e-07
7.927265e-10
9.9793915e-08
7.6953846e-10
9.9452644e-08
7.4768911e-10
9.9119336e-08
7.3025289e-10
9.8794804e-08
7.1102864e-10
9.8469511e-08
7.1272769e-10
9.8159558e-08
6.7920878e-10
9.7775903e-08
8.4016069e-10
5.2783636e-10
2.3100962e-06
9.8887813e-11
2.3100284e-06
3.119599e-10
2.3099216e-06
4.9121005e-10
2.3097909e-06
6.0120072e-10
2.3096408e-06
6.900589e-10
2.309473e-06
7.7162835e-10
2.3092884e-06
8.4865885e-10
2.3090875e-06
9.2391917e-10
2.3088698e-06
1.0008105e-09
2.3086344e-06
1.082416e-09
2.3083796e-06
1.1716288e-09
2.3081031e-06
1.271904e-09
2.3078013e-06
1.387736e-09
2.3074695e-06
1.5261624e-09
2.3071008e-06
1.6957213e-09
2.3066841e-06
1.9164032e-09
2.306206e-06
2.1991758e-09
2.3056327e-06
2.6373948e-09
2.3049454e-06
3.161823e-09
2.3039798e-06
4.4421951e-09
2.3027929e-06
5.4608235e-09
2.299607e-06
1.466237e-08
2.2970384e-06
1.1818708e-08
1.4309262e-06
4.5353117e-06
4.4009712e-07
4.8781731e-06
2.9821666e-07
3.8652443e-07
2.7623825e-07
5.678049e-08
2.6736835e-07
2.2879933e-08
2.6103782e-07
1.6337391e-08
2.5562684e-07
1.3973961e-08
2.5084409e-07
1.2353826e-08
2.4656514e-07
1.1052576e-08
2.4269593e-07
9.9939152e-09
2.3916243e-07
9.1267037e-09
2.3591055e-07
8.3993135e-09
2.3289995e-07
7.7760072e-09
2.3009888e-07
7.234736e-09
2.2748129e-07
6.7607482e-09
2.2502557e-07
6.3425817e-09
2.2271371e-07
5.970959e-09
2.2053048e-07
5.6386515e-09
2.1846278e-07
5.3402142e-09
2.1649919e-07
5.0712646e-09
2.1462983e-07
4.8278684e-09
2.1284598e-07
4.6069729e-09
2.1114009e-07
4.405619e-09
2.0950552e-07
4.221364e-09
2.0793623e-07
4.0527437e-09
2.0642693e-07
3.8977672e-09
2.04973e-07
3.7547813e-09
2.0357005e-07
3.6230681e-09
2.022142e-07
3.5014197e-09
2.0090207e-07
3.3884867e-09
1.996305e-07
3.2837237e-09
1.983965e-07
3.1866921e-09
1.9719749e-07
3.0963303e-09
1.9603117e-07
3.0118681e-09
1.9489528e-07
2.9332552e-09
1.9378771e-07
2.8601464e-09
1.9270663e-07
2.7916956e-09
1.9165044e-07
2.7274253e-09
1.9061747e-07
2.6674254e-09
1.8960614e-07
2.6115465e-09
1.8861512e-07
2.5591001e-09
1.8764323e-07
2.5096919e-09
1.8668923e-07
2.463471e-09
1.857519e-07
2.420401e-09
1.848302e-07
2.3800663e-09
1.8392319e-07
2.3420892e-09
1.8302999e-07
2.3064305e-09
1.8214966e-07
2.2732048e-09
1.8128127e-07
2.2423292e-09
1.804241e-07
2.2133824e-09
1.7957747e-07
2.1861513e-09
1.7874064e-07
2.1608181e-09
1.7791287e-07
2.1374354e-09
1.7709347e-07
2.1158077e-09
1.7628188e-07
2.0956524e-09
1.7547754e-07
2.0769122e-09
1.7467984e-07
2.0597614e-09
1.7388813e-07
2.0442641e-09
1.7310189e-07
2.0301748e-09
1.7232063e-07
2.0172775e-09
1.7154387e-07
2.0056659e-09
1.7077104e-07
1.9954945e-09
1.7000159e-07
1.9867951e-09
1.6923503e-07
1.9793103e-09
1.6847095e-07
1.9728892e-09
1.6770886e-07
1.9677384e-09
1.6694823e-07
1.9639999e-09
1.6618851e-07
1.9616125e-09
1.6542927e-07
1.9603799e-09
1.6467007e-07
1.9602557e-09
1.639104e-07
1.9614817e-09
1.6314966e-07
1.9642318e-09
1.6238735e-07
1.9682953e-09
1.6162301e-07
1.9735124e-09
1.608561e-07
1.9801315e-09
1.60086e-07
1.9883874e-09
1.5931208e-07
1.9982351e-09
1.5853379e-07
2.0095124e-09
1.5775054e-07
2.022307e-09
1.5696163e-07
2.0369328e-09
1.5616631e-07
2.0534728e-09
1.553639e-07
2.0717644e-09
1.5455368e-07
2.0919234e-09
1.5373477e-07
2.1143562e-09
1.5290626e-07
2.1391426e-09
1.5206727e-07
2.1661756e-09
1.5121683e-07
2.1957433e-09
1.5035376e-07
2.2283608e-09
1.4947697e-07
2.2637706e-09
1.4858496e-07
2.3030569e-09
1.477143e-07
2.2479121e-09
1.4688501e-07
2.1411191e-09
1.4609395e-07
2.0423849e-09
1.4533816e-07
1.9513292e-09
1.4461487e-07
1.8674274e-09
1.4392163e-07
1.7898189e-09
1.4325632e-07
1.7177219e-09
1.4261693e-07
1.6507906e-09
1.4200158e-07
1.5887238e-09
1.4140863e-07
1.5308976e-09
1.4083664e-07
1.4767674e-09
1.4028426e-07
1.4261409e-09
1.3975017e-07
1.3788975e-09
1.3923311e-07
1.3349456e-09
1.3873196e-07
1.2938787e-09
1.3824547e-07
1.25603e-09
1.3777279e-07
1.2203655e-09
1.3731115e-07
1.1918951e-09
1.3686167e-07
1.1605122e-09
1.3641116e-07
1.1632337e-09
1.3598192e-07
1.1084521e-09
1.3545045e-07
1.3716318e-09
8.6105668e-10
2.4685082e-06
1.2185203e-10
2.4684357e-06
3.8442319e-10
2.4683216e-06
6.0534697e-10
2.4681819e-06
7.4093868e-10
2.4680214e-06
8.5048432e-10
2.467842e-06
9.5103675e-10
2.4676447e-06
1.0459854e-09
2.4674299e-06
1.1387444e-09
2.4671972e-06
1.233507e-09
2.4669455e-06
1.3340736e-09
2.4666731e-06
1.4440106e-09
2.4663775e-06
1.5675759e-09
2.4660549e-06
1.7103086e-09
2.4657002e-06
1.8808812e-09
2.4653061e-06
2.0898151e-09
2.4648607e-06
2.3617438e-09
2.4643497e-06
2.7101822e-09
2.463737e-06
3.2501664e-09
2.4630024e-06
3.8963798e-09
2.4619705e-06
5.4740865e-09
2.4607021e-06
6.7292575e-09
2.4572982e-06
1.8066303e-08
2.4545535e-06
1.4563346e-08
1.5953715e-06
5.3944938e-06
5.7891615e-07
5.8946284e-06
3.9871673e-07
5.6672384e-07
3.6937633e-07
8.6120893e-08
3.5750201e-07
3.4754256e-08
3.4904021e-07
2.4799187e-08
3.418127e-07
2.1201475e-08
3.3542531e-07
1.8741211e-08
3.2971056e-07
1.6767332e-08
3.245427e-07
1.5161771e-08
3.1982304e-07
1.3846362e-08
3.1547937e-07
1.2742987e-08
3.1145786e-07
1.1797517e-08
3.0771608e-07
1.0976511e-08
3.0421927e-07
1.0257562e-08
3.0093858e-07
9.6232693e-09
2.9784998e-07
9.0595635e-09
2.9493314e-07
8.5554883e-09
2.9217057e-07
8.1027853e-09
2.8954703e-07
7.6948047e-09
2.8704931e-07
7.3255864e-09
2.846658e-07
6.9904885e-09
2.8238638e-07
6.685036e-09
2.8020222e-07
6.405523e-09
2.7810525e-07
6.1497142e-09
2.7608841e-07
5.9146078e-09
2.7414549e-07
5.6976954e-09
2.7227069e-07
5.4978716e-09
2.7045879e-07
5.3133172e-09
2.6870529e-07
5.1419919e-09
2.6700596e-07
4.983055e-09
2.6535681e-07
4.8358398e-09
2.6375439e-07
4.6987507e-09
2.6219564e-07
4.570616e-09
2.6067755e-07
4.4513459e-09
2.5919727e-07
4.3404228e-09
2.5775239e-07
4.2365747e-09
2.5634075e-07
4.1390717e-09
2.5496013e-07
4.0480394e-09
2.5360842e-07
3.9632558e-09
2.5228384e-07
3.8836877e-09
2.509848e-07
3.8087325e-09
2.4970966e-07
3.7386061e-09
2.4845681e-07
3.6732572e-09
2.4722481e-07
3.6120622e-09
2.4601245e-07
3.5544485e-09
2.4481853e-07
3.5003504e-09
2.436418e-07
3.4499396e-09
2.4248103e-07
3.4030936e-09
2.4133523e-07
3.3591794e-09
2.4020351e-07
3.3178706e-09
2.390849e-07
3.2794367e-09
2.3797837e-07
3.2439603e-09
2.3688303e-07
3.2111488e-09
2.3579811e-07
3.1805749e-09
2.3472287e-07
3.1521484e-09
2.336565e-07
3.1261301e-09
2.3259815e-07
3.1026192e-09
2.3154707e-07
3.081248e-09
2.3050266e-07
3.0616884e-09
2.2946425e-07
3.0440777e-09
2.284311e-07
3.0286503e-09
2.2740244e-07
3.015456e-09
2.2637764e-07
3.0041083e-09
2.2535615e-07
2.9943766e-09
2.2433732e-07
2.9865697e-09
2.2332041e-07
2.9809047e-09
2.2230474e-07
2.977291e-09
2.2128968e-07
2.9754326e-09
2.2027468e-07
2.9752565e-09
2.1925904e-07
2.9771272e-09
2.1824196e-07
2.9813097e-09
2.1722276e-07
2.9874886e-09
2.1620086e-07
2.99542e-09
2.1517551e-07
3.0054771e-09
2.1414588e-07
3.0180171e-09
2.1311114e-07
3.0329744e-09
2.1207055e-07
3.0501037e-09
2.1102332e-07
3.0695353e-09
2.0996851e-07
3.0917446e-09
2.0890512e-07
3.1168601e-09
2.0783225e-07
3.1446363e-09
2.0674893e-07
3.1752468e-09
2.0565398e-07
3.2093068e-09
2.0454618e-07
3.2469407e-09
2.0342437e-07
3.2879862e-09
2.0228723e-07
3.3328784e-09
2.011332e-07
3.382399e-09
1.9996081e-07
3.43616e-09
1.9876806e-07
3.4958078e-09
1.9760385e-07
3.412116e-09
1.9649495e-07
3.2500242e-09
1.9543717e-07
3.1001647e-09
1.9442654e-07
2.9619593e-09
1.9345935e-07
2.8346109e-09
1.9253236e-07
2.7168151e-09
1.9164269e-07
2.607385e-09
1.9078769e-07
2.5057938e-09
1.8996483e-07
2.411585e-09
1.8917191e-07
2.3238136e-09
1.8840703e-07
2.2416524e-09
1.8766836e-07
2.1648081e-09
1.8695416e-07
2.0930978e-09
1.8626272e-07
2.0263825e-09
1.8559256e-07
1.9640465e-09
1.8494199e-07
1.9065932e-09
1.843099e-07
1.8524547e-09
1.8369258e-07
1.8092205e-09
1.8309151e-07
1.7615789e-09
1.8248913e-07
1.7656196e-09
1.8191518e-07
1.6823965e-09
1.8120439e-07
2.082422e-09
1.3065955e-09
2.6637066e-06
1.4663239e-10
2.6636284e-06
4.6262592e-10
2.6635052e-06
7.2854148e-10
2.6633544e-06
8.9178671e-10
2.6631812e-06
1.0236809e-09
2.6629875e-06
1.1447371e-09
2.6627744e-06
1.2590351e-09
2.6625425e-06
1.3706871e-09
2.6622912e-06
1.4847416e-09
2.6620195e-06
1.6057739e-09
2.6617255e-06
1.7380771e-09
2.6614063e-06
1.8867763e-09
2.661058e-06
2.0585379e-09
2.6606751e-06
2.263799e-09
2.6602497e-06
2.5152214e-09
2.659769e-06
2.8424493e-09
2.6592174e-06
3.2617463e-09
2.6585561e-06
3.9115436e-09
2.6577633e-06
4.6891735e-09
2.6566496e-06
6.5877286e-09
2.6552807e-06
8.098148e-09
2.6516083e-06
2.1738762e-08
2.6486468e-06
1.7524814e-08
1.7937631e-06
6.2493775e-06
7.4565152e-07
6.9427401e-06
5.2249974e-07
7.8987562e-07
4.8414943e-07
1.2447121e-07
4.6857086e-07
5.0332825e-08
4.574953e-07
3.5874749e-08
4.4804299e-07
3.0653784e-08
4.3969053e-07
2.7093671e-08
4.3221704e-07
2.4240824e-08
4.2545798e-07
2.1920824e-08
4.1928459e-07
2.001976e-08
4.1360255e-07
1.8425021e-08
4.0834156e-07
1.7058513e-08
4.0344615e-07
1.5871915e-08
3.9887091e-07
1.4832808e-08
3.9457816e-07
1.391602e-08
3.905365e-07
1.3101224e-08
3.8671938e-07
1.2372601e-08
3.8310395e-07
1.1718218e-08
3.7967029e-07
1.1128464e-08
3.7640115e-07
1.059473e-08
3.7328133e-07
1.0110305e-08
3.7029764e-07
9.6687294e-09
3.6743851e-07
9.2646498e-09
3.6469341e-07
8.8948156e-09
3.620531e-07
8.5549143e-09
3.5950948e-07
8.2413198e-09
3.5705494e-07
7.9524107e-09
3.5468268e-07
7.6855763e-09
3.5238679e-07
7.437878e-09
3.5016177e-07
7.2080804e-09
3.4800239e-07
6.9952181e-09
3.4590413e-07
6.7970064e-09
3.43863e-07
6.6117471e-09
3.4187506e-07
6.4392901e-09
3.3993659e-07
6.2788963e-09
3.3804442e-07
6.128744e-09
3.3619572e-07
5.9877699e-09
3.3438762e-07
5.8561394e-09
3.3261734e-07
5.7335389e-09
3.3088253e-07
5.6184912e-09
3.2918115e-07
5.5101187e-09
3.2751103e-07
5.4087184e-09
3.2587007e-07
5.3142212e-09
3.2425639e-07
5.2257368e-09
3.2266841e-07
5.1424376e-09
3.2110454e-07
5.0642193e-09
3.1956315e-07
4.9913265e-09
3.1804266e-07
4.9235877e-09
3.1654174e-07
4.8600969e-09
3.1505923e-07
4.800377e-09
3.1359386e-07
4.7448079e-09
3.1214431e-07
4.6935126e-09
3.1070938e-07
4.6460744e-09
3.0928808e-07
4.6018782e-09
3.0787944e-07
4.5607874e-09
3.064824e-07
4.5231746e-09
3.0509583e-07
4.4891862e-09
3.0371878e-07
4.4582975e-09
3.0235043e-07
4.4300332e-09
3.0098993e-07
4.4045852e-09
2.9963629e-07
4.3822916e-09
2.9828851e-07
4.3632277e-09
2.9694578e-07
4.3468403e-09
2.9560737e-07
4.3327933e-09
2.9427241e-07
4.3215266e-09
2.9293996e-07
4.3133561e-09
2.9160909e-07
4.3081551e-09
2.9027903e-07
4.3054974e-09
2.8894901e-07
4.3052745e-09
2.8761813e-07
4.3080092e-09
2.8628535e-07
4.3140869e-09
2.8494978e-07
4.3230578e-09
2.8361063e-07
4.3345673e-09
2.8226696e-07
4.3491493e-09
2.8091766e-07
4.3673221e-09
2.7956164e-07
4.3889951e-09
2.7819793e-07
4.4138142e-09
2.768255e-07
4.4419645e-09
2.7544311e-07
4.4741318e-09
2.7404946e-07
4.5105059e-09
2.7264337e-07
4.5507338e-09
2.7122355e-07
4.5950634e-09
2.6978847e-07
4.644383e-09
2.6833654e-07
4.6988764e-09
2.6686621e-07
4.7583104e-09
2.6537578e-07
4.8233106e-09
2.6386317e-07
4.895008e-09
2.6232649e-07
4.9728461e-09
2.6076309e-07
5.0592082e-09
2.5923708e-07
4.9381219e-09
2.5778354e-07
4.7035663e-09
2.5639699e-07
4.4867116e-09
2.5507223e-07
4.2867194e-09
2.5380441e-07
4.1024357e-09
2.5258925e-07
3.9319755e-09
2.5142301e-07
3.7736207e-09
2.503022e-07
3.6266067e-09
2.4922351e-07
3.490274e-09
2.4818406e-07
3.3632576e-09
2.4718136e-07
3.24436e-09
2.4621301e-07
3.1331546e-09
2.4527673e-07
3.0293767e-09
2.4437029e-07
2.932826e-09
2.4349172e-07
2.8426129e-09
2.4263885e-07
2.7594624e-09
2.418102e-07
2.6811085e-09
2.4100091e-07
2.6185101e-09
2.4021293e-07
2.549558e-09
2.3942329e-07
2.5552617e-09
2.3867093e-07
2.4347532e-09
2.3773902e-07
3.0143337e-09
1.8906768e-09
2.8986003e-06
1.7359821e-10
2.8985152e-06
5.4773622e-10
2.8983811e-06
8.6263892e-10
2.8982169e-06
1.0560107e-09
2.8980283e-06
1.2122554e-09
2.8978174e-06
1.3556475e-09
2.8975854e-06
1.4910191e-09
2.8973328e-06
1.6232429e-09
2.8970593e-06
1.7582997e-09
2.8967635e-06
1.9016089e-09
2.8964433e-06
2.0582547e-09
2.8960957e-06
2.2343066e-09
2.8957166e-06
2.4376581e-09
2.8952998e-06
2.6806671e-09
2.8948367e-06
2.9783249e-09
2.8943134e-06
3.3657282e-09
2.893713e-06
3.8621325e-09
2.8929931e-06
4.6314274e-09
2.8921302e-06
5.5520642e-09
2.8909182e-06
7.7997619e-09
2.8894284e-06
9.5879423e-09
2.885433e-06
2.5734175e-08
2.8822107e-06
2.0747096e-08
2.0311796e-06
7.1004085e-06
9.4742828e-07
8.0264914e-06
6.7623917e-07
1.0610647e-06
6.2680241e-07
1.7390798e-07
6.0663435e-07
7.0500881e-08
5.9233984e-07
5.0169266e-08
5.8015196e-07
4.2841661e-08
5.6938332e-07
3.7862305e-08
5.5974648e-07
3.3877664e-08
5.5102925e-07
3.0638059e-08
5.4306609e-07
2.7982914e-08
5.3573573e-07
2.5755383e-08
5.2894764e-07
2.3846607e-08
5.2263042e-07
2.2189127e-08
5.1672562e-07
2.0737612e-08
5.1118476e-07
1.9456881e-08
5.0596742e-07
1.8318559e-08
5.0103945e-07
1.7300577e-08
4.9637139e-07
1.6386276e-08
4.9193762e-07
1.5562232e-08
4.8771592e-07
1.4816436e-08
4.8368672e-07
1.4139502e-08
4.7983302e-07
1.3522429e-08
4.7613993e-07
1.2957741e-08
4.7259387e-07
1.244087e-08
4.6918296e-07
1.196583e-08
4.6589672e-07
1.1527556e-08
4.6272538e-07
1.1123748e-08
4.5966017e-07
1.0750788e-08
4.5669347e-07
1.0404584e-08
4.5381817e-07
1.0083382e-08
4.5102755e-07
9.7858316e-09
4.4831579e-07
9.508772e-09
4.4567771e-07
9.2498233e-09
4.4310825e-07
9.0087474e-09
4.4060262e-07
8.7845248e-09
4.3815673e-07
8.5746349e-09
4.3576692e-07
8.3775794e-09
4.334295e-07
8.193567e-09
4.3114087e-07
8.0221698e-09
4.2889801e-07
7.8613475e-09
4.2669826e-07
7.7098639e-09
4.2453887e-07
7.5681127e-09
4.2241709e-07
7.4360048e-09
4.2033051e-07
7.3123123e-09
4.1827707e-07
7.1958785e-09
4.1625474e-07
7.0865444e-09
4.1426142e-07
6.9846466e-09
4.1229506e-07
6.889954e-09
4.1035394e-07
6.8012131e-09
4.0843657e-07
6.7177497e-09
4.065413e-07
6.6400806e-09
4.0466643e-07
6.5683831e-09
4.0281042e-07
6.5020844e-09
4.0097197e-07
6.4403277e-09
3.9914984e-07
6.3829141e-09
3.9734266e-07
6.3303572e-09
3.9554898e-07
6.2828666e-09
3.9376756e-07
6.239719e-09
3.9199734e-07
6.2002485e-09
3.9023721e-07
6.1647134e-09
3.8848592e-07
6.1335857e-09
3.8674217e-07
6.1069757e-09
3.8500489e-07
6.084118e-09
3.8327315e-07
6.0645385e-09
3.8154583e-07
6.0488433e-09
3.7982171e-07
6.0374768e-09
3.780996e-07
6.0302683e-09
3.7637847e-07
6.0266249e-09
3.7465735e-07
6.0263898e-09
3.7293507e-07
6.0302883e-09
3.712103e-07
6.0388634e-09
3.6948186e-07
6.0514943e-09
3.6774875e-07
6.0676831e-09
3.6600973e-07
6.0881679e-09
3.6426337e-07
6.1136761e-09
3.6250828e-07
6.1440875e-09
3.6074319e-07
6.1789081e-09
3.5896676e-07
6.2183916e-09
3.571774e-07
6.2634954e-09
3.5537341e-07
6.3144904e-09
3.5355326e-07
6.3708866e-09
3.517153e-07
6.4330258e-09
3.4985753e-07