/*--------------------------------*- C++ -*----------------------------------*\
  =========                 |
  \\      /  F ield         | OpenFOAM: The Open Source CFD Toolbox
   \\    /   O peration     | Website:  https://openfoam.org
    \\  /    A nd           | Version:  12
     \\/     M anipulation  |
\*---------------------------------------------------------------------------*/
FoamFile
{
    format      ascii;
    class       volScalarField;
    location    "1200";
    object      k;
}
// * * * * * * * * * * * * * * * * * * * * * * * * * * * * * * * * * * * * * //

dimensions      [0 2 -2 0 0 0 0];

internalField   nonuniform List<scalar> 
13056
(
7.9778969e-05
2.7587793e-05
1.6066753e-05
1.2125408e-05
1.0529283e-05
9.7294309e-06
9.2467346e-06
8.9171237e-06
8.6754091e-06
8.4907617e-06
8.3460353e-06
8.2304742e-06
8.1368007e-06
8.0598629e-06
7.9959027e-06
7.9421269e-06
7.8963815e-06
7.8571293e-06
7.8226392e-06
7.7936926e-06
7.762055e-06
7.7540314e-06
7.6602876e-06
9.8783829e-06
1.2316361e-09
1.6500689e-08
3.0932421e-08
3.4764141e-08
3.3830773e-08
3.1870936e-08
3.009027e-08
2.8586797e-08
2.7286719e-08
2.6149844e-08
2.5149231e-08
2.425993e-08
2.3439908e-08
2.2688785e-08
2.2000115e-08
2.1368603e-08
2.0788131e-08
2.0251059e-08
1.9752025e-08
1.928706e-08
1.8851302e-08
1.8442069e-08
1.8056641e-08
1.7692811e-08
1.7348731e-08
1.7022165e-08
1.6712107e-08
1.6416738e-08
1.6134459e-08
1.5864737e-08
1.5606383e-08
1.5358215e-08
1.5119844e-08
1.4890449e-08
1.4669036e-08
1.4455291e-08
1.4248778e-08
1.4048766e-08
1.3854776e-08
1.3666664e-08
1.3482912e-08
1.3303361e-08
1.3128479e-08
1.2958164e-08
1.2792083e-08
1.2629883e-08
1.2471403e-08
1.2316491e-08
1.2164847e-08
1.2016207e-08
1.1870473e-08
1.1727551e-08
1.1587184e-08
1.144917e-08
1.1313423e-08
1.117992e-08
1.1048479e-08
1.0918871e-08
1.0790996e-08
1.0664898e-08
1.0540465e-08
1.0417447e-08
1.0295746e-08
1.0175395e-08
1.005636e-08
9.9384645e-09
9.8215539e-09
9.7056111e-09
9.5906858e-09
9.4766305e-09
9.3632335e-09
9.2504493e-09
9.1383748e-09
9.0268961e-09
8.9156871e-09
8.8047742e-09
8.6942785e-09
8.5840933e-09
8.4739934e-09
8.3639087e-09
8.2539328e-09
8.1439149e-09
8.0336118e-09
7.9230261e-09
7.8121745e-09
7.7008481e-09
7.5888922e-09
7.4763633e-09
7.363095e-09
7.2512679e-09
7.1445346e-09
7.0436417e-09
6.9473565e-09
6.8560111e-09
6.7693143e-09
6.6868306e-09
6.6081368e-09
6.5329649e-09
6.4611408e-09
6.3924087e-09
6.3264651e-09
6.2630887e-09
6.2021624e-09
6.1435617e-09
6.0871093e-09
6.0325575e-09
5.9798119e-09
5.9284315e-09
5.8790297e-09
5.8287783e-09
5.7841397e-09
5.7119127e-09
7.9778955e-05
2.7588153e-05
1.6066336e-05
1.2124669e-05
1.0528349e-05
9.7283577e-06
9.2455606e-06
8.9158754e-06
8.6741043e-06
8.4894127e-06
8.3446506e-06
8.2290601e-06
8.135362e-06
8.0584032e-06
7.9944252e-06
7.9406339e-06
7.8948748e-06
7.8556105e-06
7.8211097e-06
7.7921529e-06
7.7605108e-06
7.7525138e-06
7.6585477e-06
9.868956e-06
1.1529319e-08
4.9525873e-07
9.2841719e-07
1.0434236e-06
1.0154094e-06
9.5658656e-07
9.0314132e-07
8.5801574e-07
8.1899488e-07
7.848724e-07
7.5483973e-07
7.28148e-07
7.0353563e-07
6.8099118e-07
6.6032122e-07
6.4136683e-07
6.2394434e-07
6.0782448e-07
5.9284631e-07
5.788907e-07
5.658117e-07
5.5352883e-07
5.4196046e-07
5.3104032e-07
5.2071298e-07
5.1091132e-07
5.0160512e-07
4.9273981e-07
4.8426735e-07
4.7617183e-07
4.684175e-07
4.6096889e-07
4.5381431e-07
4.4692915e-07
4.4028358e-07
4.3386817e-07
4.2766979e-07
4.2166654e-07
4.1584406e-07
4.1019798e-07
4.0468278e-07
3.9929365e-07
3.9404467e-07
3.8893276e-07
3.8394794e-07
3.790796e-07
3.7432292e-07
3.6967333e-07
3.6512183e-07
3.6066046e-07
3.5628634e-07
3.5199664e-07
3.477836e-07
3.4364118e-07
3.395668e-07
3.3555978e-07
3.3161468e-07
3.2772457e-07
3.2388645e-07
3.201017e-07
3.1636691e-07
3.1267459e-07
3.090218e-07
3.0540952e-07
3.0183677e-07
2.9829819e-07
2.9478918e-07
2.9130922e-07
2.878598e-07
2.844365e-07
2.8103295e-07
2.7764779e-07
2.7428393e-07
2.7093796e-07
2.6760008e-07
2.6427109e-07
2.6095462e-07
2.5764747e-07
2.5434288e-07
2.5103875e-07
2.4773788e-07
2.4443575e-07
2.4112506e-07
2.3780589e-07
2.3447874e-07
2.3113733e-07
2.2777703e-07
2.2439954e-07
2.2099985e-07
2.1764341e-07
2.1443987e-07
2.1141162e-07
2.0852167e-07
2.0577998e-07
2.0317782e-07
2.0070212e-07
1.9834016e-07
1.9608392e-07
1.9392815e-07
1.9186519e-07
1.8988593e-07
1.8798372e-07
1.8615505e-07
1.8439618e-07
1.8270178e-07
1.8106444e-07
1.7948131e-07
1.7793915e-07
1.7645638e-07
1.7494811e-07
1.7360831e-07
1.7144045e-07
7.9778912e-05
2.7589302e-05
1.6064869e-05
1.212212e-05
1.0525151e-05
9.7247081e-06
9.2415869e-06
8.9116644e-06
8.6697139e-06
8.484882e-06
8.3400067e-06
8.2243229e-06
8.1305467e-06
8.0535217e-06
7.9894867e-06
7.935646e-06
7.8898436e-06
7.8505408e-06
7.8160059e-06
7.7870165e-06
7.7553573e-06
7.7473964e-06
7.6530047e-06
9.8474508e-06
5.3908815e-08
3.53415e-06
6.6245507e-06
7.4450702e-06
7.2452113e-06
6.8255384e-06
6.4442272e-06
6.122269e-06
5.8438632e-06
5.6004045e-06
5.3861245e-06
5.1956808e-06
5.020072e-06
4.8592172e-06
4.7117362e-06
4.5764954e-06
4.4521844e-06
4.3371674e-06
4.2302961e-06
4.1307207e-06
4.0373998e-06
3.9497592e-06
3.8672165e-06
3.7892989e-06
3.7156109e-06
3.6456736e-06
3.5792715e-06
3.516015e-06
3.4555616e-06
3.3977977e-06
3.3424682e-06
3.2893199e-06
3.2382697e-06
3.1891418e-06
3.1417233e-06
3.0959471e-06
3.0517193e-06
3.0088839e-06
2.9673383e-06
2.9270513e-06
2.8876982e-06
2.8492446e-06
2.8117909e-06
2.7753153e-06
2.7397465e-06
2.7050087e-06
2.6710678e-06
2.6378908e-06
2.6054138e-06
2.5735799e-06
2.5423685e-06
2.5117594e-06
2.4816974e-06
2.4521392e-06
2.4230665e-06
2.3944745e-06
2.3663242e-06
2.3385663e-06
2.3111794e-06
2.2841732e-06
2.2575235e-06
2.2311768e-06
2.2051123e-06
2.1793367e-06
2.1538431e-06
2.1285934e-06
2.1035547e-06
2.0787233e-06
2.0541097e-06
2.0296824e-06
2.0053962e-06
1.9812411e-06
1.957238e-06
1.9333625e-06
1.9095448e-06
1.8857904e-06
1.8621254e-06
1.8385269e-06
1.8149466e-06
1.7913696e-06
1.7678158e-06
1.744253e-06
1.7206292e-06
1.6969448e-06
1.6732034e-06
1.6493603e-06
1.6253824e-06
1.6012817e-06
1.5770227e-06
1.5530723e-06
1.5302128e-06
1.5086042e-06
1.4879824e-06
1.4684186e-06
1.4498504e-06
1.4321845e-06
1.4153303e-06
1.3992304e-06
1.3838475e-06
1.3691268e-06
1.3550034e-06
1.3414297e-06
1.3283808e-06
1.31583e-06
1.3037393e-06
1.2920557e-06
1.2807589e-06
1.2697544e-06
1.2591738e-06
1.2484112e-06
1.2388507e-06
1.2233814e-06
7.9778839e-05
2.7591276e-05
1.6062315e-05
1.2117694e-05
1.0519604e-05
9.7183834e-06
9.2347049e-06
8.9043748e-06
8.6621166e-06
8.4770437e-06
8.3319742e-06
8.2161303e-06
8.1222199e-06
8.0450811e-06
7.9809484e-06
7.9270229e-06
7.8811461e-06
7.8417772e-06
7.8071835e-06
7.7781381e-06
7.7464457e-06
7.7385406e-06
7.6435023e-06
9.8132913e-06
1.6615091e-07
1.3165289e-05
2.4669629e-05
2.7723824e-05
2.6980284e-05
2.5418474e-05
2.3999313e-05
2.2800959e-05
2.1764642e-05
2.0858363e-05
2.0060671e-05
1.9351687e-05
1.8697906e-05
1.8099036e-05
1.7549943e-05
1.7046411e-05
1.6583562e-05
1.6155309e-05
1.5757378e-05
1.5386607e-05
1.5039119e-05
1.4712777e-05
1.4405414e-05
1.4115269e-05
1.384087e-05
1.3580435e-05
1.3333162e-05
1.30976e-05
1.2872474e-05
1.2657362e-05
1.2451313e-05
1.2253385e-05
1.2063269e-05
1.1880311e-05
1.1703717e-05
1.1533237e-05
1.1368524e-05
1.1208994e-05
1.1054267e-05
1.0904226e-05
1.0757662e-05
1.0614447e-05
1.0474956e-05
1.0339106e-05
1.0206633e-05
1.0077254e-05
9.9508419e-06
9.8272747e-06
9.7063138e-06
9.5877473e-06
9.4714988e-06
9.3574932e-06
9.2455243e-06
9.1354315e-06
9.0271465e-06
8.9206512e-06
8.8158006e-06
8.7124111e-06
8.6104031e-06
8.5098126e-06
8.4105495e-06
8.3124145e-06
8.2153298e-06
8.1193211e-06
8.0243626e-06
7.930312e-06
7.8370467e-06
7.744553e-06
7.6528706e-06
7.5618817e-06
7.4714176e-06
7.3814418e-06
7.2920318e-06
7.2030966e-06
7.1143761e-06
7.0258915e-06
6.9377392e-06
6.8498342e-06
6.7619968e-06
6.6741711e-06
6.5864317e-06
6.4986584e-06
6.4106571e-06
6.3224299e-06
6.2339901e-06
6.145171e-06
6.0558492e-06
5.9660699e-06
5.8757001e-06
5.7864796e-06
5.7013229e-06
5.6208254e-06
5.5440038e-06
5.4711232e-06
5.4019511e-06
5.3361403e-06
5.273353e-06
5.2133755e-06
5.1560689e-06
5.1012293e-06
5.0486142e-06
4.9980474e-06
4.9494352e-06
4.9026786e-06
4.8576358e-06
4.8141095e-06
4.7720242e-06
4.7310281e-06
4.6916105e-06
4.6515151e-06
4.615898e-06
4.5582678e-06
7.9778733e-05
2.759413e-05
1.6058616e-05
1.2111288e-05
1.0511577e-05
9.7092305e-06
9.2247458e-06
8.8938263e-06
8.6511228e-06
8.4657015e-06
8.3203511e-06
8.2042756e-06
8.1101711e-06
8.0328676e-06
7.9685936e-06
7.9145454e-06
7.868561e-06
7.8290963e-06
7.7944177e-06
7.7652911e-06
7.7335459e-06
7.7257246e-06
7.6297966e-06
9.765346e-06
4.0246985e-07
3.5451766e-05
6.6381814e-05
7.4589418e-05
7.2595652e-05
6.8402789e-05
6.4591845e-05
6.1373004e-05
5.8588765e-05
5.6153459e-05
5.400962e-05
5.2103944e-05
5.0346415e-05
4.8736336e-05
4.7259947e-05
4.5905943e-05
4.4661242e-05
4.3509492e-05
4.243922e-05
4.1441934e-05
4.0507219e-05
3.9629337e-05
3.8802467e-05
3.8021879e-05
3.7283622e-05
3.6582903e-05
3.5917568e-05
3.528372e-05
3.4677931e-05
3.4099066e-05
3.3544572e-05
3.3011917e-05
3.2500266e-05
3.2007863e-05
3.1532575e-05
3.1073732e-05
3.0630394e-05
3.0200999e-05
2.9784519e-05
2.9380643e-05
2.8986115e-05
2.8600593e-05
2.8225086e-05
2.7859373e-05
2.7502741e-05
2.7154433e-05
2.6814105e-05
2.6481429e-05
2.6155763e-05
2.5836537e-05
2.5523546e-05
2.5216588e-05
2.4915108e-05
2.4618674e-05
2.4327102e-05
2.4040344e-05
2.375801e-05
2.3479606e-05
2.3204916e-05
2.2934039e-05
2.2666732e-05
2.2402458e-05
2.2141009e-05
2.1882453e-05
2.1626721e-05
2.137343e-05
2.112225e-05
2.0873143e-05
2.0626218e-05
2.0381158e-05
2.0137506e-05
1.9895166e-05
1.9654346e-05
1.9414802e-05
1.9175832e-05
1.8937493e-05
1.8700046e-05
1.8463262e-05
1.8226656e-05
1.7990078e-05
1.7753729e-05
1.7517284e-05
1.7280223e-05
1.7042548e-05
1.6804297e-05
1.6565021e-05
1.6324387e-05
1.6082516e-05
1.583905e-05
1.5598677e-05
1.5369249e-05
1.515237e-05
1.4945392e-05
1.4749029e-05
1.4562656e-05
1.4385337e-05
1.4216162e-05
1.4054557e-05
1.3900146e-05
1.3752381e-05
1.3610608e-05
1.3474354e-05
1.3343365e-05
1.3217375e-05
1.3096002e-05
1.2978714e-05
1.2865308e-05
1.2754837e-05
1.2648618e-05
1.2540573e-05
1.2444594e-05
1.2289294e-05
7.9778591e-05
2.759794e-05
1.6053699e-05
1.2102764e-05
1.0500894e-05
9.6970455e-06
9.211485e-06
8.8797786e-06
8.6364806e-06
8.4505939e-06
8.3048681e-06
8.1884831e-06
8.0941194e-06
8.0165959e-06
7.952133e-06
7.8979208e-06
7.8517927e-06
7.8122001e-06
7.777408e-06
7.748173e-06
7.7163532e-06
7.7086382e-06
7.6115713e-06
9.7018928e-06
8.3668379e-07
7.9116682e-05
0.0001479091
0.00016613859
0.00016173786
0.00015245323
0.00014400814
0.00013687033
0.00013069251
0.00012528629
0.00012052521
0.00011629155
0.00011238565
0.00010880643
0.00010552356
0.00010251214
9.9743229e-05
9.7180587e-05
9.4798796e-05
9.2579055e-05
9.049825e-05
8.8543678e-05
8.6702422e-05
8.4963998e-05
8.3319644e-05
8.1758715e-05
8.0276442e-05
7.8864168e-05
7.7514273e-05
7.6224247e-05
7.4988419e-05
7.3801155e-05
7.2660613e-05
7.1562884e-05
7.0503226e-05
6.9480153e-05
6.8491578e-05
6.753402e-05
6.66052e-05
6.570443e-05
6.4824442e-05
6.3964482e-05
6.3126809e-05
6.2310935e-05
6.1515272e-05
6.0738132e-05
5.9978754e-05
5.9236409e-05
5.8509664e-05
5.7797252e-05
5.7098718e-05
5.6413612e-05
5.5740699e-05
5.5079014e-05
5.4428149e-05
5.3787999e-05
5.3157695e-05
5.2536132e-05
5.1922834e-05
5.1318022e-05
5.0721152e-05
5.013103e-05
4.9547186e-05
4.8969778e-05
4.8398651e-05
4.7832951e-05
4.7271941e-05
4.6715539e-05
4.6163985e-05
4.5616572e-05
4.5072284e-05
4.4530902e-05
4.3992893e-05
4.3457712e-05
4.2923791e-05
4.2391259e-05
4.1860696e-05
4.1331592e-05
4.0802865e-05
4.0274177e-05
3.9745979e-05
3.9217546e-05
3.868771e-05
3.8156483e-05
3.7623945e-05
3.7089091e-05
3.6551179e-05
3.6010479e-05
3.546619e-05
3.4928792e-05
3.441584e-05
3.3930927e-05
3.3468129e-05
3.3029051e-05
3.2612296e-05
3.2215774e-05
3.1837453e-05
3.1476047e-05
3.1130721e-05
3.0800249e-05
3.048317e-05
3.0178424e-05
2.9885449e-05
2.9603646e-05
2.9332165e-05
2.9069816e-05
2.8816145e-05
2.8569033e-05
2.8331428e-05
2.8089734e-05
2.7875028e-05
2.7527608e-05
7.977841e-05
2.76028e-05
1.6047472e-05
1.2091956e-05
1.048734e-05
9.6815805e-06
9.1946486e-06
8.8619381e-06
8.6178811e-06
8.4314002e-06
8.2851951e-06
8.1684151e-06
8.0737203e-06
7.9959158e-06
7.9312116e-06
7.87679e-06
7.8304782e-06
7.7907223e-06
7.7557851e-06
7.7264117e-06
7.6944937e-06
7.6868984e-06
7.5884387e-06
9.6205462e-06
1.560907e-06
0.0001561447
0.00029098225
0.00032659434
0.00031812026
0.00030011031
0.00028370196
0.000269813
0.00025777584
0.0002472306
0.00023793531
0.00022966319
0.00022202539
0.00021502193
0.00020859461
0.00020269565
0.0001972691
0.00019224453
0.0001875726
0.00018321685
0.00017913224
0.00017529412
0.00017167736
0.00016826155
0.00016502966
0.0001619609
0.00015904603
0.00015626812
0.00015361229
0.00015107367
0.00014864118
0.00014630381
0.00014405796
0.000141896
0.00013980863
0.00013779298
0.00013584495
0.00013395772
0.00013212683
0.00013035096
0.00012861577
0.00012691979
0.00012526753
0.00012365804
0.00012208819
0.00012055467
0.00011905601
0.00011759077
0.00011615614
0.00011474962
0.00011337033
0.00011201739
0.00011068837
0.00010938137
0.00010809559
0.00010683084
0.0001055854
0.00010435709
0.00010314498
0.00010194951
0.00010076962
9.9602941e-05
9.8448551e-05
9.7306766e-05
9.6177288e-05
9.5058429e-05
9.394873e-05
9.2848033e-05
9.1756819e-05
9.067369e-05
8.9596637e-05
8.8525227e-05
8.7460389e-05
8.6401043e-05
8.5344088e-05
8.4289778e-05
8.3239265e-05
8.2191539e-05
8.1144455e-05
8.0097346e-05
7.9051106e-05
7.8004297e-05
7.6954606e-05
7.5902053e-05
7.4846798e-05
7.378685e-05
7.2720731e-05
7.1648978e-05
7.0570002e-05
6.9504575e-05
6.8487513e-05
6.7525953e-05
6.6608155e-05
6.5737322e-05
6.4910694e-05
6.4124137e-05
6.3373629e-05
6.2656625e-05
6.1971476e-05
6.1315754e-05
6.068657e-05
6.0081821e-05
5.9500395e-05
5.8941113e-05
5.8402285e-05
5.7881556e-05
5.7378026e-05
5.6887492e-05
5.6415808e-05
5.5935992e-05
5.550973e-05
5.4819937e-05
7.9778184e-05
2.7608824e-05
1.6039834e-05
1.2078674e-05
1.0470672e-05
9.6625499e-06
9.1739202e-06
8.8399651e-06
8.5949668e-06
8.4077487e-06
8.260949e-06
8.1436786e-06
8.048573e-06
7.9704197e-06
7.9054161e-06
7.8507346e-06
7.8041948e-06
7.764236e-06
7.7291188e-06
7.6995736e-06
7.6675308e-06
7.6600541e-06
7.5599521e-06
9.5195214e-06
2.6726076e-06
0.0002813959
0.00052121791
0.00058413099
0.0005695829
0.00053821578
0.00050954817
0.00048521404
0.00046407008
0.00044550764
0.00042911657
0.0004145072
0.0004009972
0.0003885936
0.00037719738
0.00036672715
0.0003570862
0.00034815138
0.00033983675
0.00033207885
0.00032479855
0.00031795295
0.00031149803
0.00030539805
0.0002996232
0.00029413685
0.00028892291
0.0002839515
0.0002791963
0.0002746489
0.00027028971
0.00026609921
0.00026207119
0.00025819209
0.00025444543
0.00025082619
0.00024732712
0.00024393609
0.00024064522
0.00023745222
0.00023433128
0.00023127988
0.00022830625
0.00022540874
0.00022258178
0.00021981946
0.00021711919
0.00021447844
0.00021189216
0.00020935589
0.00020686809
0.00020442722
0.00020202892
0.00019966976
0.00019734835
0.00019506438
0.00019281476
0.00019059558
0.00018840515
0.00018624432
0.00018411118
0.00018200146
0.0001799135
0.00017784789
0.00017580412
0.00017377913
0.0001717703
0.00016977734
0.00016780114
0.00016583919
0.00016388783
0.00016194629
0.00016001627
0.00015809582
0.00015617931
0.0001542672
0.00015236159
0.00015046066
0.0001485605
0.0001466599
0.0001447605
0.00014285967
0.00014095322
0.00013904118
0.00013712382
0.00013519754
0.00013325964
0.00013131108
0.00012934897
0.00012741108
0.00012556077
0.00012381109
0.00012214069
0.00012055547
0.00011905047
0.00011761819
0.00011625134
0.00011494531
0.00011369713
0.00011250239
0.00011135586
0.00011025371
0.00010919394
0.00010817441
0.00010719206
0.0001062426
0.0001053244
0.00010442982
0.00010356952
0.00010269434
0.00010191674
0.00010065823
7.977791e-05
2.761614e-05
1.6030676e-05
1.2062711e-05
1.045062e-05
9.6396386e-06
9.1489494e-06
8.8134824e-06
8.5673396e-06
8.3792249e-06
8.2317019e-06
8.113835e-06
8.0182295e-06
7.9396517e-06
7.8742837e-06
7.8192859e-06
7.7724686e-06
7.732263e-06
7.6969267e-06
7.6671725e-06
7.6349753e-06
7.62759e-06
7.5256223e-06
9.3968442e-06
4.2435222e-06
0.00046965309
0.00086090043
0.00096235104
0.00094003322
0.00089069856
0.00084537945
0.00080673594
0.00077301703
0.00074331163
0.00071700413
0.00069349576
0.00067169977
0.00065164609
0.00063318543
0.0006161949
0.00060052448
0.00058597946
0.0005724247
0.00055976075
0.00054786141
0.0005366594
0.00052608492
0.00051608127
0.00050660136
0.00049758643
0.00048901128
0.00048082785
0.00047299378
0.00046549605
0.00045830306
0.00045138329
0.00044472707
0.00043831246
0.0004321127
0.00042611993
0.00042032245
0.00041470051
0.00040924142
0.00040394164
0.00039875824
0.00039368736
0.00038874308
0.00038392282
0.00037921743
0.00037461728
0.00037011825
0.00036571626
0.00036140296
0.00035717105
0.00035301811
0.00034894169
0.00034493453
0.000340991
0.00033710888
0.00033328775
0.00032952249
0.00032580657
0.00032213728
0.00031851609
0.00031493985
0.00031140144
0.00030789809
0.00030443089
0.00030099899
0.0002975973
0.00029422142
0.00029087091
0.00028754731
0.0002842464
0.00028096205
0.00027769298
0.00027444207
0.00027120605
0.00026797544
0.00026475102
0.00026153635
0.00025832834
0.00025512042
0.00025191053
0.00024870142
0.00024548869
0.00024226519
0.00023903098
0.00023578653
0.00023252568
0.00022924385
0.00022594266
0.00022261716
0.00021933138
0.00021619287
0.00021322389
0.00021038834
0.00020769647
0.00020513997
0.00020270625
0.00020038301
0.00019816253
0.00019603982
0.00019400746
0.00019205662
0.00019018085
0.00018837677
0.00018664082
0.00018496781
0.00018335048
0.00018178609
0.00018026164
0.00017879531
0.00017730344
0.00017597762
0.00017383127
7.9777579e-05
2.7624896e-05
1.6019885e-05
1.204385e-05
1.04269e-05
9.6125113e-06
9.1193615e-06
8.7820849e-06
8.5345709e-06
8.3453816e-06
8.1969915e-06
8.0784094e-06
7.9822044e-06
7.9031176e-06
7.8373125e-06
7.7819351e-06
7.7347849e-06
7.6942832e-06
7.6586842e-06
7.6286794e-06
7.5962946e-06
7.5889673e-06
7.4849003e-06
9.250203e-06
6.2704205e-06
0.00072892818
0.0013157442
0.0014653787
0.0014348976
0.0013648766
0.001300111
0.0012445445
0.0011957765
0.001152605
0.0011142153
0.0010797861
0.0010477463
0.0010181782
0.0009908837
0.00096569938
0.00094241699
0.00092075839
0.00090053233
0.00088159876
0.00086377527
0.00084696714
0.00083107437
0.00081601577
0.00080172425
0.00078811423
0.00077515039
0.00076276243
0.00075088833
0.00073951017
0.00072858161
0.00071805628
0.00070792075
0.00069814264
0.0006886823
0.00067952878
0.00067066483
0.00066206102
0.00065369883
0.00064557345
0.00063761879
0.00062982964
0.00062222858
0.00061481205
0.00060756623
0.00060047675
0.00059353774
0.0005867432
0.00058008043
0.00057353843
0.0005671138
0.00056080304
0.00055459504
0.00054848121
0.00054245837
0.00053652613
0.00053067663
0.00052489983
0.00051919165
0.00051355459
0.00050798387
0.00050246846
0.00049700409
0.0004915926
0.00048623283
0.00048091685
0.00047563779
0.00047039508
0.00046519122
0.00046001965
0.00045487079
0.00044974261
0.00044463974
0.0004395571
0.00043447975
0.00042940891
0.00042435023
0.00041929888
0.00041424445
0.00040918369
0.00040412094
0.00039904924
0.00039395725
0.00038884498
0.00038371318
0.00037855205
0.00037335422
0.00036812219
0.00036284804
0.00035763331
0.00035264896
0.00034793079
0.00034342166
0.0003391385
0.00033506848
0.00033119188
0.00032748938
0.00032394891
0.00032056275
0.0003173193
0.00031420458
0.00031120847
0.00030832574
0.00030555078
0.00030287545
0.00030028824
0.00029778483
0.00029534455
0.00029299648
0.00029060702
0.00028848267
0.00028504203
7.9777186e-05
2.7635251e-05
1.6007352e-05
1.2021869e-05
1.0399221e-05
9.5808228e-06
9.0847683e-06
8.745351e-06
8.4962131e-06
8.3057503e-06
8.1563323e-06
8.0369024e-06
7.9399865e-06
7.8602961e-06
7.7939725e-06
7.7381449e-06
7.6905998e-06
7.6497469e-06
7.6138362e-06
7.5835343e-06
7.550925e-06
7.5436151e-06
7.4372153e-06
9.076883e-06
8.6209802e-06
0.001052003
0.0018638411
0.002066732
0.0020295782
0.0019395206
0.0018555772
0.0017830502
0.0017189637
0.0016619113
0.0016109375
0.0015650294
0.001522118
0.0014823754
0.0014455685
0.0014115055
0.0013799261
0.00135047
0.0013228927
0.0012970166
0.0012726021
0.0012495292
0.0012276684
0.0012069144
0.001187181
0.0011683548
0.0011503916
0.0011331977
0.0011166906
0.0011008485
0.0010856096
0.0010709116
0.0010567381
0.0010430455
0.0010297802
0.0010169288
0.0010044679
0.00099235758
0.00098057331
0.00096910946
0.00095787201
0.00094685492
0.00093609193
0.0009255787
0.00091529607
0.00090522442
0.00089535634
0.00088568379
0.00087618899
0.00086685674
0.00085768287
0.00084866286
0.00083978107
0.00083102538
0.00082239176
0.00081388012
0.00080547935
0.00079717515
0.00078896192
0.00078084366
0.00077281372
0.00076485623
0.00075696514
0.00074914338
0.00074138955
0.00073369217
0.00072604138
0.00071843645
0.00071088123
0.00070336625
0.00069587756
0.00068841227
0.00068097722
0.0006735651
0.00066615403
0.00065874575
0.00065134858
0.00064395548
0.00063655112
0.00062913062
0.00062170038
0.0006142501
0.00060676297
0.00059923887
0.0005916788
0.00058406818
0.00057639589
0.00056866546
0.00056086494
0.00055314447
0.00054575776
0.0005387588
0.00053206325
0.00052569768
0.00051964385
0.00051387314
0.0005083574
0.00050307916
0.00049802743
0.00049318534
0.0004885324
0.00048405383
0.00047974211
0.00047558917
0.00047158307
0.00046770681
0.00046395409
0.00046029421
0.00045677073
0.00045318398
0.00044999327
0.00044482194
7.9776722e-05
2.7647379e-05
1.5992977e-05
1.1996558e-05
1.0367298e-05
9.5442305e-06
9.0447811e-06
8.7028556e-06
8.4518123e-06
8.2598545e-06
8.1092294e-06
7.9888036e-06
7.8910525e-06
7.8106527e-06
7.7437197e-06
7.687363e-06
7.6393536e-06
7.5980878e-06
7.5618108e-06
7.5311597e-06
7.4982851e-06
7.4909413e-06
7.3820005e-06
8.877075e-06
1.1096458e-05
0.0014128386
0.0024594439
0.0027158045
0.0026748788
0.0025684203
0.0024684534
0.0023814811
0.0023040959
0.002234815
0.0021726257
0.0021163836
0.0020635768
0.0020144964
0.0019688944
0.0019265671
0.0018872158
0.0018504106
0.0018158654
0.0017833737
0.0017526459
0.0017235436
0.0016959123
0.001669627
0.0016445862
0.0016206521
0.0015977742
0.0015758379
0.0015547423
0.0015344635
0.0015149257
0.0014960525
0.0014778255
0.0014601909
0.0014430821
0.0014264842
0.0014103685
0.0013946847
0.0013794035
0.001364519
0.0013499076
0.0013355634
0.0013215328
0.0013078112
0.001294374
0.0012811966
0.0012682707
0.0012555864
0.0012431206
0.0012308541
0.0012187823
0.0012069001
0.0011951869
0.001183627
0.0011722158
0.001160954
0.0011498269
0.0011388158
0.0011279135
0.0011171259
0.0011064446
0.0010958484
0.0010853294
0.0010748917
0.0010645341
0.001054241
0.0010439993
0.0010338083
0.0010236733
0.0010135817
0.0010035147
0.00099346825
0.00098345196
0.00097345595
0.00096345049
0.00095343784
0.00094342931
0.00093341536
0.00092337498
0.00091330133
0.00090320308
0.00089306608
0.00088286711
0.00087260569
0.00086228303
0.00085187885
0.00084137748
0.00083078337
0.00082007971
0.00080947233
0.00079931078
0.00078967087
0.00078043707
0.00077164854
0.00076328152
0.0007552977
0.00074765914
0.00074034255
0.00073333359
0.00072660963
0.00072014289
0.00071391337
0.00070791118
0.00070212562
0.0006965405
0.00069113255
0.00068589326
0.00068078029
0.00067585438
0.00067083798
0.00066637191
0.00065912673
7.9776179e-05
2.7661467e-05
1.5976675e-05
1.196772e-05
1.0330864e-05
9.502408e-06
8.9990252e-06
8.6541853e-06
8.4009246e-06
8.2072253e-06
8.0551938e-06
7.9336072e-06
7.8348825e-06
7.7536555e-06
7.6860118e-06
7.6290378e-06
7.5804869e-06
7.5387393e-06
7.502035e-06
7.4709766e-06
7.4377919e-06
7.4303466e-06
7.3187241e-06
8.6581269e-06
1.3492757e-05
0.0017813786
0.0030512798
0.0033588528
0.0033174411
0.003199412
0.0030878702
0.0029902044
0.0029027253
0.0028240002
0.0027530393
0.0026886293
0.0026279122
0.0025713063
0.0025185651
0.002469488
0.0024237516
0.0023808733
0.002340539
0.0023025237
0.0022664989
0.0022323153
0.0021998003
0.0021688142
0.0021392455
0.0021109371
0.0020838352
0.0020578083
0.0020327413
0.0020086101
0.0019853273
0.0019628055
0.0019410259
0.0019199256
0.0018994279
0.0018795179
0.0018601617
0.0018413007
0.0018229021
0.0018049607
0.0017873252
0.0017699902
0.0017530152
0.0017363955
0.0017201013
0.0017041042
0.0016883954
0.0016729639
0.0016577814
0.0016428252
0.001628091
0.0016135732
0.0015992469
0.0015850927
0.001571106
0.0015572886
0.0015436224
0.0015300842
0.001516666
0.0015033755
0.0014902027
0.0014771212
0.0014641213
0.0014512087
0.0014383822
0.0014256225
0.0014129131
0.0014002532
0.00138765
0.0013750877
0.0013625426
0.0013500097
0.001337501
0.0013250045
0.0013124823
0.0012999373
0.0012873836
0.0012748091
0.0012621871
0.0012495086
0.0012367845
0.0012239965
0.001211115
0.0011981387
0.0011850689
0.0011718794
0.0011585496
0.0011450845
0.001131462
0.0011179438
0.0011049766
0.0010926589
0.0010808439
0.0010695851
0.0010588541
0.0010486033
0.0010387853
0.0010293715
0.0010203446
0.0010116766
0.0010033324
0.00099528703
0.0009875285
0.00098004373
0.00097281241
0.00096580494
0.00095901073
0.00095237562
0.00094597813
0.00093946052
0.00093365262
0.0009242202
7.9775546e-05
2.7677709e-05
1.5958386e-05
1.1935192e-05
1.0289684e-05
9.4550624e-06
8.947158e-06
8.5989568e-06
8.3431337e-06
8.1474204e-06
7.9937615e-06
7.8708312e-06
7.7709793e-06
7.6887943e-06
7.6203272e-06
7.5626379e-06
7.5134595e-06
7.4711536e-06
7.4339543e-06
7.4024237e-06
7.3688806e-06
7.3612426e-06
7.2469299e-06
8.4285457e-06
1.5594348e-05
0.0021336041
0.0036054548
0.0039567509
0.0039177474
0.0037926197
0.0036737092
0.0035689488
0.0034745013
0.0033890962
0.0033118324
0.0032414797
0.0031749971
0.0031128589
0.0030548334
0.0030007326
0.0029502188
0.0029027714
0.0028580607
0.0028158522
0.0027757883
0.002737716
0.00270145
0.0026668409
0.0026337716
0.0026020706
0.0025716831
0.0025424649
0.0025142911
0.0024871383
0.0024609103
0.0024355119
0.0024109248
0.0023870789
0.00236389
0.0023413443
0.0023194034
0.0022980022
0.0022771064
0.0022567114
0.0022366436
0.002216898
0.0021975453
0.0021785805
0.0021599695
0.0021416808
0.0021237064
0.0021060341
0.0020886312
0.0020714721
0.0020545533
0.0020378692
0.0020213908
0.0020050957
0.0019889797
0.0019730456
0.0019572727
0.0019416337
0.0019261196
0.0019107406
0.0018954849
0.001880322
0.00186524
0.0018502466
0.0018353406
0.0018204994
0.0018057034
0.001790952
0.0017762539
0.0017615906
0.001746934
0.0017322781
0.0017176375
0.0017029976
0.001688314
0.0016735894
0.0016588406
0.0016440533
0.0016291954
0.0016142559
0.0015992475
0.0015841486
0.001568923
0.0015535689
0.0015380876
0.0015224471
0.0015066221
0.001490618
0.0014744076
0.0014583018
0.0014428339
0.0014281237
0.0014139962
0.001400519
0.0013876601
0.0013753644
0.0013635765
0.001352263
0.0013414048
0.001330969
0.0013209145
0.001311212
0.0013018479
0.0012928071
0.0012840659
0.001275589
0.0012673641
0.0012593265
0.0012515709
0.0012436675
0.0012366183
0.0012251567
7.9774813e-05
2.7696303e-05
1.5938083e-05
1.189885e-05
1.0243574e-05
9.4019527e-06
8.8888889e-06
8.5368378e-06
8.2780734e-06
8.0800456e-06
7.9245154e-06
7.8000397e-06
7.6988907e-06
7.6156029e-06
7.5461879e-06
7.4876749e-06
7.4377735e-06
7.3948247e-06
7.3570551e-06
7.3249806e-06
7.2910275e-06
7.2830712e-06
7.1662922e-06
8.1911616e-06
1.7204146e-05
0.002443555
0.0040984147
0.0044933035
0.004458161
0.0043286504
0.0042050862
0.0040955613
0.0039962004
0.0039059688
0.0038240825
0.0037493199
0.0036788733
0.0036128875
0.0035511554
0.0034935092
0.0034396035
0.0033888913
0.0033410374
0.003295804
0.003252813
0.0032119129
0.00317291
0.0031356489
0.0031000098
0.0030658112
0.0030329993
0.0030014198
0.0029709418
0.0029415433
0.0029131215
0.0028855761
0.0028588898
0.0028329866
0.0028077775
0.0027832502
0.0027593625
0.0027360443
0.0027132613
0.0026910097
0.0026691083
0.0026475482
0.0026264034
0.0026056689
0.0025853065
0.0025652826
0.0025455908
0.0025262177
0.0025071269
0.0024882907
0.0024697066
0.0024513693
0.0024332464
0.0024153128
0.0023975648
0.002380007
0.0023626158
0.0023453606
0.002328232
0.0023112422
0.0022943783
0.002277606
0.0022609118
0.0022443051
0.002227785
0.002211326
0.002194906
0.0021785244
0.0021621915
0.0021458865
0.0021295777
0.0021132581
0.0020969443
0.0020806204
0.0020642359
0.0020477935
0.0020313123
0.0020147761
0.0019981483
0.0019814162
0.0019645939
0.001947657
0.0019305641
0.0019133125
0.0018959034
0.0018783004
0.0018604738
0.0018424292
0.0018241352
0.0018059418
0.0017884527
0.0017718052
0.0017558023
0.0017405227
0.0017259322
0.0017119696
0.0016985731
0.0016857062
0.001673348
0.0016614622
0.001650003
0.0016389375
0.0016282508
0.0016179268
0.0016079387
0.001598247
0.0015888378
0.0015796383
0.0015707556
0.0015617031
0.0015536227
0.0015404697
7.9773967e-05
2.7717448e-05
1.5915782e-05
1.1858635e-05
1.0192418e-05
9.342912e-06
8.824003e-06
8.4675717e-06
8.2054521e-06
8.0047807e-06
7.8471117e-06
7.7208688e-06
7.6182359e-06
7.5336862e-06
7.4631859e-06
7.4037296e-06
7.3530004e-06
7.3093149e-06
7.2708923e-06
7.2381941e-06
7.2037777e-06
7.1953288e-06
7.0766879e-06
7.9492028e-06
1.8167455e-05
0.0026871385
0.0045096523
0.0049560864
0.0049279014
0.0047973658
0.0046722425
0.004560579
0.0044585655
0.0043654976
0.0042807633
0.0042031907
0.0041299539
0.0040612255
0.0039968278
0.0039366161
0.0038802402
0.0038271336
0.0037769623
0.0037294893
0.0036843209
0.0036413109
0.0036002593
0.0035610069
0.0035234337
0.0034873503
0.003452705
0.0034193356
0.0033871071
0.0033560001
0.0033259058
0.0032967208
0.0032684294
0.0032409503
0.0032141912
0.0031881422
0.0031627572
0.0031379623
0.0031137241
0.0030900396
0.0030667701
0.0030438833
0.0030214269
0.0029993959
0.0029777483
0.0029564493
0.0029354946
0.0029148698
0.0028945351
0.0028744612
0.0028546472
0.0028350882
0.0028157487
0.0027966013
0.0027776432
0.0027588807
0.0027402879
0.0027218312
0.0027035011
0.0026853117
0.0026672495
0.0026492766
0.0026313784
0.0026135659
0.0025958388
0.0025781688
0.0025605318
0.0025429275
0.0025253676
0.0025078295
0.0024902783
0.0024727063
0.0024551323
0.0024375388
0.0024198707
0.0024021308
0.0023843398
0.0023664803
0.0023485119
0.0023304204
0.0023122215
0.0022938882
0.002275375
0.0022566787