/*--------------------------------*- C++ -*----------------------------------*\
  =========                 |
  \\      /  F ield         | OpenFOAM: The Open Source CFD Toolbox
   \\    /   O peration     | Website:  https://openfoam.org
    \\  /    A nd           | Version:  12
     \\/     M anipulation  |
\*---------------------------------------------------------------------------*/
FoamFile
{
    format      ascii;
    class       volScalarField;
    location    "1200";
    object      nut;
}
// * * * * * * * * * * * * * * * * * * * * * * * * * * * * * * * * * * * * * //

dimensions      [0 2 -1 0 0 0 0];

internalField   nonuniform List<scalar> 
7480
(
3.3617116e-10
3.279767e-10
3.2002352e-10
3.1324629e-10
3.0845995e-10
3.0622809e-10
2.7579477e-10
2.3784599e-10
2.1087327e-10
1.8962341e-10
1.8020317e-10
1.526778e-10
2.344766e-07
3.4420686e-06
5.5164798e-06
6.86874e-06
7.6634968e-06
8.0701496e-06
8.2791222e-06
8.2717379e-06
8.2274433e-06
8.1446789e-06
7.8463336e-06
7.2032628e-06
6.6521532e-06
6.1828723e-06
5.7889025e-06
5.4743571e-06
5.2180413e-06
5.0087833e-06
4.8409186e-06
4.7108722e-06
4.6150761e-06
4.5496787e-06
4.5106064e-06
4.4938424e-06
4.4952618e-06
4.5104826e-06
4.5385601e-06
4.5789813e-06
4.6297e-06
4.6881244e-06
4.7517686e-06
4.8187397e-06
4.8885226e-06
4.9581277e-06
5.0266609e-06
5.092992e-06
5.1557541e-06
5.2136703e-06
5.2684751e-06
5.3186751e-06
5.3625865e-06
5.3992853e-06
5.4286859e-06
5.4513654e-06
5.4681959e-06
5.4802276e-06
5.4893467e-06
5.4966465e-06
5.5024247e-06
5.5066822e-06
5.5095122e-06
5.5111416e-06
5.5117976e-06
5.5116534e-06
5.5108468e-06
5.5097184e-06
5.5085585e-06
5.5073118e-06
5.5057535e-06
5.5037307e-06
5.5011965e-06
5.4981677e-06
5.4947032e-06
5.490964e-06
5.4870894e-06
5.4830545e-06
5.4787426e-06
5.4740829e-06
5.4690819e-06
5.4637836e-06
5.4583159e-06
5.4527462e-06
5.4470209e-06
5.4410751e-06
5.4348767e-06
5.4284541e-06
5.4219134e-06
5.4152853e-06
5.4085231e-06
5.4015858e-06
5.3944633e-06
5.3871903e-06
5.3798475e-06
5.3722178e-06
5.3647474e-06
5.3555633e-06
5.3491646e-06
5.3333566e-06
1.369237e-09
1.3584364e-09
1.3462578e-09
1.3334096e-09
1.3200633e-09
1.3062729e-09
1.2921536e-09
1.2777126e-09
1.2631922e-09
1.2475714e-09
1.235453e-09
1.2069588e-09
2.0981346e-08
4.9363098e-07
2.1719096e-06
4.1969318e-06
5.1956702e-06
5.4049769e-06
5.2518325e-06
5.0689334e-06
4.9863807e-06
4.9849585e-06
5.0521781e-06
5.1773182e-06
5.4305832e-06
5.7896043e-06
6.2644599e-06
6.9048241e-06
7.2467668e-06
7.6260075e-06
8.0295321e-06
8.444834e-06
8.8622668e-06
9.2745334e-06
9.676493e-06
1.0066042e-05
1.0439536e-05
1.0799747e-05
1.1155644e-05
1.1510139e-05
1.1856085e-05
1.2188085e-05
1.2504072e-05
1.2804435e-05
1.3095591e-05
1.3357265e-05
1.3604873e-05
1.3831226e-05
1.4035421e-05
1.4218344e-05
1.4379125e-05
1.4516164e-05
1.4630803e-05
1.4725819e-05
1.4804511e-05
1.4870129e-05
1.4925403e-05
1.4973296e-05
1.5017964e-05
1.5059004e-05
1.5095981e-05
1.5129048e-05
1.5158795e-05
1.5185848e-05
1.5210664e-05
1.5233532e-05
1.5254711e-05
1.5274655e-05
1.5293141e-05
1.5309477e-05
1.5323357e-05
1.5334924e-05
1.5344478e-05
1.5352298e-05
1.5358687e-05
1.5363911e-05
1.536784e-05
1.5370127e-05
1.5370658e-05
1.5369631e-05
1.536732e-05
1.5364013e-05
1.535989e-05
1.5354754e-05
1.5348363e-05
1.5340742e-05
1.5332068e-05
1.532264e-05
1.5312606e-05
1.530179e-05
1.5290034e-05
1.5277384e-05
1.5264033e-05
1.5250164e-05
1.5235691e-05
1.5220483e-05
1.5204525e-05
1.5186946e-05
1.517267e-05
1.5139688e-05
1.37757e-09
1.3774333e-09
1.3772413e-09
1.3769897e-09
1.3766775e-09
1.3763035e-09
1.3758582e-09
1.3753657e-09
1.3747032e-09
1.3743335e-09
1.372125e-09
1.3773394e-09
1.1412811e-09
1.9578965e-09
1.837509e-08
1.1988999e-07
4.8275373e-07
1.1525786e-06
1.9686639e-06
2.6262815e-06
2.9741311e-06
3.0833495e-06
3.0645391e-06
2.9954336e-06
2.9288504e-06
2.9516722e-06
3.0598588e-06
3.2647303e-06
3.5542073e-06
3.923395e-06
4.3857434e-06
4.8906237e-06
5.4543874e-06
6.0818363e-06
6.7752367e-06
7.536631e-06
8.3750851e-06
9.3110481e-06
1.0192836e-05
1.1052486e-05
1.1929935e-05
1.2804818e-05
1.3660897e-05
1.4495144e-05
1.5309489e-05
1.6107277e-05
1.6872657e-05
1.758733e-05
1.8262318e-05
1.8899585e-05
1.9372317e-05
1.9797694e-05
2.0184708e-05
2.0538943e-05
2.0863913e-05
2.116269e-05
2.1439303e-05
2.1697543e-05
2.1936859e-05
2.2157785e-05
2.2362147e-05
2.2552202e-05
2.2729986e-05
2.2897196e-05
2.3054981e-05
2.3204062e-05
2.3345207e-05
2.3478008e-05
2.360176e-05
2.3716666e-05
2.3823462e-05
2.3922942e-05
2.4015819e-05
2.4102701e-05
2.4184254e-05
2.4260356e-05
2.43304e-05
2.4394449e-05
2.4453093e-05
2.4506996e-05
2.4556642e-05
2.4602584e-05
2.4644642e-05
2.4682354e-05
2.4715787e-05
2.4745453e-05
2.4771828e-05
2.479547e-05
2.4816221e-05
2.4833691e-05
2.484797e-05
2.4859458e-05
2.4868635e-05
2.4875654e-05
2.4880088e-05
2.4882287e-05
2.4881225e-05
2.4879923e-05
2.4872597e-05
2.4860225e-05
1.3935363e-09
1.3938832e-09
1.3942469e-09
1.3945986e-09
1.394929e-09
1.3952353e-09
1.3955161e-09
1.3957704e-09
1.3959977e-09
1.3961923e-09
1.3963801e-09
1.396394e-09
1.3971444e-09
1.3883269e-09
1.4054788e-09
1.510131e-09
2.2313029e-09
5.9292882e-09
2.0996086e-08
6.0061642e-08
1.3365141e-07
2.4628176e-07
3.9659495e-07
5.7759623e-07
7.819939e-07
9.8973224e-07
1.1865646e-06
1.3690906e-06
1.5400033e-06
1.7045271e-06
1.8720974e-06
2.0504325e-06
2.2459051e-06
2.4992826e-06
2.81716e-06
3.204394e-06
3.6755514e-06
4.2437278e-06
4.9069297e-06
5.6892739e-06
6.6129151e-06
7.6839647e-06
8.8488222e-06
9.8864071e-06
1.0977033e-05
1.2110485e-05
1.3272774e-05
1.4440543e-05
1.5606956e-05
1.6760387e-05
1.7886172e-05
1.898239e-05
2.0007311e-05
2.0976437e-05
2.1901817e-05
2.278254e-05
2.3619452e-05
2.4388542e-05
2.5000736e-05
2.5570673e-05
2.6105665e-05
2.6611589e-05
2.7092042e-05
2.7548876e-05
2.7983284e-05
2.8396858e-05
2.8791929e-05
2.9167501e-05
2.9522023e-05
2.9856357e-05
3.017231e-05
3.047163e-05
3.0755734e-05
3.1025678e-05
3.1282599e-05
3.1526326e-05
3.17562e-05
3.1972707e-05
3.2176886e-05
3.2369777e-05
3.2552211e-05
3.2725182e-05
3.2888369e-05
3.3041369e-05
3.3184633e-05
3.331904e-05
3.3445319e-05
3.3564358e-05
3.3675851e-05
3.3779466e-05
3.3875604e-05
3.3964975e-05
3.4048338e-05
3.4125864e-05
3.4196991e-05
3.4262559e-05
3.4320739e-05
3.4378516e-05
3.4415663e-05
3.4483844e-05
1.407982e-09
1.4083731e-09
1.4087832e-09
1.4091821e-09
1.4095625e-09
1.4099224e-09
1.410261e-09
1.4105777e-09
1.4108725e-09
1.4111428e-09
1.4113955e-09
1.4116008e-09
1.4118547e-09
1.4118982e-09
1.4119551e-09
1.4121372e-09
1.4137481e-09
1.413581e-09
1.4298856e-09
1.4863814e-09
1.653056e-09
2.0709842e-09
2.9993841e-09
4.8775385e-09
8.3793065e-09
1.4458336e-08
2.4379009e-08
3.9824937e-08
6.3098536e-08
9.728814e-08
1.4687112e-07
2.180193e-07
3.19552e-07
4.5872496e-07
6.4272762e-07
8.7471473e-07
1.155764e-06
1.4717709e-06
1.8383637e-06
2.2212531e-06
2.62755e-06
3.1149846e-06
3.7170589e-06
4.443085e-06
5.2969283e-06
6.3016394e-06
7.4866515e-06
8.8451638e-06
9.9541653e-06
1.1148559e-05
1.2417641e-05
1.3748011e-05
1.5109437e-05
1.649075e-05
1.7873867e-05
1.9240938e-05
2.0592533e-05
2.1877739e-05
2.3113284e-05
2.4312435e-05
2.5470784e-05
2.6580984e-05
2.7628738e-05
2.8621102e-05
2.9570611e-05
3.0484106e-05
3.1367459e-05
3.2136897e-05
3.2825739e-05
3.348076e-05
3.410602e-05
3.4704119e-05
3.5276497e-05
3.5824263e-05
3.6349364e-05
3.6850839e-05
3.7327173e-05
3.7779634e-05
3.8210201e-05
3.8620618e-05
3.9012174e-05
3.9386384e-05
3.9742534e-05
4.0080246e-05
4.040044e-05
4.0704445e-05
4.0993347e-05
4.1268476e-05
4.1529298e-05
4.1775659e-05
4.2008363e-05
4.2228453e-05
4.2437009e-05
4.2634201e-05
4.2819418e-05
4.2994158e-05
4.3155542e-05
4.3316042e-05
4.3433709e-05
4.3644106e-05
1.4118565e-09
1.4122725e-09
1.4127115e-09
1.4131418e-09
1.4135554e-09
1.4139501e-09
1.4143252e-09
1.4146803e-09
1.4150149e-09
1.4153291e-09
1.4156223e-09
1.415896e-09
1.4161467e-09
1.4163921e-09
1.4166182e-09
1.4166724e-09
1.4166083e-09
1.416651e-09
1.4167938e-09
1.4171682e-09
1.4177677e-09
1.4188508e-09
1.4208529e-09
1.4247665e-09
1.4327838e-09
1.4486464e-09
1.4785787e-09
1.53306e-09
1.6296248e-09
1.7981345e-09
2.0918248e-09
2.6092191e-09
3.5417939e-09
5.2663552e-09
8.5455561e-09
1.4837359e-08
2.708607e-08
5.0266725e-08
9.4234484e-08
1.7525403e-07
3.1495615e-07
5.3648856e-07
8.6600248e-07
1.2970685e-06
1.8522693e-06
2.4320594e-06
3.0028091e-06
3.6694772e-06
4.4611112e-06
5.4021715e-06
6.532504e-06
7.8646842e-06
9.4384925e-06
1.0747212e-05
1.2029805e-05
1.339994e-05
1.4847049e-05
1.6343878e-05
1.7890344e-05
1.9461088e-05
2.1032244e-05
2.2577278e-05
2.4051629e-05
2.5517304e-05
2.6973363e-05
2.8405665e-05
2.9787265e-05
3.1109257e-05
3.237735e-05
3.3599164e-05
3.4777808e-05
3.5906351e-05
3.6984707e-05
3.8019251e-05
3.9021095e-05
3.9915569e-05
4.0718647e-05
4.1486748e-05
4.222303e-05
4.2929645e-05
4.3607925e-05
4.4259943e-05
4.4883228e-05
4.5477304e-05
4.6044089e-05
4.6585681e-05
4.710363e-05
4.7599796e-05
4.8072987e-05
4.8523181e-05
4.8951689e-05
4.9359991e-05
4.974959e-05
5.0120606e-05
5.047238e-05
5.0807131e-05
5.1120773e-05
5.1432622e-05
5.1672256e-05
5.2093882e-05
1.4105814e-09
1.4110039e-09
1.4114503e-09
1.4118885e-09
1.4123108e-09
1.4127148e-09
1.4130998e-09
1.4134655e-09
1.4138116e-09
1.4141379e-09
1.4144447e-09
1.4147325e-09
1.415003e-09
1.4152592e-09
1.4155024e-09
1.4157314e-09
1.4159338e-09
1.4161194e-09
1.4162593e-09
1.4162179e-09
1.4161184e-09
1.4160091e-09
1.4159207e-09
1.4159597e-09
1.4160535e-09
1.4162103e-09
1.4165475e-09
1.4169899e-09
1.4175785e-09
1.4184161e-09
1.4197278e-09
1.4217346e-09
1.4249473e-09
1.430554e-09
1.441024e-09
1.4611819e-09
1.5017768e-09
1.5850881e-09
1.7631968e-09
2.1608876e-09
3.1100218e-09
5.4155566e-09
1.1401706e-08
2.615372e-08
6.3064562e-08
1.4908927e-07
3.2135544e-07
6.2921965e-07
1.0962217e-06
1.7498269e-06
2.4803911e-06
3.1625659e-06
3.941944e-06
4.8559643e-06
5.9620261e-06
7.3051454e-06
8.884731e-06
1.0740318e-05
1.2205679e-05
1.3599721e-05
1.5097504e-05
1.66848e-05
1.8335139e-05
2.0050688e-05
2.1793391e-05
2.3542957e-05
2.5228749e-05
2.6921769e-05
2.8633573e-05
3.0339053e-05
3.1995393e-05
3.3599027e-05
3.5163387e-05
3.6693838e-05
3.8187238e-05
3.9623519e-05
4.0995155e-05
4.231217e-05
4.3581025e-05
4.4800618e-05
4.597119e-05
4.710264e-05
4.809285e-05
4.9010717e-05
4.9891584e-05
5.0738078e-05
5.15519e-05
5.2335372e-05
5.3084978e-05
5.3801207e-05
5.4486414e-05
5.514266e-05
5.5771957e-05
5.6374001e-05
5.6947888e-05
5.7496665e-05
5.8015058e-05
5.8530408e-05
5.893748e-05
5.9644917e-05
1.4099976e-09
1.4104172e-09
1.41086e-09
1.4112944e-09
1.4117124e-09
1.4121118e-09
1.412492e-09
1.4128526e-09
1.4131932e-09
1.4135136e-09
1.4138139e-09
1.4140942e-09
1.4143553e-09
1.4145979e-09
1.4148221e-09
1.4150272e-09
1.4152128e-09
1.4153782e-09
1.4155229e-09
1.4156426e-09
1.4157343e-09
1.4157955e-09
1.4158225e-09
1.415812e-09
1.4157493e-09
1.4156165e-09
1.4153208e-09
1.414975e-09
1.4146117e-09
1.4142458e-09
1.4138966e-09
1.4135843e-09
1.4133744e-09
1.4132507e-09
1.4131879e-09
1.4132273e-09
1.4134813e-09
1.4139083e-09
1.4146394e-09
1.4160671e-09
1.4188303e-09
1.4247352e-09
1.4397632e-09
1.4790854e-09
1.5856147e-09
1.903805e-09
2.8471163e-09
5.883935e-09
1.5241561e-08
4.3571724e-08
1.2375596e-07
3.0381485e-07
6.5588765e-07
1.2025681e-06
2.0060349e-06
2.802659e-06
3.6125353e-06
4.5765741e-06
5.736613e-06
7.1425603e-06
8.8249075e-06
1.0789099e-05
1.2907287e-05
1.4347773e-05
1.5907629e-05
1.7581363e-05
1.9338997e-05
2.1188155e-05
2.3091967e-05
2.502288e-05
2.6901323e-05
2.8806779e-05
3.074623e-05
3.2686746e-05
3.4581585e-05
3.6445145e-05
3.8289329e-05
4.0104545e-05
4.1872694e-05
4.3584647e-05
4.5244097e-05
4.6860966e-05
4.8416541e-05
4.9901738e-05
5.1325838e-05
5.2697185e-05
5.4016705e-05
5.5291386e-05
5.6394903e-05
5.7436679e-05
5.8438368e-05
5.9402222e-05
6.0330653e-05
6.1221627e-05
6.2073895e-05
6.2891918e-05
6.3669404e-05
6.4442561e-05
6.5065176e-05
6.6136626e-05
1.4104369e-09
1.410855e-09
1.4112962e-09
1.4117287e-09
1.4121446e-09
1.4125419e-09
1.4129197e-09
1.4132776e-09
1.4136153e-09
1.4139326e-09
1.4142293e-09
1.4145053e-09
1.414761e-09
1.4149964e-09
1.415211e-09
1.4154042e-09
1.415575e-09
1.4157233e-09
1.4158487e-09
1.4159515e-09
1.4160318e-09
1.4160892e-09
1.4161233e-09
1.416133e-09
1.416117e-09
1.4160744e-09
1.4160007e-09
1.4158936e-09
1.4157517e-09
1.4155742e-09
1.4153596e-09
1.4151062e-09
1.4148119e-09
1.414471e-09
1.4140673e-09
1.4135677e-09
1.4129033e-09
1.4121966e-09
1.4114866e-09
1.4108068e-09
1.410218e-09
1.4098307e-09
1.4095458e-09
1.4095349e-09
1.4098434e-09
1.4107261e-09
1.4130915e-09
1.4194264e-09
1.4411104e-09
1.5069403e-09
1.763889e-09
2.5962101e-09
5.9596414e-09
1.6986979e-08
5.6601686e-08
1.713854e-07
4.3403389e-07
9.1574877e-07
1.714325e-06
2.6410455e-06
3.5481749e-06
4.5666349e-06
5.851141e-06
7.4050323e-06
9.2706721e-06
1.1441262e-05
1.389591e-05
1.5602974e-05
1.7271487e-05
1.906821e-05
2.0962997e-05
2.2964713e-05
2.5029815e-05
2.7117099e-05
2.916628e-05
3.1286132e-05
3.3459208e-05
3.5629384e-05
3.7769767e-05
3.9889897e-05
4.1991437e-05
4.4060668e-05
4.6089614e-05
4.8070236e-05
5.0003182e-05
5.1879936e-05
5.3693451e-05
5.5452826e-05
5.7141422e-05
5.8755982e-05
6.0303817e-05
6.1793576e-05
6.3233558e-05
6.4520478e-05
6.5705076e-05
6.6846759e-05
6.7937886e-05
6.902373e-05
6.9910834e-05
7.1425672e-05
1.4110508e-09
1.4114692e-09
1.4119107e-09
1.4123434e-09
1.4127596e-09
1.4131572e-09
1.4135352e-09
1.4138934e-09
1.4142313e-09
1.4145488e-09
1.4148457e-09
1.4151219e-09
1.4153776e-09
1.4156127e-09
1.415827e-09
1.4160197e-09
1.4161901e-09
1.4163377e-09
1.4164622e-09
1.4165634e-09
1.4166409e-09
1.4166947e-09
1.4167244e-09
1.4167299e-09
1.416711e-09
1.4166677e-09
1.4166e-09
1.4165079e-09
1.416391e-09
1.4162488e-09
1.4160807e-09
1.4158859e-09
1.4156635e-09
1.4154122e-09
1.4151307e-09
1.4148173e-09
1.4144672e-09
1.4140779e-09
1.413648e-09
1.4131755e-09
1.4126577e-09
1.4120865e-09
1.411448e-09
1.4105955e-09
1.4096042e-09
1.4086032e-09
1.40768e-09
1.4070738e-09
1.4066315e-09
1.4066595e-09
1.4072757e-09
1.4090821e-09
1.4162073e-09
1.4387728e-09
1.5362552e-09
1.9022547e-09
3.528079e-09
9.5926531e-09
3.4923576e-08
1.2311331e-07
3.5952167e-07
8.248541e-07
1.67214e-06
2.6961466e-06
3.7199271e-06
4.8704322e-06
6.3412231e-06
8.1435286e-06
1.0310744e-05
1.2791915e-05
1.5530807e-05
1.7397104e-05
1.9223244e-05
2.1177857e-05
2.3237086e-05
2.5405615e-05
2.764205e-05
2.9879886e-05
3.215795e-05
3.4517093e-05
3.6914334e-05
3.9293483e-05
4.1669569e-05
4.4050196e-05
4.6417041e-05
4.8740251e-05
5.1013297e-05
5.3243572e-05
5.5434266e-05
5.7562654e-05
5.9625508e-05
6.1623937e-05
6.3559159e-05
6.5415499e-05
6.7190279e-05
6.8892534e-05
7.0525916e-05
7.212998e-05
7.3347576e-05
7.5383449e-05
1.4117223e-09
1.4121409e-09
1.4125826e-09
1.4130157e-09
1.4134321e-09
1.4138298e-09
1.4142081e-09
1.4145664e-09
1.4149045e-09
1.4152222e-09
1.4155192e-09
1.4157954e-09
1.4160509e-09
1.4162856e-09
1.4164994e-09
1.4166914e-09
1.4168612e-09
1.4170082e-09
1.4171323e-09
1.417233e-09
1.4173101e-09
1.4173634e-09
1.4173925e-09
1.4173973e-09
1.4173775e-09
1.4173328e-09
1.4172632e-09
1.4171682e-09
1.4170479e-09
1.4169021e-09
1.4167306e-09
1.4165334e-09
1.4163102e-09
1.416061e-09
1.4157857e-09
1.4154843e-09
1.4151572e-09
1.4148043e-09
1.4144251e-09
1.414019e-09
1.4135853e-09
1.413122e-09
1.4126282e-09
1.4120981e-09
1.4115256e-09
1.4109072e-09
1.4102382e-09
1.4095096e-09
1.4086982e-09
1.4075272e-09
1.4062813e-09
1.4051099e-09
1.4043504e-09
1.4037697e-09
1.4038397e-09
1.4045621e-09
1.4079365e-09
1.4201084e-09
1.4727568e-09
1.7196448e-09
2.8924983e-09
7.9676381e-09
3.0952254e-08
1.2103656e-07
3.8387077e-07
9.1099654e-07
1.913776e-06
3.0066078e-06
4.1799395e-06
5.5608932e-06
7.3494659e-06
9.5306413e-06
1.211905e-05
1.4990207e-05
1.7912415e-05
1.9801194e-05
2.1823652e-05
2.396379e-05
2.6220802e-05
2.8575796e-05
3.0984155e-05
3.3400687e-05
3.5930695e-05
3.8542813e-05
4.1158226e-05
4.3782683e-05
4.6422748e-05
4.9058197e-05
5.1667718e-05
5.4241807e-05
5.677928e-05
5.9261357e-05
6.1676549e-05
6.4038991e-05
6.6340671e-05
6.8566603e-05
7.0714372e-05
7.2822053e-05
7.4652027e-05
7.7550981e-05
1.4125245e-09
1.4129433e-09
1.4133851e-09
1.4138182e-09
1.4142348e-09
1.4146325e-09
1.4150108e-09
1.4153691e-09
1.4157071e-09
1.4160247e-09
1.4163214e-09
1.4165973e-09
1.4168522e-09
1.417086e-09
1.4172985e-09
1.4174891e-09
1.4176573e-09
1.4178026e-09
1.4179247e-09
1.4180235e-09
1.4180985e-09
1.4181497e-09
1.4181766e-09
1.4181792e-09
1.4181571e-09
1.4181101e-09
1.418038e-09
1.4179405e-09
1.4178175e-09
1.4176688e-09
1.4174941e-09
1.4172934e-09
1.4170664e-09
1.416813e-09
1.4165332e-09
1.4162268e-09
1.4158938e-09
1.4155343e-09
1.4151482e-09
1.4147357e-09
1.4142967e-09
1.4138313e-09
1.4133396e-09
1.4128221e-09
1.4122795e-09
1.4117113e-09
1.411117e-09
1.4104938e-09
1.4098409e-09
1.4091466e-09
1.4084029e-09
1.4076065e-09
1.4067418e-09
1.4057874e-09
1.4044148e-09
1.4029624e-09
1.4017836e-09
1.4009406e-09
1.4005946e-09
1.4009737e-09
1.4032522e-09
1.4137607e-09
1.4564242e-09
1.7170189e-09
3.0859665e-09
9.519839e-09
4.0544353e-08
1.6730148e-07
5.1906629e-07
1.2622381e-06
2.4708968e-06
3.722579e-06
5.1199372e-06
6.8697801e-06
9.1256135e-06
1.1872291e-05
1.4926981e-05
1.8173447e-05
2.0739008e-05
2.2869788e-05
2.5119356e-05
2.7473022e-05
2.9948595e-05
3.2515078e-05
3.5075858e-05
3.7782739e-05
4.0602248e-05
4.3443479e-05
4.6310921e-05
4.921448e-05
5.2129545e-05
5.5017833e-05
5.7869465e-05
6.0693708e-05
6.3473267e-05
6.6190186e-05
6.8835829e-05
7.1442688e-05
7.3764753e-05
7.7488069e-05
1.4133958e-09
1.4138149e-09
1.4142571e-09
1.4146906e-09
1.4151074e-09
1.4155055e-09
1.415884e-09
1.4162425e-09
1.4165808e-09
1.4168984e-09
1.4171953e-09
1.4174712e-09
1.417726e-09
1.4179596e-09
1.4181717e-09
1.4183618e-09
1.4185293e-09
1.4186739e-09
1.4187954e-09
1.4188933e-09
1.4189675e-09
1.4190178e-09
1.4190437e-09
1.4190452e-09
1.4190219e-09
1.4189737e-09
1.4189003e-09
1.4188015e-09
1.4186771e-09
1.4185269e-09
1.4183506e-09
1.4181482e-09
1.4179195e-09
1.4176643e-09
1.4173824e-09
1.4170739e-09
1.4167386e-09
1.4163764e-09
1.4159873e-09
1.4155712e-09
1.4151282e-09
1.4146581e-09
1.4141612e-09
1.4136374e-09
1.4130868e-09
1.4125098e-09
1.4119065e-09
1.4112771e-09
1.4106217e-09
1.4099419e-09
1.4092379e-09
1.4085094e-09
1.4077525e-09
1.4069667e-09
1.4061358e-09
1.4052518e-09
1.4043017e-09
1.4032979e-09
1.4019641e-09
1.4003471e-09
1.3988926e-09
1.3979038e-09
1.3973692e-09
1.3975672e-09
1.400519e-09
1.4117174e-09
1.4785882e-09
1.8974042e-09
4.2652157e-09
1.6995194e-08
7.7578948e-08
3.1436637e-07
8.7920562e-07
2.0547883e-06
3.4016192e-06
4.8918106e-06
6.7215882e-06
9.0751711e-06
1.2029087e-05
1.5327168e-05
1.8809662e-05
2.2069813e-05
2.4339781e-05
2.6713913e-05
2.917791e-05
3.1785567e-05
3.4503523e-05
3.7232661e-05
4.0124614e-05
4.3153113e-05
4.6221076e-05
4.9337775e-05
5.2504584e-05
5.5689796e-05
5.8860596e-05
6.2009812e-05
6.5117858e-05
6.8209232e-05
7.097054e-05
7.5481348e-05
1.4142416e-09
1.4146612e-09
1.4151038e-09
1.4155378e-09
1.4159551e-09
1.4163536e-09
1.4167326e-09
1.4170916e-09
1.4174303e-09
1.4177485e-09
1.4180458e-09
1.4183221e-09
1.4185773e-09
1.4188112e-09
1.4190235e-09
1.4192139e-09
1.4193817e-09
1.4195268e-09
1.4196486e-09
1.419747e-09
1.4198217e-09
1.4198724e-09
1.4198988e-09
1.4199007e-09
1.4198778e-09
1.41983e-09
1.419757e-09
1.4196585e-09
1.4195343e-09
1.4193843e-09
1.4192083e-09
1.4190061e-09
1.4187774e-09
1.4185223e-09
1.4182405e-09
1.417932e-09
1.4175966e-09
1.4172344e-09
1.4168451e-09
1.4164287e-09
1.4159854e-09
1.4155149e-09
1.4150174e-09
1.4144928e-09
1.4139411e-09
1.4133625e-09
1.412757e-09
1.4121247e-09
1.4114657e-09
1.4107801e-09
1.4100685e-09
1.4093309e-09
1.4085679e-09
1.4077797e-09
1.406968e-09
1.4061336e-09
1.405274e-09
1.4043877e-09
1.4034635e-09
1.4024859e-09
1.4014437e-09
1.4003359e-09
1.3989723e-09
1.3972078e-09
1.3956401e-09
1.3945198e-09
1.3941616e-09
1.3946076e-09
1.3994365e-09
1.4193949e-09
1.582316e-09
2.6668623e-09
9.0606563e-09
4.6966936e-08
2.138494e-07
6.9129828e-07
1.8393944e-06
3.2762323e-06
4.890697e-06
6.8725089e-06
9.4018821e-06
1.2650879e-05
1.6250042e-05
1.9999768e-05
2.3796195e-05
2.6237624e-05
2.8749131e-05
3.1345944e-05
3.409748e-05
3.697271e-05
3.9875463e-05
4.2981526e-05
4.6237791e-05
4.9548973e-05
5.2928992e-05
5.6372547e-05
5.9827961e-05
6.3325856e-05
6.6472849e-05
7.1713768e-05
1.4150323e-09
1.4154523e-09
1.4158954e-09
1.4163299e-09
1.4167477e-09
1.4171467e-09
1.4175261e-09
1.4178856e-09
1.4182248e-09
1.4185434e-09
1.4188412e-09
1.419118e-09
1.4193736e-09
1.4196079e-09
1.4198205e-09
1.4200112e-09
1.4201795e-09
1.420325e-09
1.4204474e-09
1.4205464e-09
1.4206216e-09
1.4206729e-09
1.4207e-09
1.4207026e-09
1.4206804e-09
1.4206333e-09
1.4205609e-09
1.4204632e-09
1.4203397e-09
1.4201904e-09
1.4200151e-09
1.4198135e-09
1.4195856e-09
1.4193311e-09
1.41905e-09
1.4187422e-09
1.4184074e-09
1.4180458e-09
1.4176571e-09
1.4172414e-09
1.4167986e-09
1.4163288e-09
1.4158318e-09
1.4153078e-09
1.4147568e-09
1.4141788e-09
1.4135738e-09
1.412942e-09
1.4122834e-09
1.4115982e-09
1.4108864e-09
1.4101481e-09
1.4093837e-09
1.4085931e-09
1.4077767e-09
1.406935e-09
1.4060684e-09
1.4051772e-09
1.4042628e-09
1.4033268e-09
1.4023681e-09
1.4013834e-09
1.4003637e-09
1.3992922e-09
1.398141e-09
1.3969576e-09
1.3953048e-09
1.3933472e-09
1.3919646e-09
1.3909753e-09
1.3905916e-09
1.3937454e-09
1.3997106e-09
1.4911535e-09
2.1253732e-09
6.3170515e-09
3.5779848e-08
1.7605027e-07
6.2765022e-07
1.8252205e-06
3.3764729e-06
5.1538974e-06
7.3609183e-06
1.0193204e-05
1.3817188e-05
1.7763172e-05
2.1800955e-05
2.5855038e-05
2.8547633e-05
3.1215046e-05
3.3974882e-05
3.6903857e-05
3.9953151e-05
4.3072897e-05
4.6415822e-05
4.9904591e-05
5.3467431e-05
5.7188864e-05
6.058117e-05
6.6397478e-05
1.4157702e-09
1.4161906e-09
1.4166341e-09
1.417069e-09
1.4174872e-09
1.4178867e-09
1.4182665e-09
1.4186265e-09
1.4189661e-09
1.4192851e-09
1.4195833e-09
1.4198605e-09
1.4201165e-09
1.420351e-09
1.420564e-09
1.4207549e-09
1.4209235e-09
1.4210693e-09
1.4211921e-09
1.4212914e-09
1.4213671e-09
1.4214189e-09
1.4214464e-09
1.4214494e-09
1.4214277e-09
1.4213811e-09
1.4213092e-09
1.4212119e-09
1.421089e-09
1.4209402e-09
1.4207653e-09
1.4205643e-09
1.4203368e-09
1.4200829e-09
1.4198022e-09
1.4194949e-09
1.4191606e-09
1.4187995e-09
1.4184113e-09
1.4179961e-09
1.4175538e-09
1.4170845e-09
1.416588e-09
1.4160645e-09
1.415514e-09
1.4149365e-09
1.4143321e-09
1.4137008e-09
1.4130428e-09
1.4123582e-09
1.411647e-09
1.4109094e-09
1.4101456e-09
1.4093556e-09
1.4085397e-09
1.407698e-09
1.4068308e-09
1.4059381e-09
1.4050204e-09
1.4040781e-09
1.4031117e-09
1.4021219e-09
1.4011094e-09
1.4000772e-09
1.3990225e-09
1.3979455e-09
1.3968263e-09
1.3956463e-09
1.3943838e-09
1.3930639e-09
1.3910907e-09
1.3890772e-09
1.3877052e-09
1.387084e-09
1.3892015e-09
1.3914995e-09
1.4582321e-09
1.955918e-09
5.5554416e-09
3.4854339e-08
1.7994499e-07
6.7301462e-07
2.0350163e-06
3.7536219e-06
5.7376887e-06
8.2514774e-06
1.1567747e-05
1.5612979e-05
1.9914986e-05
2.4239147e-05
2.8522067e-05
3.1331505e-05
3.415958e-05
3.7103325e-05
4.0223093e-05
4.3450928e-05
4.6827531e-05
5.0509083e-05
5.3882818e-05
5.995958e-05
1.4164592e-09
1.41688e-09
1.417324e-09
1.4177593e-09
1.4181779e-09
1.4185777e-09
1.418958e-09
1.4193183e-09
1.4196583e-09
1.4199777e-09
1.4202763e-09
1.4205539e-09
1.4208101e-09
1.421045e-09
1.4212581e-09
1.4214493e-09
1.4216181e-09
1.4217642e-09
1.4218872e-09
1.4219869e-09
1.4220629e-09
1.4221149e-09
1.4221427e-09
1.4221461e-09
1.4221248e-09
1.4220784e-09
1.4220069e-09
1.4219099e-09
1.4217873e-09
1.4216388e-09
1.4214643e-09
1.4212636e-09
1.4210365e-09
1.4207828e-09
1.4205025e-09
1.4201955e-09
1.4198615e-09
1.4195007e-09
1.4191128e-09
1.4186979e-09
1.4182559e-09
1.4177868e-09
1.4172906e-09
1.4167674e-09
1.4162172e-09
1.4156399e-09
1.4150358e-09
1.4144048e-09
1.4137471e-09
1.4130627e-09
1.4123518e-09
1.4116146e-09
1.410851e-09
1.4100614e-09
1.4092459e-09
1.4084046e-09
1.4075378e-09
1.4066456e-09
1.4057282e-09
1.4047859e-09
1.4038188e-09
1.4028274e-09
1.4018118e-09
1.4007726e-09
1.3997107e-09
1.3986261e-09
1.3975212e-09
1.3963987e-09
1.3952532e-09
1.3940824e-09
1.3928698e-09
1.3915431e-09
1.3902634e-09
1.3882675e-09
1.3859503e-09
1.3844832e-09
1.3834088e-09
1.3854524e-09
1.3854506e-09
1.4526645e-09
1.9769882e-09
6.1392571e-09
4.3593233e-08
2.292897e-07
8.6730928e-07
2.4935051e-06
4.4406915e-06
6.7569263e-06
9.7228087e-06
1.3610543e-05
1.8096001e-05
2.2738579e-05
2.7346905e-05
3.1571035e-05
3.4560635e-05
3.7583615e-05
4.0747992e-05
4.4142118e-05
4.7207738e-05
5.312025e-05
1.4171028e-09
1.4175239e-09
1.4179683e-09
1.4184039e-09
1.4188229e-09
1.4192231e-09
1.4196038e-09
1.4199644e-09
1.4203048e-09
1.4206246e-09
1.4209235e-09
1.4212014e-09
1.421458e-09
1.4216931e-09
1.4219064e-09
1.4220978e-09
1.4222668e-09
1.422413e-09
1.4225363e-09
1.4226361e-09
1.4227124e-09
1.4227646e-09
1.4227927e-09
1.4227963e-09
1.4227752e-09
1.4227291e-09
1.4226578e-09
1.4225611e-09
1.4224387e-09
1.4222905e-09
1.4221162e-09
1.4219157e-09
1.4216888e-09
1.4214354e-09
1.4211553e-09
1.4208485e-09
1.4205147e-09
1.4201541e-09
1.4197664e-09
1.4193516e-09
1.4189098e-09
1.4184409e-09
1.4179449e-09
1.4174218e-09
1.4168717e-09
1.4162946e-09
1.4156906e-09
1.4150598e-09
1.4144022e-09
1.4137179e-09
1.4130072e-09
1.41227e-09
1.4115066e-09
1.4107171e-09
1.4099017e-09
1.4090605e-09
1.4081938e-09
1.4073017e-09
1.4063845e-09
1.4054424e-09
1.4044756e-09
1.4034843e-09
1.4024689e-09
1.4014295e-09
1.4003665e-09
1.3992801e-09
1.3981708e-09
1.3970393e-09
1.3958866e-09
1.3947122e-09
1.3935213e-09
1.3923112e-09
1.3910839e-09
1.3898189e-09
1.388443e-09
1.3870862e-09
1.3852642e-09
1.382768e-09
1.3812233e-09
1.379965e-09
1.3822763e-09
1.3816926e-09
1.4729092e-09
2.2243554e-09
8.9042061e-09
6.9954281e-08
3.5549695e-07
1.3803986e-06
3.2506719e-06
5.4580578e-06
8.2245684e-06
1.1883096e-05
1.6408101e-05
2.135207e-05
2.6304026e-05
3.1199317e-05
3.5142967e-05
3.8345349e-05
4.1259344e-05
4.6693262e-05
1.417704e-09
1.4181255e-09
1.4185701e-09
1.4190061e-09
1.4194255e-09
1.419826e-09
1.420207e-09
1.420568e-09
1.4209087e-09
1.4212288e-09
1.4215281e-09
1.4218062e-09
1.4220631e-09
1.4222984e-09
1.422512e-09
1.4227035e-09
1.4228726e-09
1.423019e-09
1.4231424e-09
1.4232424e-09
1.4233188e-09
1.4233712e-09
1.4233995e-09
1.4234033e-09
1.4233823e-09
1.4233364e-09
1.4232653e-09
1.4231687e-09
1.4230465e-09
1.4228985e-09
1.4227243e-09
1.422524e-09
1.4222972e-09
1.422044e-09
1.421764e-09
1.4214573e-09
1.4211237e-09
1.4207631e-09
1.4203756e-09
1.4199609e-09
1.4195192e-09
1.4190504e-09
1.4185545e-09
1.4180315e-09
1.4174814e-09
1.4169044e-09
1.4163004e-09
1.4156696e-09
1.4150121e-09
1.4143279e-09
1.4136171e-09
1.41288e-09
1.4121166e-09
1.4113271e-09
1.4105117e-09
1.4096705e-09
1.4088038e-09
1.4079117e-09
1.4069945e-09
1.4060523e-09
1.4050855e-09
1.4040943e-09
1.4030788e-09
1.4020395e-09
1.4009766e-09
1.3998903e-09
1.3987809e-09
1.3976488e-09
1.3964943e-09
1.3953177e-09
1.3941195e-09
1.3929011e-09
1.3916618e-09
1.3904065e-09
1.3891363e-09
1.3878469e-09
1.3865354e-09
1.3851045e-09
1.3837143e-09
1.3818392e-09
1.379255e-09
1.3775123e-09
1.376674e-09
1.3785992e-09
1.3839195e-09
1.5482507e-09
3.0145852e-09
1.9275604e-08
1.4115308e-07
6.3914959e-07
2.2416215e-06
4.450888e-06
7.0640182e-06
1.0461626e-05
1.4953877e-05
2.007927e-05
2.5376582e-05
3.0715747e-05
3.5387519e-05
4.0837487e-05
1.4182657e-09
1.4186875e-09
1.4191325e-09
1.4195688e-09
1.4199885e-09
1.4203894e-09
1.4207707e-09
1.421132e-09
1.421473e-09
1.4217934e-09
1.422093e-09
1.4223714e-09
1.4226285e-09
1.422864e-09
1.4230777e-09
1.4232693e-09
1.4234386e-09
1.4235851e-09
1.4237086e-09
1.4238087e-09
1.4238852e-09
1.4239377e-09
1.4239661e-09
1.42397e-09
1.4239492e-09
1.4239033e-09
1.4238323e-09
1.4237359e-09
1.4236137e-09
1.4234658e-09
1.4232917e-09
1.4230914e-09
1.4228648e-09
1.4226116e-09
1.4223317e-09
1.422025e-09
1.4216915e-09
1.421331e-09
1.4209435e-09
1.4205289e-09
1.4200872e-09
1.4196184e-09
1.4191225e-09
1.4185995e-09
1.4180494e-09
1.4174724e-09
1.4168684e-09
1.4162376e-09
1.41558e-09
1.4148957e-09
1.4141849e-09
1.4134477e-09
1.4126843e-09
1.4118947e-09
1.4110792e-09
1.410238e-09
1.4093712e-09
1.408479e-09
1.4075616e-09
1.4066194e-09
1.4056524e-09
1.4046611e-09
1.4036455e-09
1.4026061e-09
1.401543e-09
1.4004566e-09
1.3993472e-09
1.398215e-09
1.3970604e-09
1.3958838e-09
1.3946853e-09
1.3934654e-09
1.3922244e-09
1.3909628e-09
1.3896819e-09
1.3883816e-09
1.387065e-09
1.3857358e-09
1.3843887e-09
1.3830263e-09
1.3815227e-09
1.3801327e-09
1.3779064e-09
1.3755652e-09
1.3729159e-09
1.3764573e-09
1.3636909e-09
1.4044271e-09
1.8009073e-09
5.710282e-09
5.2105502e-08
3.2528483e-07
1.3695307e-06
3.4606039e-06
6.0348659e-06
9.305406e-06
1.3713475e-05
1.9115891e-05
2.419614e-05
3.2951236e-05
1.4187908e-09
1.4192128e-09
1.4196582e-09
1.4200948e-09
1.4205147e-09
1.4209159e-09
1.4212975e-09
1.4216591e-09
1.4220004e-09
1.4223211e-09
1.4226209e-09
1.4228996e-09
1.4231569e-09
1.4233925e-09
1.4236064e-09
1.4237981e-09
1.4239675e-09
1.4241141e-09
1.4242376e-09
1.4243378e-09
1.4244143e-09
1.424467e-09
1.4244954e-09
1.4244993e-09
1.4244785e-09
1.4244328e-09
1.4243618e-09
1.4242654e-09
1.4241433e-09
1.4239953e-09
1.4238213e-09
1.4236211e-09
1.4233944e-09
1.4231412e-09
1.4228613e-09
1.4225547e-09
1.4222211e-09
1.4218606e-09
1.4214731e-09
1.4210585e-09
1.4206167e-09
1.4201479e-09
1.4196519e-09
1.4191289e-09
1.4185788e-09
1.4180017e-09
1.4173976e-09
1.4167667e-09
1.416109e-09
1.4154246e-09
1.4147137e-09
1.4139764e-09
1.4132128e-09
1.4124231e-09
1.4116074e-09
1.410766e-09
1.409899e-09
1.4090067e-09
1.4080892e-09
1.4071467e-09
1.4061796e-09
1.405188e-09
1.4041722e-09
1.4031326e-09
1.4020693e-09
1.4009826e-09
1.399873e-09
1.3987405e-09
1.3975857e-09
1.3964088e-09
1.3952102e-09
1.3939902e-09
1.3927491e-09
1.3914872e-09
1.3902049e-09
1.3889027e-09
1.3875807e-09
1.3862407e-09
1.384882e-09
1.383509e-09
1.3821226e-09
1.3807271e-09
1.3792995e-09
1.3777296e-09
1.376331e-09
1.3733819e-09
1.3711632e-09
1.3692854e-09
1.3711021e-09
1.3697196e-09
1.4887809e-09
2.7844889e-09
1.878438e-08
1.5850728e-07
7.846569e-07
2.7132993e-06
5.2686273e-06
8.6991282e-06
1.2213017e-05
2.1127829e-05
1.4192805e-09
1.4197029e-09
1.4201485e-09
1.4205854e-09
1.4210056e-09
1.4214071e-09
1.421789e-09
1.4221508e-09
1.4224924e-09
1.4228133e-09
1.4231134e-09
1.4233923e-09
1.4236498e-09