/*--------------------------------*- C++ -*----------------------------------*\
  =========                 |
  \\      /  F ield         | OpenFOAM: The Open Source CFD Toolbox
   \\    /   O peration     | Website:  https://openfoam.org
    \\  /    A nd           | Version:  12
     \\/     M anipulation  |
\*---------------------------------------------------------------------------*/
FoamFile
{
    format      ascii;
    class       surfaceScalarField;
    location    "1200";
    object      phi;
}
// * * * * * * * * * * * * * * * * * * * * * * * * * * * * * * * * * * * * * //

dimensions      [0 3 -1 0 0 0 0];

internalField   nonuniform List<scalar> 
14782
(
0.0007983908
1.0682364e-06
-0.00079945903
0.00079695521
1.4355905e-06
0.000795323
1.6322112e-06
0.00079361475
1.7082417e-06
0.00079183091
1.7838464e-06
0.00078997013
1.8607796e-06
0.00078803501
1.9351174e-06
0.00078602223
2.0127848e-06
0.0007839215
2.100728e-06
0.0007817329
2.1885949e-06
0.00077938219
2.3507122e-06
0.00077698343
2.3987649e-06
0.00077340274
3.5806864e-06
0.00076706238
6.3403638e-06
0.00075812804
8.9343397e-06
0.00074740566
1.0722379e-05
0.00073575307
1.165259e-05
0.00072356117
1.2191892e-05
0.00071111455
1.2446622e-05
0.0006986601
1.2454456e-05
0.00068634782
1.2312272e-05
0.00067425729
1.2090529e-05
0.0006623343
1.1922991e-05
0.0006505252
1.18091e-05
0.0006389242
1.1601006e-05
0.00062767628
1.1247914e-05
0.00061698744
1.0688839e-05
0.00060693618
1.0051262e-05
0.00059746947
9.4667108e-06
0.00058861937
8.8501056e-06
0.0005804363
8.183063e-06
0.00057295114
7.4851627e-06
0.00056616752
6.7836254e-06
0.00056006655
6.1009617e-06
0.0005546109
5.4556523e-06
0.0005497494
4.8615014e-06
0.00054542361
4.3257926e-06
0.00054158262
3.8409901e-06
0.00053818274
3.3998724e-06
0.00053517617
3.0065778e-06
0.00053250978
2.6663882e-06
0.00053012861
2.3811662e-06
0.00052798285
2.1457669e-06
0.00052603331
1.9495376e-06
0.00052423703
1.7962758e-06
0.00052255161
1.6854173e-06
0.00052094508
1.6065337e-06
0.00051938871
1.5563759e-06
0.00051785975
1.5289596e-06
0.00051633632
1.523422e-06
0.00051479284
1.5434825e-06
0.00051320535
1.587493e-06
0.0005115618
1.6435495e-06
0.00050986151
1.7002877e-06
0.00050810993
1.7515799e-06
0.00050631658
1.7933488e-06
0.00050449237
1.8242171e-06
0.00050265193
1.8404352e-06
0.00050080804
1.8438849e-06
0.00049896582
1.8422269e-06
0.00049712795
1.8378637e-06
0.00049529651
1.8314491e-06
0.00049347662
1.8198851e-06
0.00049167335
1.8032737e-06
0.00048988923
1.7841176e-06
0.00048812689
1.7623436e-06
0.00048639047
1.7364131e-06
0.0004846825
1.7079727e-06
0.00048300059
1.681914e-06
0.00048134089
1.6596934e-06
0.00047970166
1.6392324e-06
0.00047808226
1.6194007e-06
0.00047648202
1.6002373e-06
0.00047490145
1.5805756e-06
0.00047334261
1.5588347e-06
0.0004718065
1.5361084e-06
0.00047029119
1.5153095e-06
0.00046879475
1.4964483e-06
0.00046731543
1.4793147e-06
0.00046585298
1.4624474e-06
0.00046440755
1.4454309e-06
0.00046298025
1.4273038e-06
0.00046157214
1.4081052e-06
0.00046018104
1.3911011e-06
0.00045880553
1.3755075e-06
0.00045744504
1.3604954e-06
0.00045609858
1.3464554e-06
0.00045476771
1.3308774e-06
0.00045345277
1.3149382e-06
0.00045215161
1.3011582e-06
0.00045086358
1.2880299e-06
0.00044958792
1.2756606e-06
0.00044832382
1.2640945e-06
0.00044707173
1.2520918e-06
0.00044582871
1.2430258e-06
0.00044459228
1.236428e-06
0.00044335254
1.2397423e-06
0.00044207925
1.2732904e-06
0.00044084929
1.2299566e-06
1.4789454e-06
0.00082684524
1.0459815e-06
-0.00082682299
0.00082687813
1.4026973e-06
0.00082688525
1.6250933e-06
0.00082686959
1.7239035e-06
0.00082684193
1.8115042e-06
0.00082679786
1.9048544e-06
0.00082673672
1.996255e-06
0.00082665612
2.0933868e-06
0.00082655087
2.2059766e-06
0.00082640903
2.3304335e-06
0.00082621976
2.5399835e-06
0.00082585543
2.7630944e-06
0.00082543176
4.0043575e-06
0.00082494345
6.828678e-06
0.0008239908
9.8869827e-06
0.00082232448
1.2388703e-05
0.00081987476
1.4102312e-05
0.00081671502
1.5351632e-05
0.00081291918
1.6242461e-05
0.00080854093
1.6832704e-05
0.00080360081
1.7252391e-05
0.00079812677
1.7564567e-05
0.00079224931
1.780046e-05
0.00078606874
1.7989669e-05
0.00077960351
1.8066237e-05
0.00077287642
1.7975003e-05
0.00076586856
1.7696695e-05
0.00075863587
1.7283953e-05
0.00075129068
1.6811897e-05
0.00074389171
1.6249082e-05
0.00073649309
1.5581678e-05
0.00072914588
1.4832371e-05
0.00072190317
1.4026335e-05
0.00071481916
1.3184976e-05
0.00070794461
1.23302e-05
0.00070132472
1.1481396e-05
0.00069500727
1.0643238e-05
0.00068900918
9.8390812e-06
0.00068330608
9.1029738e-06
0.00067788495
8.4277076e-06
0.00067274808
7.8032588e-06
0.0006678953
7.2339505e-06
0.0006633172
6.7238614e-06
0.0006589919
6.2748387e-06
0.00065489878
5.8893909e-06
0.00065102034
5.5638624e-06
0.00064733352
5.2933532e-06
0.00064381939
5.0705022e-06
0.00064046659
4.8817594e-06
0.0006372343
4.755716e-06
0.00063407877
4.6990147e-06
0.00063099348
4.6727861e-06
0.00062798027
4.6567507e-06
0.0006250413
4.6392634e-06
0.00062217482
4.618056e-06
0.00061937639
4.5917772e-06
0.0006166405
4.5601136e-06
0.00061395764
4.5232963e-06
0.00061131628
4.4852413e-06
0.00060871088
4.4476258e-06
0.00060614171
4.4070324e-06
0.00060361028
4.362881e-06
0.00060111946
4.3107038e-06
0.00059867157
4.2511655e-06
0.00059626693
4.1887549e-06
0.00059390612
4.123161e-06
0.00059158966
4.0528644e-06
0.00058931486
3.9827784e-06
0.00058707659
3.9201825e-06
0.00058487185
3.8644367e-06
0.00058270087
3.8102101e-06
0.00058056457
3.7557028e-06
0.00057846279
3.7020165e-06
0.00057639559
3.6477755e-06
0.00057436355
3.5908716e-06
0.00057236529
3.5343696e-06
0.0005703974
3.4831998e-06
0.0005684579
3.4359506e-06
0.00056654613
3.391086e-06
0.0005646623
3.346274e-06
0.00056280653
3.3011998e-06
0.00056097894
3.2548896e-06
0.00055917881
3.2082345e-06
0.00055740347
3.1664502e-06
0.00055565158
3.1273957e-06
0.00055392295
3.0891217e-06
0.00055221711
3.0522954e-06
0.00055053463
3.0133628e-06
0.00054887472
2.9748483e-06
0.00054723504
2.9408314e-06
0.00054561478
2.908295e-06
0.00054401358
2.8768578e-06
0.00054243048
2.8471915e-06
0.00054086533
2.8172417e-06
0.0005393131
2.7952565e-06
0.00053777652
2.7730155e-06
0.00053622851
2.7877439e-06
0.00053470424
2.7975648e-06
0.00053296675
2.9674452e-06
2.9621135e-06
0.00085447077
1.042291e-06
-0.00085446708
0.00085448557
1.3878904e-06
0.00085449734
1.6133285e-06
0.00085449116
1.7300831e-06
0.00085447152
1.8311407e-06
0.00085443862
1.9377541e-06
0.00085439
2.0448831e-06
0.00085432386
2.1595205e-06
0.00085423575
2.294091e-06
0.00085411315
2.4530338e-06
0.00085394588
2.7072473e-06
0.00085364078
3.0682024e-06
0.00085337266
4.2724689e-06
0.00085335894
6.8424013e-06
0.00085349848
9.7474421e-06
0.00085369608
1.21911e-05
0.00085384358
1.3954819e-05
0.00085389476
1.5300444e-05
0.0008537949
1.6342326e-05
0.00085350392
1.7123685e-05
0.00085300666
1.7749649e-05
0.00085228656
1.828467e-05
0.00085132876
1.875826e-05
0.00085011675
1.9201677e-05
0.00084859365
1.9589335e-05
0.00084667286
1.9895795e-05
0.00084425624
2.0113315e-05
0.00084128985
2.025034e-05
0.00083777238
2.032937e-05
0.0008336749
2.0346557e-05
0.00082900332
2.0253257e-05
0.00082380072
2.0034977e-05
0.00081810979
1.971726e-05
0.00081199071
1.9304056e-05
0.00080552182
1.8799096e-05
0.0007987964
1.8206812e-05
0.00079191502
1.7524618e-05
0.00078498436
1.676974e-05
0.00077810607
1.5981269e-05
0.00077136201
1.5171762e-05
0.00076481783
1.4347443e-05
0.00075852166
1.353012e-05
0.00075246734
1.2778184e-05
0.00074662754
1.2114639e-05
0.00074101117
1.1505758e-05
0.00073563437
1.094066e-05
0.00073050896
1.0418765e-05
0.00072563526
9.9441987e-06
0.00072099435
9.5226712e-06
0.00071656518
9.1848871e-06
0.0007123319
8.9322897e-06
0.00070827637
8.7283215e-06
0.00070438364
8.5494819e-06
0.00070064388
8.3790206e-06
0.00069704383
8.2181022e-06
0.00069356802
8.0675888e-06
0.0006902001
7.9280356e-06
0.00068691204
7.811362e-06
0.00068368588
7.711394e-06
0.00068052571
7.6077989e-06
0.000677434
7.4987437e-06
0.0006744088
7.3880753e-06
0.00067144823
7.2712808e-06
0.00066855138
7.1480094e-06
0.00066571671
7.0234279e-06
0.00066294313
6.896738e-06
0.0006602271
6.7688974e-06
0.00065756091
6.6489651e-06
0.00065493906
6.5420348e-06
0.00065236096
6.4425375e-06
0.00064982826
6.3429116e-06
0.00064734188
6.242077e-06
0.00064490118
6.1427208e-06
0.00064250568
6.0432712e-06
0.00064015467
5.9418878e-06
0.0006378446
5.8444405e-06
0.00063557122
5.7565729e-06
0.00063333321
5.6739689e-06
0.0006311307
5.593595e-06
0.00062896403
5.5129433e-06
0.00062683314
5.4320921e-06
0.00062473733
5.3506999e-06
0.00062267452
5.2710352e-06
0.00062064171
5.1992689e-06
0.00061863785
5.1312509e-06
0.00061666307
5.0639028e-06
0.00061471707
4.9982953e-06
0.00061279981
4.9306222e-06
0.00061090966
4.8649985e-06
0.00060904409
4.806405e-06
0.00060720232
4.7500606e-06
0.00060538426
4.6949165e-06
0.00060358877
4.6426821e-06
0.00060181522
4.5907883e-06
0.00060005761
4.5528713e-06
0.00059832058
4.5100466e-06
0.00059657021
4.5381111e-06
0.00059486793
4.4998429e-06
0.00059284643
4.9889518e-06
4.5283907e-06
0.00088301903
1.050012e-06
-0.00088302675
0.00088303031
1.3766027e-06
0.00088304003
1.6036131e-06
0.00088303183
1.7382783e-06
0.00088301054
1.8524346e-06
0.00088297624
1.9720554e-06
0.00088292598
2.0951432e-06
0.00088285782
2.2276789e-06
0.00088276751
2.3843986e-06
0.00088264331
2.5772366e-06
0.00088247408
2.8764733e-06
0.00088220432
3.3379688e-06
0.00088195804
4.5187502e-06
0.00088193413
6.8663097e-06
0.00088208456
9.5970083e-06
0.000882328
1.1947662e-05
0.00088258835
1.3694471e-05
0.00088284944
1.5039351e-05
0.00088309
1.6101765e-05
0.00088329506
1.6918631e-05
0.0008834667
1.7578003e-05
0.0008836063
1.8145075e-05
0.00088371199
1.8652568e-05
0.00088378402
1.9129642e-05
0.00088381514
1.9558217e-05
0.0008837904
1.9920541e-05
0.00088368931
2.0214403e-05
0.00088348542
2.0454233e-05
0.00088314729
2.0667498e-05
0.00088263694
2.0856906e-05
0.00088188268
2.1007517e-05
0.0008807938
2.1123852e-05
0.00087929233
2.121873e-05
0.00087729914
2.1297253e-05
0.00087473691
2.1361325e-05
0.00087153545
2.1408267e-05
0.00086763549
2.1424578e-05
0.00086303669
2.1368541e-05
0.00085779781
2.1220155e-05
0.00085198676
2.0982814e-05
0.00084569481
2.0639392e-05
0.00083905068
2.0174252e-05
0.00083221123
1.9617632e-05
0.00082532394
1.9001926e-05
0.00081850367
1.8326031e-05
0.00081184064
1.7603687e-05
0.00080541168
1.6847726e-05
0.00079921671
1.6139169e-05
0.00079321577
1.5523614e-05
0.00078743928
1.4961375e-05
0.00078192729
1.4444275e-05
0.00077668976
1.3965853e-05
0.00077171776
1.3521481e-05
0.00076698193
1.3114854e-05
0.00076244768
1.2752349e-05
0.00075809132
1.2423952e-05
0.00075389669
1.2122667e-05
0.00074985328
1.1854769e-05
0.00074595326
1.1611413e-05
0.00074218302
1.1378038e-05
0.00073852724
1.1154528e-05
0.00073497139
1.0943923e-05
0.00073150739
1.0735279e-05
0.00072813298
1.0522417e-05
0.00072484503
1.0311379e-05
0.00072163922
1.0102554e-05
0.00071850357
9.9045479e-06
0.00071542499
9.7275441e-06
0.00071240321
9.5638168e-06
0.00070944214
9.4036027e-06
0.00070654273
9.2423189e-06
0.00070370392
9.0808905e-06
0.00070092373
8.9229061e-06
0.00069820104
8.7659654e-06
0.00069553281
8.6101189e-06
0.00069291244
8.4648126e-06
0.00069033585
8.3331642e-06
0.00068780352
8.2062961e-06
0.00068531625
8.0808602e-06
0.00068287396
7.9552391e-06
0.0006804761
7.8299523e-06
0.00067812065
7.7061429e-06
0.00067580386
7.5878317e-06
0.00067352267
7.4804571e-06
0.00067127679
7.3771323e-06
0.00066906662
7.2740689e-06
0.00066689186
7.173059e-06
0.00066475161
7.0708753e-06
0.00066264315
6.9734514e-06
0.00066056389
6.8856687e-06
0.00065851334
6.8006122e-06
0.00065649162
6.7166335e-06
0.00065449729
6.6370155e-06
0.00065252906
6.5590158e-06
0.00065058023
6.5016987e-06
0.00064865662
6.4336605e-06
0.00064672022
6.4745061e-06
0.00064484911
6.3709603e-06
0.00064258927
7.2487916e-06
6.203347e-06
0.00091252407
1.064695e-06
-0.00091253875
0.00091252959
1.3710771e-06
0.00091253358
1.5996284e-06
0.00091252212
1.7497419e-06
0.00091249794
1.8766121e-06
0.00091246132
2.0086742e-06
0.00091240936
2.1471034e-06
0.00091233954
2.2975012e-06
0.00091224765
2.476291e-06
0.00091212292
2.701962e-06
0.00091195647
3.0429281e-06
0.00091171346
3.5809766e-06
0.00091148915
4.7430558e-06
0.00091145755
6.8979125e-06
0.0009115981
9.4564577e-06
0.00091183065
1.1715115e-05
0.00091208673
1.343839e-05
0.00091234845
1.4777633e-05
0.00091259957
1.5850639e-05
0.00091282597
1.6692231e-05
0.00091302824
1.7375738e-05
0.00091321057
1.7962739e-05
0.00091337562
1.8487521e-05
0.00091352978
1.8975482e-05
0.00091367354
1.9414455e-05
0.000913805
1.9789083e-05
0.00091392246
2.0096939e-05
0.00091402478
2.0351913e-05
0.00091411316
2.0579119e-05
0.00091418645
2.0783619e-05
0.00091423895
2.0955016e-05
0.00091426363
2.1099172e-05
0.0009142505
2.1231859e-05
0.00091418302
2.1364733e-05
0.00091403586
2.1508484e-05
0.00091377214
2.1671992e-05
0.00091333526
2.1861453e-05
0.00091262846
2.2075347e-05
0.00091153423
2.2314385e-05
0.00090993842
2.2578617e-05
0.00090772029
2.2857526e-05
0.00090475896
2.3135584e-05
0.00090098741
2.3389176e-05
0.00089643052
2.3558822e-05
0.00089115902
2.3597526e-05
0.00088526174
2.3500965e-05
0.00087886646
2.3243013e-05
0.00087215086
2.2854767e-05
0.00086529307
2.2381403e-05
0.00085844176
2.181268e-05
0.00085172118
2.1164858e-05
0.0008452352
2.0451834e-05
0.00083900331
1.9753375e-05
0.00083297799
1.9140167e-05
0.00082715605
1.8574289e-05
0.00082155896
1.8021042e-05
0.00081620751
1.7474118e-05
0.00081111793
1.6944351e-05
0.00080627327
1.6456074e-05
0.00080163057
1.6020738e-05
0.00079715948
1.5625617e-05
0.0007928426
1.5260801e-05
0.00078867351
1.4904376e-05
0.00078464609
1.4549835e-05
0.0007807467
1.4210765e-05
0.00077695991
1.3889345e-05
0.0007732754
1.3589064e-05
0.00076968959
1.3313349e-05
0.00076619905
1.3054362e-05
0.00076279784
1.2804806e-05
0.00075947956
1.2560602e-05
0.00075623962
1.2320827e-05
0.00075307499
1.208754e-05
0.00074998361
1.1857341e-05
0.00074695781
1.1635924e-05
0.0007439872
1.143542e-05
0.00074107097
1.12494e-05
0.00073821262
1.1064639e-05
0.0007354123
1.0881188e-05
0.00073266847
1.0699064e-05
0.00072997978
1.0518645e-05
0.00072734187
1.0344052e-05
0.00072474888
1.0180824e-05
0.00072219883
1.0030503e-05
0.00071969264
9.8833226e-06
0.00071723071
9.7359978e-06
0.00071481234
9.5914332e-06
0.00071243516
9.4480513e-06
0.00071009508
9.3135342e-06
0.00070778985
9.1908982e-06
0.00070551956
9.0709013e-06
0.00070328447
8.9517247e-06
0.00070108248
8.8390051e-06
0.00069891135
8.7301499e-06
0.00069676387
8.6491783e-06
0.00069464687
8.5506539e-06
0.00069251933
8.6020497e-06
0.00069047235
8.4179351e-06
0.00068797959
9.741555e-06
8.0044053e-06
0.00094301477
1.0851085e-06
-0.00094303518
0.00094301362
1.3722316e-06
0.00094301241
1.6008374e-06
0.00094299862
1.7635252e-06
0.00094297254
1.9026994e-06
0.0009429344
2.0468149e-06
0.00094288142
2.2000817e-06
0.00094281057
2.3683489e-06
0.00094271773
2.569132e-06
0.00094259368
2.8260129e-06
0.00094243135
3.2052516e-06
0.00094221085
3.8014797e-06
0.00094200874
4.9451715e-06
0.00094197341
6.9332349e-06
0.00094210393
9.3259394e-06
0.00094232587
1.1493178e-05
0.00094257531
1.3188947e-05
0.00094283121
1.4521731e-05
0.00094307875
1.5603106e-05
0.00094330443
1.646655e-05
0.00094350825
1.717192e-05
0.00094369412
1.7776865e-05
0.00094386452
1.8317115e-05
0.00094402509
1.8814921e-05
0.00094417677
1.9262771e-05
0.00094431835
1.9647502e-05
0.00094444788
1.9967412e-05
0.0009445646
2.0235191e-05
0.00094467066
2.0473056e-05
0.0009447671
2.0687187e-05
0.00094485293
2.0869182e-05
0.00094492823
2.1023872e-05
0.00094499368
2.1166411e-05
0.00094504987
2.1308546e-05
0.00094509751
2.1460838e-05
0.00094513675
2.1632757e-05
0.00094516664
2.1831561e-05
0.00094518294
2.205904e-05
0.00094517771
2.2319622e-05
0.00094513731
2.2619011e-05
0.00094503729
2.2957546e-05
0.00094483516
2.3337719e-05
0.00094446369
2.3760642e-05
0.00094380058
2.422193e-05
0.00094268521
2.4712896e-05
0.00094096538
2.5220799e-05
0.00093848305
2.5725341e-05
0.00093513689
2.6200927e-05
0.00093093324
2.6585057e-05
0.000925937
2.6808923e-05
0.00092024489
2.685696e-05
0.00091399606
2.670067e-05
0.00090738542
2.6364014e-05
0.00090061503
2.5910551e-05
0.0008938487
2.534062e-05
0.00088720626
2.4663486e-05
0.00088078336
2.3897022e-05
0.00087458874
2.3138966e-05
0.00086856932
2.2475496e-05
0.00086273314
2.1856921e-05
0.00085711532
2.1243433e-05
0.00085174293
2.0633194e-05
0.00084661045
2.0036854e-05
0.00084167978
1.9480505e-05
0.00083692088
1.8969661e-05
0.00083231816
1.8492067e-05
0.00082787448
1.8032738e-05
0.00082359705
1.7590788e-05
0.00081947215
1.7179257e-05
0.00081547738
1.6799576e-05
0.0008115981
1.6439879e-05
0.00080782896
1.6089972e-05
0.00080416531
1.5751188e-05
0.00080059965
1.5423008e-05
0.00079712436
1.5111213e-05
0.00079373449
1.4825284e-05
0.00079042652
1.4557378e-05
0.00078719693
1.429422e-05
0.00078404152
1.4036604e-05
0.00078095659
1.3783989e-05
0.00077793982
1.3535413e-05
0.000774983
1.3300878e-05
0.0007720785
1.308532e-05
0.00076922767
1.2881331e-05
0.00076643248
1.2678518e-05
0.00076369235
1.2476122e-05
0.00076100566
1.2278125e-05
0.0007583677
1.2086014e-05
0.00075577293
1.1908299e-05
0.00075322047
1.1743358e-05
0.00075071104
1.1580332e-05
0.00074824469
1.141808e-05
0.00074581813
1.1265567e-05
0.00074342784
1.1120432e-05
0.0007410665
1.1010526e-05
0.00073874204
1.0875109e-05
0.00073641061
1.0933482e-05
0.00073417494
1.0653607e-05
0.000731441
1.2475489e-05
9.9475499e-06
0.00097452375
1.110138e-06
-0.00097454878
0.00097451641
1.3795735e-06
0.00097451056
1.606683e-06
0.0009744943
1.7797831e-06
0.00097446608
1.9309238e-06
0.00097442602
2.0868742e-06
0.0009743716
2.2545064e-06
0.00097429953
2.4404121e-06
0.0009742059
2.6627611e-06
0.00097408308
2.9488367e-06
0.00097392583
3.3625006e-06
0.00097372515
4.0021595e-06
0.00097354397
5.1263546e-06
0.00097350717
6.9700351e-06
0.00097362766
9.2054448e-06
0.00097383988
1.1280962e-05
0.0009740834
1.2945421e-05
0.00097433505
1.427009e-05
0.00097458103
1.5357123e-05
0.00097480802
1.6239558e-05
0.00097501465
1.6965287e-05
0.00097520349
1.7588034e-05
0.0009753773
1.8143302e-05
0.0009755406
1.8651616e-05
0.00097569438
1.9108993e-05
0.00097583763
1.9504251e-05
0.00097596899
1.9836055e-05
0.00097608812
2.0116065e-05
0.00097619701
2.0364166e-05
0.00097629682
2.058737e-05
0.00097638669
2.0779311e-05
0.00097646656
2.0944002e-05
0.0009765373
2.1095675e-05
0.00097659944
2.124641e-05
0.00097665374
2.1406535e-05
0.00097670133
2.1585167e-05
0.00097674339
2.1789504e-05
0.00097678064
2.2021788e-05
0.00097681399
2.2286275e-05
0.00097684438
2.258862e-05
0.00097687215
2.292977e-05
0.00097689731
2.331256e-05
0.00097691867
2.3739283e-05
0.00097693151
2.4209095e-05
0.00097692437
2.472003e-05
0.00097687662
2.5268547e-05
0.0009767492
2.5852762e-05
0.00097647906
2.6471069e-05
0.00097594322
2.7120898e-05
0.00097495748
2.7794661e-05
0.00097333756
2.8476882e-05
0.00097089826
2.9139973e-05
0.00096751991
2.9742363e-05
0.00096323501
3.0195447e-05
0.00095814808
3.042755e-05
0.00095238143
3.0430139e-05
0.00094610291
3.0175542e-05
0.00093952365
2.9718226e-05
0.00093284134
2.9157803e-05
0.0009261987
2.8499563e-05
0.00091969785
2.7744281e-05
0.00091341587
2.6915179e-05
0.00090731231
2.6140412e-05
0.00090132677
2.5466049e-05
0.00089550429
2.4792133e-05
0.0008898947
2.4101664e-05
0.00088451488
2.3412557e-05
0.00087934284
2.2762826e-05
0.00087435462
2.2167475e-05
0.00086953739
2.161681e-05
0.00086488838
2.1088882e-05
0.0008604042
2.0574153e-05
0.00085607099
2.0084402e-05
0.00085187075
1.9623243e-05
0.00084779786
1.9184103e-05
0.00084385642
1.8766723e-05
0.00084003872
1.8375081e-05
0.00083633023
1.8002708e-05
0.00083272053
1.7646312e-05
0.00082920389
1.730062e-05
0.00082577556
1.6963745e-05
0.00082243017
1.6646272e-05
0.00081916295
1.6352541e-05
0.00081596986
1.6074419e-05
0.00081284801
1.5800364e-05
0.00080979429
1.5529842e-05
0.0008068057
1.5266715e-05
0.00080387405
1.5017663e-05
0.00080099308
1.4789275e-05
0.00079816483
1.4571608e-05
0.00079539007
1.4355091e-05
0.00079266796
1.4140186e-05
0.0007899933
1.3940227e-05
0.00078736116
1.3752575e-05
0.00078476472
1.3606965e-05
0.0007822132
1.3426625e-05
0.00077965961
1.3487081e-05
0.00077721766
1.3095551e-05
0.00077422586
1.5467295e-05
1.204987e-05
0.001007085
1.1388153e-06
-0.0010071137
0.0010070721
1.3924927e-06
0.0010070617
1.6170657e-06
0.0010070427
1.7988171e-06
0.0010070123
1.9613219e-06
0.0010069704
2.1287777e-06
0.0010069147
2.3102069e-06
0.0010068419
2.5132578e-06
0.0010067482
2.7564692e-06
0.0010066275
3.0695391e-06
0.0010064764
3.5135894e-06
0.0010062935
4.1850085e-06
0.0010061317
5.2881976e-06
0.0010060954
7.0063393e-06
0.0010062064
9.0943863e-06
0.0010064091
1.1078238e-05
0.0010066465
1.270812e-05
0.0010068937
1.4022858e-05
0.0010071378
1.5113023e-05
0.001007366
1.6011309e-05
0.0010075754
1.6755952e-05
0.0010077676
1.7395808e-05
0.0010079453
1.796558e-05
0.0010081122
1.8484708e-05
0.0010082694
1.8951817e-05
0.0010084159
1.9357747e-05
0.0010085504
1.9701522e-05
0.0010086727
1.9993825e-05
0.0010087843
2.0252505e-05
0.0010088866
2.0485118e-05
0.0010089787
2.0687165e-05
0.0010090606
2.0862153e-05
0.0010091329
2.1023372e-05
0.0010091964
2.1182866e-05
0.0010092522
2.135072e-05
0.0010093016
2.1535849e-05
0.0010093457
2.1745402e-05
0.0010093853
2.1982162e-05
0.0010094214
2.2250181e-05
0.001009455
2.2555018e-05
0.0010094865
2.2898265e-05
0.0010095165
2.3282515e-05
0.0010095457
2.3710098e-05
0.0010095746
2.4180262e-05
0.0010096035
2.4691113e-05
0.0010096324
2.5239593e-05
0.0010096612
2.5824019e-05
0.0010096886
2.6443673e-05
0.0010097106
2.7098857e-05
0.0010097157
2.7789611e-05
0.0010096805
2.8512055e-05
0.0010095597
2.9260731e-05
0.0010092745
3.0027625e-05
0.0010086668
3.0803076e-05
0.0010075193
3.1575063e-05
0.0010056286
3.2320816e-05
0.0010027907
3.3013444e-05
0.00099893817
3.3570793e-05
0.0009941929
3.3903077e-05
0.00098870961
3.3982853e-05
0.00098265412
3.3799768e-05
0.00097622947
3.3339829e-05
0.00096964565
3.2724233e-05
0.00096305616
3.2055541e-05
0.00095655369
3.1294602e-05
0.00095022408
3.0431269e-05
0.00094404664
2.9589996e-05
0.00093795599
2.885348e-05
0.00093199543
2.8128035e-05
0.00092623269
2.7379552e-05
0.00092069262
2.6628951e-05
0.00091534994
2.5916831e-05
0.00091018101
2.5253329e-05
0.00090517888
2.4625374e-05
0.00090034832
2.4014663e-05
0.00089569199
2.3423054e-05
0.00089119759
2.2869486e-05
0.00088684925
2.2351044e-05
0.00088263745
2.1858116e-05
0.00087855581
2.1382259e-05
0.00087459396
2.0925596e-05
0.00087074774
2.0492488e-05
0.00086701661
2.008367e-05
0.00086339079
1.9700239e-05
0.00085986005
1.9331103e-05
0.00085641711
1.8972786e-05
0.00085305647
1.8627356e-05
0.000849774
1.8300137e-05
0.00084656523
1.7998044e-05
0.00084342582
1.771102e-05
0.00084035289
1.7428016e-05
0.00083734392
1.7149157e-05
0.00083439094
1.6893212e-05
0.00083148786
1.6655651e-05
0.00082862954
1.646529e-05
0.00082582629
1.6229869e-05
0.00082302718
1.6286192e-05
0.00082035679
1.5765938e-05
0.0008170837
1.8740384e-05
1.4330685e-05
0.0010407338
1.1704207e-06
-0.0010407654
0.0010407158
1.410412e-06
0.001040701
1.6318632e-06
0.0010406792
1.8207102e-06
0.0010406467
1.9937947e-06
0.0010406031
2.1723944e-06
0.0010405462
2.3670747e-06
0.0010404728
2.5866518e-06
0.0010403794
2.8498357e-06
0.0010402614
3.1876011e-06
0.001040117
3.6579799e-06
0.0010399501
4.3518928e-06
0.0010398059
5.4324419e-06
0.0010397715
7.0406502e-06
0.0010398739
8.9919927e-06
0.0010400673
1.0884922e-05
0.0010402981
1.2477276e-05
0.0010405409
1.3780101e-05
0.0010407828
1.4871051e-05
0.0010410119
1.5782208e-05
0.0010412237
1.6544174e-05
0.0010414192
1.720029e-05
0.0010416008
1.778405e-05
0.0010417714
1.8314107e-05
0.0010419321
1.8791052e-05
0.0010420822
1.9207677e-05
0.0010422203
1.9563375e-05
0.0010423462
1.9867927e-05
0.0010424613
2.0137403e-05
0.0010425668
2.0379688e-05
0.001042662
2.0591959e-05
0.0010427467
2.0777414e-05
0.0010428217
2.094841e-05
0.0010428877
2.1116873e-05
0.0010429457
2.1292681e-05
0.001042997
2.1484547e-05
0.0010430428
2.1699567e-05
0.001043084
2.1941014e-05
0.0010431213
2.2212872e-05
0.0010431558
2.2520506e-05
0.0010431882
2.2865913e-05
0.0010432191
2.3251556e-05
0.0010432495
2.3679724e-05
0.0010432799
2.4149898e-05
0.0010433107
2.4660236e-05
0.0010433424
2.5207957e-05
0.0010433748
2.5791603e-05
0.0010434079
2.6410602e-05
0.0010434416
2.7065087e-05
0.0010434764
2.7754826e-05
0.0010435121
2.8476345e-05
0.0010435483
2.9224583e-05
0.0010435833
2.9992576e-05
0.0010436108
3.0775586e-05
0.0010436139
3.1571972e-05
0.0010435571
3.2377623e-05
0.0010433768
3.3193696e-05
0.0010429309
3.4016758e-05
0.0010419934
3.4840597e-05
0.0010403273
3.564896e-05
0.0010377162
3.6410869e-05
0.0010340182
3.7037819e-05
0.0010293294
3.741302e-05
0.0010238837
3.7501204e-05
0.0010178713
3.7306995e-05
0.0010114958
3.6806797e-05
0.0010049588
3.6127019e-05
0.00099840277
3.5409477e-05
0.00099191039
3.4620416e-05
0.000985562
3.3727943e-05
0.00097933481
3.285614e-05
0.00097316923
3.208241e-05
0.0009671209
3.1301663e-05
0.00096126064
3.0485635e-05
0.00095560482
2.9670475e-05
0.00095012824
2.8899639e-05
0.00094482176
2.8175965e-05
0.0009396914
2.7481404e-05
0.00093474031
2.6809207e-05
0.0009299599
2.616267e-05
0.00092533411
2.555138e-05
0.00092085591
2.4970692e-05
0.00091652674
2.4412834e-05
0.00091233842
2.3888565e-05
0.00090827767
2.3391856e-05
0.00090433493
2.2915517e-05
0.00090050184
2.2460451e-05
0.00089677724
2.2024732e-05
0.00089315848
2.1616811e-05
0.00088963402
2.1235478e-05
0.00088619576
2.0866273e-05
0.00088283767
2.0507246e-05
0.00087955369
2.0177196e-05
0.00087634019
1.9869151e-05
0.00087318757
1.9617909e-05
0.00087010266
1.9314775e-05
0.00086702931
1.9359544e-05
0.00086410333
1.8691923e-05
0.00086051925
2.2324461e-05
1.6812302e-05
0.0010755062
1.2044389e-06
-0.0010755403
0.0010754839
1.4327638e-06
0.0010754649
1.6508655e-06
0.0010754401
1.8454716e-06
0.0010754056
2.0282894e-06
0.0010753604
2.2176369e-06
0.0010753024
2.4250129e-06
0.0010752287
2.6603572e-06
0.0010751362
2.9424099e-06
0.0010750213
3.3024852e-06
0.001074884
3.7952165e-06
0.0010747317
4.5042022e-06
0.0010746036
5.5605902e-06
0.0010745724
7.0717863e-06
0.0010746672
8.8972844e-06
0.0010748513
1.0700819e-05
0.0010750755
1.2253005e-05
0.0010753138
1.3541859e-05
0.0010755534
1.463144e-05
0.0010757829
1.5552685e-05
0.0010759969
1.6330228e-05
0.0010761955
1.7001682e-05
0.0010763806
1.7598901e-05
0.0010765548
1.8139891e-05
0.0010767191
1.8626757e-05
0.0010768727
1.9054087e-05
0.0010770144
1.942165e-05
0.001077144
1.9738405e-05
0.0010772625
2.001886e-05
0.0010773711
2.0271062e-05
0.0010774694
2.0493657e-05
0.0010775572
2.0689692e-05
0.0010776349
2.0870632e-05
0.0010777036
2.1048209e-05
0.0010777641
2.1232132e-05
0.0010778178
2.1430916e-05
0.0010778657
2.1651605e-05
0.0010779089
2.1897891e-05
0.001077948
2.2173744e-05
0.0010779842
2.2484343e-05
0.001078018
2.2832033e-05
0.0010780504
2.3219196e-05
0.001078082
2.3648075e-05
0.0010781136
2.411838e-05
0.0010781454
2.4628413e-05
0.0010781777
2.5175621e-05
0.0010782107
2.5758571e-05
0.0010782446
2.6376704e-05
0.0010782797
2.7030064e-05
0.0010783162
2.7718279e-05
0.0010783546
2.8437913e-05
0.001078395
2.9184257e-05
0.0010784365
2.9951065e-05
0.0010784786
3.0733467e-05
0.0010785211
3.1529461e-05
0.0010785632
3.2335535e-05
0.001078604
3.3152896e-05
0.0010786397
3.3981088e-05
0.0010786568
3.4823511e-05
0.0010786218
3.5683906e-05
0.001078474
3.6558667e-05
0.0010780661
3.7445693e-05
0.001077148
3.8331198e-05
0.001075453
3.9196199e-05
0.0010727474
4.0012529e-05
0.001068896
4.0658222e-05
0.0010640165
4.1006527e-05
0.001058389
4.1036973e-05
0.0010522526
4.0756848e-05
0.0010458208
4.0159732e-05
0.0010392752
3.9401732e-05
0.0010327288
3.8628778e-05
0.001026249
3.7781459e-05
0.0010198954
3.6839288e-05
0.0010136213
3.5944513e-05
0.0010073859
3.5135044e-05
0.0010012765
3.428541e-05
0.00099535091
3.3406987e-05
0.0009896088
3.2551317e-05
0.00098403712
3.1734351e-05
0.00097863722
3.0951272e-05
0.00097341623
3.0191692e-05
0.00096837527
2.9453789e-05
0.00096350351
2.8760324e-05
0.00095879151
2.8103857e-05
0.00095423488
2.7472151e-05
0.00094982306
2.6872271e-05
0.0009455482
2.629959e-05
0.00094140732
2.5757692e-05
0.00093739188
2.5250918e-05
0.00093349122
2.4766925e-05
0.00092969527
2.43032e-05
0.00092599994
2.3872531e-05
0.00092240409
2.3465e-05
0.00091889254
2.3129454e-05
0.000915467
2.2740311e-05
0.00091206493
2.2761622e-05
0.00090884055
2.1916301e-05
0.0009049084
2.6256609e-05
1.9520834e-05
0.00111144
1.2404928e-06
-0.0011114761
0.0011114138
1.4590128e-06
0.0011113908
1.6738119e-06
0.0011113632
1.8730749e-06
0.0011113267
2.0647603e-06
0.00111128
2.26439e-06
0.0011112211
2.4838676e-06
0.0011111474
2.7341037e-06
0.001111056
3.033753e-06
0.0011109448
3.4137335e-06
0.001110815
3.9250322e-06
0.0011106761
4.6431255e-06
0.0011105625
5.6740994e-06
0.0011105353
7.0990001e-06
0.0011106233
8.8092699e-06
0.0011107985
1.0525689e-05
0.0011110161
1.2035429e-05
0.0011112497
1.3308222e-05
0.0011114867
1.4394426e-05
0.0011117162
1.5323152e-05
0.0011119321
1.6114405e-05
0.0011121335
1.6800195e-05
0.0011123221
1.74103e-05
0.0011124999
1.7962129e-05
0.0011126677
1.8458961e-05
0.0011128248
1.8896977e-05
0.0011129701
1.927633e-05
0.0011131033
1.9605234e-05
0.0011132253
1.989682e-05
0.0011133372
2.0159162e-05
0.0011134387
2.0392182e-05
0.0011135295
2.0598899e-05
0.0011136102
2.0789941e-05
0.0011136816
2.0976783e-05
0.0011137448
2.1168982e-05
0.0011138008
2.1374867e-05
0.001113851
2.1601421e-05
0.0011138962
2.1852698e-05
0.0011139373
2.2132685e-05
0.0011139752
2.2446397e-05
0.0011140108
2.2796469e-05
0.0011140447
2.3185248e-05
0.0011140779
2.3614931e-05
0.0011141108
2.4085436e-05
0.001114144
2.4595229e-05
0.0011141776
2.5141974e-05
0.0011142119
2.5724277e-05
0.0011142471
2.6341589e-05
0.0011142832
2.6993874e-05
0.0011143208
2.768068e-05
0.00111436
2.8398736e-05
0.0011144008
2.9143427e-05
0.0011144431
2.9908775e-05
0.0011144866
3.0689977e-05
0.0011145313
3.1484836e-05
0.0011145768
3.2289993e-05
0.001114623
3.3106725e-05
0.0011146688
3.3935243e-05
0.0011147142
3.4778154e-05
0.001114759
3.5639096e-05
0.0011148024
3.6515262e-05
0.0011148414
3.7406626e-05
0.0011148619
3.8310725e-05
0.0011148252
3.923289e-05
0.0011146616
4.0176167e-05