/*--------------------------------*- C++ -*----------------------------------*\
  =========                 |
  \\      /  F ield         | OpenFOAM: The Open Source CFD Toolbox
   \\    /   O peration     | Website:  https://openfoam.org
    \\  /    A nd           | Version:  12
     \\/     M anipulation  |
\*---------------------------------------------------------------------------*/
FoamFile
{
    format      ascii;
    class       surfaceScalarField;
    location    "1200";
    object      phi;
}
// * * * * * * * * * * * * * * * * * * * * * * * * * * * * * * * * * * * * * //

dimensions      [0 3 -1 0 0 0 0];

internalField   nonuniform List<scalar> 
25880
(
2.0046355e-06
1.8631578e-11
2.0045758e-06
5.9668794e-11
2.0044803e-06
9.5546742e-11
2.0043615e-06
1.1877794e-10
2.0042236e-06
1.3795686e-10
2.0040681e-06
1.554819e-10
2.0038963e-06
1.7173589e-10
2.0037091e-06
1.8724204e-10
2.0035064e-06
2.0272818e-10
2.0032875e-06
2.1886469e-10
2.0030513e-06
2.3626041e-10
2.0027956e-06
2.556091e-10
2.0025178e-06
2.7780716e-10
2.0022136e-06
3.0419946e-10
2.0018771e-06
3.365212e-10
2.0014987e-06
3.7838193e-10
2.0010661e-06
4.3263136e-10
2.0005508e-06
5.1525825e-10
1.9999318e-06
6.1900497e-10
1.9990702e-06
8.6163948e-10
1.9979966e-06
1.0736371e-09
1.994932e-06
3.0646039e-09
1.9924425e-06
2.4894381e-09
1.02266e-06
9.6978251e-07
3.9156083e-08
9.8350393e-07
2.5373698e-08
1.3782385e-08
2.5064204e-08
3.0949353e-10
2.4832887e-08
2.3131695e-10
2.4260264e-08
5.7262322e-10
2.3636352e-08
6.2391219e-10
2.3074861e-08
5.614908e-10
2.2589669e-08
4.851921e-10
2.2166205e-08
4.2346376e-10
2.1790975e-08
3.7523033e-10
2.1454591e-08
3.3638388e-10
2.1147674e-08
3.0691706e-10
2.0863386e-08
2.8428751e-10
2.0599232e-08
2.6415405e-10
2.0353288e-08
2.4594401e-10
2.0124058e-08
2.2923023e-10
1.9909723e-08
2.1433491e-10
1.9708397e-08
2.0132661e-10
1.9518651e-08
1.8974563e-10
1.933915e-08
1.7950104e-10
1.9168731e-08
1.7041847e-10
1.9006532e-08
1.6219916e-10
1.8851851e-08
1.5468143e-10
1.8704077e-08
1.4777404e-10
1.8562516e-08
1.4156076e-10
1.8426722e-08
1.3579371e-10
1.8296273e-08
1.3044971e-10
1.8170536e-08
1.2573614e-10
1.8049212e-08
1.2132474e-10
1.7932057e-08
1.1715446e-10
1.7818608e-08
1.1344907e-10
1.7708616e-08
1.0999189e-10
1.7601949e-08
1.0666777e-10
1.7498251e-08
1.0369715e-10
1.739724e-08
1.0101087e-10
1.7298864e-08
9.837607e-11
1.7202961e-08
9.5903229e-11
1.7109227e-08
9.3734048e-11
1.7017523e-08
9.1704095e-11
1.6927705e-08
8.9818369e-11
1.683953e-08
8.8175167e-11
1.6752906e-08
8.6623108e-11
1.6667847e-08
8.5059377e-11
1.6584347e-08
8.3500075e-11
1.6502295e-08
8.205239e-11
1.6421523e-08
8.0771729e-11
1.6341952e-08
7.9570401e-11
1.6263549e-08
7.8403234e-11
1.618623e-08
7.731912e-11
1.6109886e-08
7.6344332e-11
1.6034442e-08
7.544421e-11
1.5959843e-08
7.459856e-11
1.5886046e-08
7.3796714e-11
1.5812987e-08
7.305942e-11
1.5740588e-08
7.2398685e-11
1.5668807e-08
7.1780684e-11
1.5597596e-08
7.1211488e-11
1.5526892e-08
7.0704458e-11
1.5456653e-08
7.0238239e-11
1.5386844e-08
6.980887e-11
1.5317393e-08
6.9451469e-11
1.5248251e-08
6.9141957e-11
1.5179398e-08
6.8852793e-11
1.5110794e-08
6.8603905e-11
1.5042388e-08
6.840668e-11
1.4974122e-08
6.8265468e-11
1.490596e-08
6.8162442e-11
1.4837886e-08
6.8074108e-11
1.4769857e-08
6.8028663e-11
1.4701788e-08
6.8069168e-11
1.4633626e-08
6.8162042e-11
1.456537e-08
6.8255915e-11
1.4496984e-08
6.8385315e-11
1.4428347e-08
6.8637958e-11
1.4359384e-08
6.8962943e-11
1.4290125e-08
6.9259044e-11
1.4220544e-08
6.9580386e-11
1.4150539e-08
7.0005662e-11
1.4080027e-08
7.0511803e-11
1.4008997e-08
7.1029297e-11
1.3937401e-08
7.1596692e-11
1.3865102e-08
7.2298306e-11
1.3792024e-08
7.3078118e-11
1.3718145e-08
7.3879633e-11
1.3643365e-08
7.4779257e-11
1.3567553e-08
7.5812807e-11
1.349065e-08
7.6902597e-11
1.3412583e-08
7.8067233e-11
1.3333138e-08
7.9444835e-11
1.3255591e-08
7.7546777e-11
1.3181752e-08
7.383877e-11
1.3111151e-08
7.0601502e-11
1.3043532e-08
6.7618578e-11
1.2978855e-08
6.4677619e-11
1.2916908e-08
6.1946742e-11
1.285744e-08
5.9467507e-11
1.2800261e-08
5.7179361e-11
1.2745252e-08
5.5008948e-11
1.2692288e-08
5.2964189e-11
1.2641198e-08
5.1089878e-11
1.2591825e-08
4.937256e-11
1.2544077e-08
4.7748345e-11
1.2497883e-08
4.6193724e-11
1.2453148e-08
4.4735789e-11
1.2409727e-08
4.3420879e-11
1.2367516e-08
4.2210751e-11
1.2326297e-08
4.1218894e-11
1.2286196e-08
4.0101519e-11
1.2246145e-08
4.0050829e-11
1.2207737e-08
3.8407704e-11
1.2160668e-08
4.7069359e-11
2.9542274e-11
2.0345092e-06
3.7540668e-11
2.0344486e-06
1.2022791e-10
2.0343516e-06
1.9252347e-10
2.0342311e-06
2.3934173e-10
2.034091e-06
2.7799683e-10
2.0339332e-06
3.1331896e-10
2.0337588e-06
3.460783e-10
2.0335687e-06
3.7732866e-10
2.0333629e-06
4.085367e-10
2.0331408e-06
4.4105348e-10
2.0329009e-06
4.7610605e-10
2.0326414e-06
5.150926e-10
2.0323594e-06
5.5981951e-10
2.0320506e-06
6.1299677e-10
2.031709e-06
6.7812083e-10
2.0313249e-06
7.6246454e-10
2.0308858e-06
8.7177021e-10
2.0303628e-06
1.0382514e-09
2.0297345e-06
1.2472907e-09
2.02886e-06
1.7361434e-09
2.0277703e-06
2.1633625e-09
2.0246606e-06
6.1743116e-09
2.02213e-06
5.0200028e-09
1.0890667e-06
1.9028458e-06
1.1729662e-07
1.955274e-06
7.7641155e-08
5.3437846e-08
7.6694803e-08
1.2558455e-09
7.5984843e-08
9.4127749e-10
7.4230894e-08
2.3265719e-09
7.2321549e-08
2.5332577e-09
7.0604146e-08
2.2788937e-09
6.9119819e-08
1.9695186e-09
6.7824114e-08
1.7191694e-09
6.6676001e-08
1.5233425e-09
6.5646783e-08
1.3656018e-09
6.4707718e-08
1.2459829e-09
6.3837887e-08
1.1541182e-09
6.3029656e-08
1.0723851e-09
6.2277147e-08
9.9845268e-10
6.1575775e-08
9.3060275e-10
6.0919974e-08
8.7013543e-10
6.0303974e-08
8.1732717e-10
5.9723404e-08
7.7031508e-10
5.9174182e-08
7.2872305e-10
5.8652745e-08
6.9185515e-10
5.8156463e-08
6.5848194e-10
5.7683179e-08
6.2796558e-10
5.7231023e-08
5.9992921e-10
5.679789e-08
5.7469437e-10
5.6382395e-08
5.5128828e-10
5.5983246e-08
5.2959905e-10
5.559853e-08
5.1045189e-10
5.5227306e-08
4.9254855e-10
5.4868836e-08
4.7562458e-10
5.4521712e-08
4.6057296e-10
5.4185166e-08
4.4653839e-10
5.3858783e-08
4.3305014e-10
5.3541492e-08
4.209884e-10
5.3232428e-08
4.1007515e-10
5.293142e-08
3.9938431e-10
5.2637972e-08
3.8935128e-10
5.2351167e-08
3.8053891e-10
5.2070578e-08
3.7229263e-10
5.1795753e-08
3.6464335e-10
5.1525951e-08
3.5797724e-10
5.1260904e-08
3.5167011e-10
5.1000646e-08
3.4531781e-10
5.0745154e-08
3.3899215e-10
5.0494086e-08
3.3311969e-10
5.0246942e-08
3.2791622e-10
5.0003476e-08
3.2303579e-10
4.976358e-08
3.182993e-10
4.9526997e-08
3.1390231e-10
4.9293398e-08
3.0994394e-10
4.9062555e-08
3.0628649e-10
4.8834302e-08
3.0285151e-10
4.8608499e-08
2.9960028e-10
4.8384948e-08
2.9660996e-10
4.8163423e-08
2.939234e-10
4.7943791e-08
2.9141271e-10
4.7725899e-08
2.8910351e-10
4.7509556e-08
2.8704798e-10
4.729464e-08
2.8515441e-10
4.7081039e-08
2.8340919e-10
4.6868534e-08
2.8195674e-10
4.6656973e-08
2.8070307e-10
4.6446294e-08
2.7953145e-10
4.623638e-08
2.7851806e-10
4.6027071e-08
2.7771615e-10
4.5818192e-08
2.7714387e-10
4.5609627e-08
2.7672763e-10
4.5401333e-08
2.7636857e-10
4.5193179e-08
2.7618247e-10
4.4984902e-08
2.7634624e-10
4.4776338e-08
2.767254e-10
4.4567487e-08
2.7710758e-10
4.4358241e-08
2.7763099e-10
4.4148223e-08
2.7865565e-10
4.393721e-08
2.7997666e-10
4.3725289e-08
2.8118001e-10
4.3512386e-08
2.8248317e-10
4.3298183e-08
2.8420872e-10
4.308243e-08
2.8626486e-10
4.2865092e-08
2.883668e-10
4.264602e-08
2.906692e-10
4.2424801e-08
2.935167e-10
4.2201196e-08
2.9668394e-10
4.1975137e-08
2.9993866e-10
4.1746326e-08
3.0358957e-10
4.1514353e-08
3.0778574e-10
4.1279045e-08
3.1221097e-10
4.1040173e-08
3.1693877e-10
4.0797087e-08
3.225312e-10
4.0559807e-08
3.1482638e-10
4.0333874e-08
2.9977246e-10
4.0117847e-08
2.866287e-10
3.9910946e-08
2.7451901e-10
3.9713044e-08
2.6257989e-10
3.9523498e-08
2.5149253e-10
3.9341539e-08
2.4142676e-10
3.916658e-08
2.3213779e-10
3.8998263e-08
2.2332678e-10
3.8836202e-08
2.1502495e-10
3.8679877e-08
2.0741513e-10
3.8528806e-08
2.0044302e-10
3.8382705e-08
1.9384947e-10
3.8241361e-08
1.8753801e-10
3.8104478e-08
1.8161824e-10
3.797162e-08
1.7627937e-10
3.7842465e-08
1.7136544e-10
3.7716345e-08
1.6733854e-10
3.7593649e-08
1.6279746e-10
3.7471105e-08
1.6259476e-10
3.7353662e-08
1.5585073e-10
3.7209362e-08
1.9136944e-10
1.1951787e-10
2.0947016e-06
5.7008951e-11
2.0946393e-06
1.8257985e-10
2.0945394e-06
2.9237645e-10
2.0944153e-06
3.6349025e-10
2.094271e-06
4.222105e-10
2.0941085e-06
4.758686e-10
2.0939289e-06
5.2563195e-10
2.0937332e-06
5.7310027e-10
2.0935212e-06
6.2050106e-10
2.0932924e-06
6.698865e-10
2.0930454e-06
7.2312055e-10
2.0927781e-06
7.8232695e-10
2.0924877e-06
8.5024932e-10
2.0921697e-06
9.3100343e-10
2.0918179e-06
1.0298993e-09
2.0914224e-06
1.1579816e-09
2.0909702e-06
1.3239711e-09
2.0904317e-06
1.5767862e-09
2.0897847e-06
1.8942318e-09
2.0888843e-06
2.6365847e-09
2.0877622e-06
3.2853932e-09
2.0845606e-06
9.3759246e-09
2.0819549e-06
7.6257357e-09
1.1726072e-06
2.8121935e-06
1.9985396e-07
2.9280273e-06
1.3455955e-07
1.1873225e-07
1.3291638e-07
2.8990238e-09
1.3168244e-07
2.1752169e-09
1.2864049e-07
5.3685143e-09
1.25331e-07
5.8427552e-09
1.2235565e-07
5.2542391e-09
1.1978379e-07
4.5413763e-09
1.1753843e-07
3.9645307e-09
1.1554883e-07
3.5129476e-09
1.137653e-07
3.1491289e-09
1.1213799e-07
2.8732911e-09
1.1063065e-07
2.6614577e-09
1.0923006e-07
2.4729805e-09
1.0792603e-07
2.3024816e-09
1.0671061e-07
2.1460205e-09
1.0557416e-07
2.0065858e-09
1.0450668e-07
1.8848109e-09
1.0350059e-07
1.7764032e-09
1.0254882e-07
1.6804882e-09
1.016452e-07
1.5954746e-09
1.0078518e-07
1.5185072e-09
9.9965003e-08
1.4481403e-09
9.9181438e-08
1.3834943e-09
9.8430846e-08
1.3252863e-09
9.7710814e-08
1.2713198e-09
9.7019102e-08
1.2213116e-09
9.6352413e-08
1.1771409e-09
9.5709099e-08
1.1358626e-09
9.5087879e-08
1.0968443e-09
9.448633e-08
1.0621214e-09
9.3903112e-08
1.0297571e-09
9.3337499e-08
9.9866322e-10
9.2787642e-08
9.7084478e-10
9.2252051e-08
9.4566631e-10
9.1730414e-08
9.2102129e-10
9.1221871e-08
8.9789416e-10
9.0724848e-08
8.7756252e-10
9.0238603e-08
8.5853755e-10
8.9762338e-08
8.4090778e-10
8.9294772e-08
8.255431e-10
8.8835454e-08
8.1098862e-10
8.8384439e-08
7.9633296e-10
8.7941678e-08
7.8175328e-10
8.7506579e-08
7.6821861e-10
8.7078282e-08
7.5621235e-10
8.6656366e-08
7.4495178e-10
8.6240633e-08
7.3403235e-10
8.5830636e-08
7.2389946e-10
8.542581e-08
7.1476983e-10
8.5025767e-08
7.0632975e-10
8.4630213e-08
6.9840562e-10
8.4238899e-08
6.9091473e-10
8.3851485e-08
6.8402343e-10
8.3467587e-08
6.7782161e-10
8.3086971e-08
6.720284e-10
8.2709369e-08
6.6670606e-10
8.2334446e-08
6.6197054e-10
8.1961998e-08
6.576027e-10
8.1591833e-08
6.5357426e-10
8.1223567e-08
6.5022258e-10
8.0856934e-08
6.4733628e-10
8.0491827e-08
6.4463813e-10
8.0128048e-08
6.4229663e-10
7.976532e-08
6.40445e-10
7.9403336e-08
6.3912711e-10
7.9041893e-08
6.3817057e-10
7.868092e-08
6.3734195e-10
7.8320192e-08
6.3691002e-10
7.7959252e-08
6.3728675e-10
7.7597813e-08
6.3816463e-10
7.7235873e-08
6.3904777e-10
7.6873252e-08
6.4025175e-10
7.6509294e-08
6.4261309e-10
7.6143609e-08
6.4566219e-10
7.5776349e-08
6.4843935e-10
7.540739e-08
6.5144236e-10
7.5036179e-08
6.554201e-10
7.466228e-08
6.6016397e-10
7.4285634e-08
6.6501298e-10
7.3905982e-08
6.7032088e-10
7.3522612e-08
6.7688614e-10
7.3135104e-08
6.841924e-10
7.2743343e-08
6.9169939e-10
7.2346816e-08
7.001168e-10
7.1944808e-08
7.0979388e-10
7.1537018e-08
7.2000046e-10
7.1123054e-08
7.3090284e-10
7.0701786e-08
7.4379927e-10
7.029058e-08
7.2603247e-10
6.9899037e-08
6.9131602e-10
6.9524662e-08
6.6100316e-10
6.9166104e-08
6.3307727e-10
6.8823139e-08
6.0554514e-10
6.8494656e-08
5.7997544e-10
6.8179321e-08
5.5676158e-10
6.7876118e-08
5.353408e-10
6.7584423e-08
5.1502218e-10
6.7303571e-08
4.9587634e-10
6.703266e-08
4.7832625e-10
6.6770856e-08
4.6224748e-10
6.6517662e-08
4.4704261e-10
6.6272713e-08
4.3248752e-10
6.6035497e-08
4.1883444e-10
6.5805255e-08
4.0652103e-10
6.5581433e-08
3.9518745e-10
6.5362873e-08
3.858991e-10
6.5150248e-08
3.7542226e-10
6.4937894e-08
3.7494828e-10
6.473443e-08
3.5931479e-10
6.4484171e-08
4.4162886e-10
2.7516318e-10
2.1861099e-06
7.7326508e-11
2.1860448e-06
2.47654e-10
2.1859406e-06
3.9659486e-10
2.185811e-06
4.9307657e-10
2.1856605e-06
5.7275223e-10
2.1854908e-06
6.4556062e-10
2.1853033e-06
7.1308196e-10
2.185099e-06
7.7748516e-10
2.1848777e-06
8.4179189e-10
2.1846388e-06
9.0878647e-10
2.1843809e-06
9.8099797e-10
2.1841019e-06
1.0613078e-09
2.1837987e-06
1.1534379e-09
2.1834668e-06
1.2629716e-09
2.1830995e-06
1.3971117e-09
2.1826867e-06
1.5708399e-09
2.1822147e-06
1.7959851e-09
2.1816526e-06
2.1388999e-09
2.1809773e-06
2.5694811e-09
2.1800375e-06
3.5763908e-09
2.1788664e-06
4.4564639e-09
2.1755253e-06
1.2717092e-08
2.1728053e-06
1.0345708e-08
1.2766202e-06
3.7083785e-06
2.9144822e-07
3.9131993e-06
1.9952898e-07
2.1065148e-07
1.9708822e-07
5.3397847e-09
1.9524991e-07
4.0135278e-09
1.907363e-07
9.8821222e-09
1.858286e-07
1.075046e-08
1.8141869e-07
9.664152e-09
1.776064e-07
8.3536578e-09
1.7427759e-07
7.2933485e-09
1.7132788e-07
6.4626516e-09
1.6868375e-07
5.7932631e-09
1.662712e-07
5.2858404e-09
1.6403648e-07
4.8961713e-09
1.6196002e-07
4.5494486e-09
1.6002671e-07
4.2357854e-09
1.5822477e-07
3.9479613e-09
1.5653989e-07
3.6914638e-09
1.5495725e-07
3.4674502e-09
1.5346563e-07
3.2680263e-09
1.5205454e-07
3.0915772e-09
1.5071483e-07
2.9351897e-09
1.4943975e-07
2.7935881e-09
1.4822374e-07
2.6641467e-09
1.47062e-07
2.5452306e-09
1.4594916e-07
2.4381273e-09
1.4488162e-07
2.3388612e-09
1.4385606e-07
2.2468755e-09
1.4286761e-07
2.1655934e-09
1.419138e-07
2.0896666e-09
1.4099275e-07
2.0179006e-09
1.4010086e-07
1.9540031e-09
1.3923616e-07
1.8944633e-09
1.3839754e-07
1.8372783e-09
1.3758229e-07
1.7860961e-09
1.367882e-07
1.739758e-09
1.3601479e-07
1.6944327e-09
1.3526078e-07
1.6519022e-09
1.3452386e-07
1.6144832e-09
1.3380293e-07
1.5794697e-09
1.3309678e-07
1.5470528e-09
1.3240353e-07
1.5187995e-09
1.3172251e-07
1.4920084e-09
1.310538e-07
1.4650352e-09
1.3039733e-07
1.4382261e-09
1.2975221e-07
1.413339e-09
1.2911718e-07
1.3912411e-09
1.2849162e-07
1.370515e-09
1.2787522e-07
1.3504324e-09
1.2726732e-07
1.3318024e-09
1.2666708e-07
1.3150051e-09
1.2607394e-07
1.2994681e-09
1.2548746e-07
1.284886e-09
1.2490726e-07
1.2711163e-09
1.2433284e-07
1.2584459e-09
1.2376363e-07
1.2470267e-09
1.231993e-07
1.236363e-09
1.2263943e-07
1.2265767e-09
1.2208353e-07
1.2178726e-09
1.2153129e-07
1.2098358e-09
1.2098245e-07
1.2024181e-09
1.2043642e-07
1.1962489e-09
1.1989281e-07
1.190947e-09
1.1935146e-07
1.1859894e-09
1.1881208e-07
1.181675e-09
1.1827426e-07
1.1782644e-09
1.1773755e-07
1.1758434e-09
1.1720163e-07
1.1740894e-09
1.166664e-07
1.1725644e-09
1.1613155e-07
1.1717653e-09
1.1559638e-07
1.1724573e-09
1.1506046e-07
1.1740784e-09
1.1452381e-07
1.1757064e-09
1.1398614e-07
1.1779168e-09
1.134465e-07
1.1822586e-09
1.1290428e-07
1.187873e-09
1.1235974e-07
1.192986e-09
1.1181267e-07
1.1985076e-09
1.1126227e-07
1.2058234e-09
1.1070788e-07
1.2145548e-09
1.1014941e-07
1.223479e-09
1.0958649e-07
1.2332418e-09
1.0901806e-07
1.2453185e-09
1.0844349e-07
1.2587642e-09
1.0786261e-07
1.2725776e-09
1.0727466e-07
1.288061e-09
1.0667859e-07
1.3058651e-09
1.0607395e-07
1.3246456e-09
1.0546015e-07
1.3447032e-09
1.0483552e-07
1.3684295e-09
1.0422581e-07
1.3357451e-09
1.0364525e-07
1.2718745e-09
1.0309015e-07
1.2161031e-09
1.025585e-07
1.1647267e-09
1.0204997e-07
1.1140753e-09
1.0156291e-07
1.0670315e-09
1.0109535e-07
1.0243218e-09
1.0064578e-07
9.8491354e-10
1.0021327e-07
9.47533e-10
9.9796836e-08
9.1230768e-10
9.9395145e-08
8.8001791e-10
9.9006956e-08
8.5043627e-10
9.8631534e-08
8.2246384e-10
9.8268336e-08
7.9568556e-10
9.7916606e-08
7.7056471e-10
9.7575219e-08
7.4790824e-10
9.7243351e-08
7.2705496e-10
9.6919289e-08
7.0996157e-10
9.6604028e-08
6.9068311e-10
9.6289191e-08
6.8978539e-10
9.5987564e-08
6.6094222e-10
9.561638e-08
8.1281249e-10
5.0578082e-10
2.3100962e-06
9.8796063e-11
2.3100274e-06
3.1642036e-10
2.3099173e-06
5.0673336e-10
2.3097803e-06
6.300359e-10
2.3096212e-06
7.3187258e-10
2.3094419e-06
8.2493399e-10
2.3092437e-06
9.1123449e-10
2.3090276e-06
9.9354385e-10
2.3087937e-06
1.0757231e-09
2.3085412e-06
1.1613307e-09
2.3082686e-06
1.253599e-09
2.3079737e-06
1.3562105e-09
2.3076532e-06
1.4739214e-09
2.3073023e-06
1.6138661e-09
2.3069141e-06
1.7852481e-09
2.3064778e-06
2.0072092e-09
2.3059789e-06
2.2948633e-09
2.3053848e-06
2.7329854e-09
2.3046712e-06
3.2831173e-09
2.303678e-06
4.5695792e-09
2.3024404e-06
5.6940448e-09
2.29891e-06
1.6247524e-08
2.2960349e-06
1.3220751e-08
1.4047147e-06
4.5996988e-06
3.9697517e-07
4.9209388e-06
2.7641634e-07
3.3121031e-07
2.7301867e-07
8.7374625e-09
2.7045042e-07
6.5817772e-09
2.641948e-07
1.6137737e-08
2.5739817e-07
1.7547089e-08
2.5129416e-07
1.5768165e-08
2.4601671e-07
1.3631107e-08
2.4140772e-07
1.1902336e-08
2.373235e-07
1.0546877e-08
2.3366238e-07
9.454375e-09
2.3032187e-07
8.6263576e-09
2.2722752e-07
7.9905168e-09
2.2435225e-07
7.4247163e-09
2.2167519e-07
6.9128452e-09
2.1918e-07
6.4431573e-09
2.1684686e-07
6.0245981e-09
2.1465527e-07
5.6590425e-09
2.1258969e-07
5.3336093e-09
2.1063561e-07
5.0456598e-09
2.0878034e-07
4.7904553e-09
2.0701457e-07
4.5593576e-09
2.0533059e-07
4.3481303e-09
2.0372174e-07
4.154078e-09
2.0218061e-07
3.9792596e-09
2.0070219e-07
3.8172805e-09
1.9928188e-07
3.6671802e-09
1.9791298e-07
3.5344963e-09
1.9659205e-07
3.410601e-09
1.9531645e-07
3.2935018e-09
1.9408126e-07
3.1891933e-09
1.928837e-07
3.0920234e-09
1.9172225e-07
2.9987247e-09
1.9059316e-07
2.9151862e-09
1.8949338e-07
2.8395347e-09
1.8842223e-07
2.7655842e-09
1.8737793e-07
2.6961987e-09
1.8635731e-07
2.6351065e-09
1.8535884e-07
2.5779424e-09
1.8438083e-07
2.5250628e-09
1.8342065e-07
2.4789732e-09
1.8247744e-07
2.4352252e-09
1.8155129e-07
2.3911861e-09
1.8064206e-07
2.3474534e-09
1.7974854e-07
2.3068568e-09
1.7886901e-07
2.2707769e-09
1.7800259e-07
2.2369349e-09
1.7714885e-07
2.2041688e-09
1.7630687e-07
2.1737823e-09
1.7547551e-07
2.1463667e-09
1.7465398e-07
2.1209941e-09
1.7384168e-07
2.0971898e-09
1.7303806e-07
2.0747353e-09
1.7224244e-07
2.0540691e-09
1.7145404e-07
2.0354181e-09
1.706724e-07
2.0180051e-09
1.6989694e-07
2.0020425e-09
1.6912696e-07
1.9878503e-09
1.6836206e-07
1.9747328e-09
1.6760186e-07
1.9626168e-09
1.6684557e-07
1.9525446e-09
1.6609261e-07
1.9439057e-09
1.6534277e-07
1.9358251e-09
1.6459567e-07
1.9287747e-09
1.6385074e-07
1.9232027e-09
1.6310732e-07
1.9192585e-09
1.62365e-07
1.9164062e-09
1.6162365e-07
1.9139181e-09
1.6088281e-07
1.9126081e-09
1.6014153e-07
1.9137376e-09
1.5939921e-07
1.9163946e-09
1.5865586e-07
1.9190587e-09
1.5791111e-07
1.9226609e-09
1.5716363e-07
1.9297454e-09
1.5641258e-07
1.9389185e-09
1.556583e-07
1.9472716e-09
1.5490052e-07
1.9562808e-09
1.5413813e-07
1.9682199e-09
1.533702e-07
1.9824794e-09
1.5259663e-07
1.9970526e-09
1.5181688e-07
2.0129857e-09
1.5102951e-07
2.0326967e-09
1.5023362e-07
2.0546513e-09
1.4942899e-07
2.0772036e-09
1.4861458e-07
2.1024743e-09
1.4778891e-07
2.1315379e-09
1.4695135e-07
2.1621987e-09
1.4610112e-07
2.1949395e-09
1.4523588e-07
2.2336691e-09
1.443913e-07
2.1803247e-09
1.435871e-07
2.076071e-09
1.4281817e-07
1.9850338e-09
1.4208172e-07
1.9011754e-09
1.413773e-07
1.8185018e-09
1.4070262e-07
1.741712e-09
1.4005494e-07
1.6719962e-09
1.3943218e-07
1.6076734e-09
1.3883305e-07
1.5466603e-09
1.382562e-07
1.4891612e-09
1.3769977e-07
1.436453e-09
1.3716203e-07
1.3881674e-09
1.3664199e-07
1.3425106e-09
1.3613887e-07
1.2988008e-09
1.3565164e-07
1.2577932e-09
1.3517875e-07
1.2208072e-09
1.3471903e-07
1.1867661e-09
1.3427014e-07
1.1588554e-09
1.3383344e-07
1.127386e-09
1.3339736e-07
1.125866e-09
1.3297959e-07
1.0787052e-09
1.3246533e-07
1.3270713e-09
8.2513354e-10
2.4685082e-06
1.217375e-10
2.4684347e-06
3.89904e-10
2.468317e-06
6.2443531e-10
2.4681707e-06
7.7641464e-10
2.4680006e-06
9.0195232e-10
2.4678088e-06
1.0166753e-09
2.467597e-06
1.1230595e-09
2.467366e-06
1.2245158e-09
2.467116e-06
1.3258025e-09
2.466846e-06
1.4313056e-09
2.4665546e-06
1.5450098e-09
2.4662393e-06
1.6714538e-09
2.4658968e-06
1.8164999e-09
2.4655217e-06
1.9889401e-09
2.4651068e-06
2.2001161e-09
2.4646404e-06
2.4736154e-09
2.4641072e-06
2.8280626e-09
2.4634723e-06
3.3679178e-09
2.4627096e-06
4.0457965e-09
2.4616482e-06
5.6309669e-09
2.4603257e-06
7.016604e-09
2.4565535e-06
2.0019718e-08
2.4534801e-06
1.629409e-08
1.560906e-06
5.492273e-06
5.218302e-07
5.9600146e-06
3.6973243e-07
4.8330808e-07
3.6512142e-07
1.3348476e-08
3.6163499e-07
1.0068202e-08
3.5326993e-07
2.4502797e-08
3.4419159e-07
2.6625431e-08
3.3604258e-07
2.391717e-08
3.2899578e-07
2.0677912e-08
3.2284014e-07
1.8057971e-08
3.1738494e-07
1.6002079e-08
3.1249472e-07
1.4344593e-08
3.080325e-07
1.3088579e-08
3.0389891e-07
1.2124113e-08
3.000578e-07
1.1265819e-08
2.9648135e-07
1.0489303e-08
2.9314772e-07
9.7767874e-09
2.9003047e-07
9.1418403e-09
2.8710223e-07
8.5872869e-09
2.8434225e-07
8.0935851e-09
2.8173118e-07
7.6567368e-09
2.7925206e-07
7.2695665e-09
2.7689249e-07
6.9189365e-09
2.7464213e-07
6.5984874e-09
2.7249212e-07
6.3040889e-09
2.7043257e-07
6.0388088e-09
2.6845677e-07
5.7930772e-09
2.6655859e-07
5.5653632e-09
2.6472909e-07
5.3639995e-09
2.6296365e-07
5.1760393e-09
2.6125875e-07
4.998399e-09
2.5960785e-07
4.8400911e-09
2.5800722e-07
4.6926521e-09
2.5645482e-07
4.5511297e-09
2.5494564e-07
4.4243614e-09
2.5347565e-07
4.3095329e-09
2.5204387e-07
4.1973558e-09
2.5064796e-07
4.0921123e-09
2.4928369e-07
3.9993786e-09
2.4794902e-07
3.9126082e-09
2.4664168e-07
3.8324101e-09
2.4535814e-07
3.7625069e-09
2.4409728e-07
3.6960889e-09
2.4285923e-07
3.6292377e-09
2.4164377e-07
3.562911e-09
2.4044928e-07
3.5013417e-09
2.3927349e-07
3.4465729e-09
2.3811523e-07
3.3951974e-09
2.369739e-07
3.3454946e-09
2.3584827e-07
3.2994161e-09
2.3473682e-07
3.2578151e-09
2.3363852e-07
3.2192923e-09
2.3255254e-07
3.1831653e-09
2.3147816e-07
3.1491232e-09
2.3041444e-07
3.1177855e-09
2.2936039e-07
3.0894653e-09
2.2831537e-07
3.0630304e-09
2.2727858e-07
3.0388261e-09
2.2624912e-07
3.0173143e-09
2.2522644e-07
2.9974118e-09
2.2421004e-07
2.9790145e-09
2.2319886e-07
2.9637294e-09
2.2219212e-07
2.9506463e-09
2.2118954e-07
2.9384052e-09
2.2019061e-07
2.9276976e-09
2.1919458e-07
2.9192381e-09
2.1820057e-07
2.9132696e-09
2.1720801e-07
2.9089631e-09
2.1621673e-07
2.9051943e-09
2.1522614e-07
2.9032032e-09
2.1423495e-07
2.9049243e-09
2.1324237e-07
2.9089807e-09
2.1224838e-07
2.9130411e-09
2.1125254e-07
2.9185065e-09
2.1025302e-07
2.9292629e-09
2.0924873e-07
2.9432076e-09
2.082401e-07
2.9559047e-09
2.072268e-07
2.9695814e-09
2.0620731e-07
2.9877076e-09
2.0518042e-07
3.0093711e-09
2.0414596e-07
3.0315093e-09
2.0310325e-07
3.0556984e-09
2.0205032e-07
3.085624e-09
2.00986e-07
3.1189691e-09
1.9990999e-07
3.1532181e-09
1.9882088e-07
3.1915823e-09
1.9771671e-07
3.2357115e-09
1.9659664e-07
3.2822711e-09
1.9545959e-07
3.3319815e-09
1.9430248e-07
3.3907839e-09
1.9317298e-07
3.3098213e-09
1.9209748e-07
3.1515693e-09
1.9106915e-07
3.0133731e-09
1.9008424e-07
2.8860812e-09
1.8914215e-07
2.7605897e-09
1.8823984e-07
2.6440222e-09
1.8737365e-07
2.5381924e-09
1.8654076e-07
2.440555e-09
1.8573948e-07
2.347941e-09
1.8496799e-07
2.2606553e-09
1.842238e-07
2.180641e-09
1.8350462e-07
2.1073434e-09
1.828091e-07
2.0380393e-09
1.8213621e-07
1.9716874e-09
1.8148457e-07
1.9094324e-09
1.808521e-07
1.8532804e-09
1.8023726e-07
1.8016018e-09
1.796369e-07
1.7592169e-09
1.7905284e-07
1.7114471e-09
1.7846966e-07
1.7090437e-09
1.7791099e-07
1.6373724e-09
1.7722313e-07
2.014937e-09
1.2521894e-09
2.6637066e-06
1.4649259e-10
2.6636273e-06
4.6920042e-10
2.6635003e-06
7.5145744e-10
2.6633423e-06
9.3440124e-10
2.6631587e-06
1.0855384e-09
2.6629517e-06
1.2236597e-09
2.6627231e-06
1.3517358e-09
2.6624737e-06
1.4738688e-09
2.6622037e-06
1.595785e-09
2.6619123e-06
1.7227645e-09
2.6615977e-06
1.8596039e-09
2.6612574e-06
2.0117672e-09
2.6608876e-06
2.1863102e-09
2.6604827e-06
2.3938143e-09
2.6600349e-06
2.6479289e-09
2.6595314e-06
2.9770392e-09
2.658956e-06
3.4035584e-09
2.6582707e-06
4.0531872e-09
2.6574476e-06
4.8689126e-09
2.6563021e-06
6.7763913e-09
2.6548749e-06
8.4438842e-09
2.6508049e-06
2.4089727e-08
2.6474869e-06
1.9612065e-08
1.7497272e-06
6.3900326e-06
6.7209511e-07
7.0376467e-06
4.8476754e-07
6.7063566e-07
4.7849287e-07
1.9623143e-08
4.7380526e-07
1.4755816e-08
4.6286046e-07
3.5447592e-08
4.5100363e-07
3.8482259e-08
4.4036535e-07
3.455546e-08
4.3116317e-07
2.9880088e-08
4.2312212e-07
2.6099018e-08
4.1599489e-07
2.3129312e-08
4.096051e-07
2.0734385e-08
4.0377385e-07
1.8919824e-08
3.9837146e-07
1.7526509e-08
3.933508e-07
1.6286474e-08
3.8867557e-07
1.5164529e-08
3.8431734e-07
1.4135026e-08
3.8024159e-07
1.3217583e-08
3.7641261e-07
1.2416265e-08
3.7280336e-07
1.1702837e-08
3.6938856e-07
1.1071537e-08
3.6614611e-07
1.0512023e-08
3.6305978e-07
1.0005258e-08
3.6011612e-07
9.5421518e-09
3.5730353e-07
9.1166755e-09
3.5460915e-07
8.7331916e-09
3.5202417e-07
8.378053e-09
3.4954059e-07
8.0489439e-09
3.4714678e-07
7.7578157e-09
3.4483666e-07
7.4861549e-09
3.4260564e-07
7.2294201e-09
3.4044521e-07
7.0005232e-09
3.3835047e-07
6.7873888e-09
3.3631873e-07
6.5828669e-09
3.343435e-07
6.3995927e-09
3.324195e-07
6.2335393e-09
3.3054543e-07
6.0714188e-09
3.2871821e-07
5.9193312e-09
3.2693237e-07
5.785221e-09
3.2518525e-07
5.6597357e-09
3.234738e-07
5.5438548e-09
3.2179346e-07
5.4428444e-09
3.2014278e-07
5.3467734e-09
3.1852193e-07
5.2500891e-09
3.1693059e-07
5.1542507e-09
3.1536664e-07
5.0652881e-09
3.1382713e-07
4.9860805e-09
3.1231056e-07
4.9117742e-09
3.1081611e-07
4.839946e-09
3.0934214e-07
4.7733778e-09
3.0788672e-07
4.7132392e-09
3.0644849e-07
4.6575177e-09
3.0502637e-07
4.6052853e-09
3.0361938e-07
4.5561217e-09
3.0222631e-07
4.5108544e-09
3.0084588e-07
4.4698914e-09
2.9947725e-07
4.4316637e-09
2.9811937e-07
4.3967063e-09
2.9677103e-07
4.3656515e-09
2.9543155e-07
4.3368917e-09
2.9410028e-07
4.3102866e-09
2.9277581e-07
4.2881995e-09
2.9145712e-07
4.269337e-09
2.9014384e-07
4.2516839e-09
2.8883533e-07
4.2362051e-09
2.8753058e-07
4.2239838e-09
2.8622846e-07
4.2153972e-09
2.849282e-07
4.2092218e-09
2.8362959e-07
4.203802e-09
2.8233186e-07
4.2009381e-09
2.8103332e-07
4.2034597e-09
2.7973292e-07
4.2093852e-09
2.7843065e-07
4.2153064e-09
2.7712592e-07
4.2232325e-09
2.7581637e-07
4.2388222e-09
2.7450052e-07
4.2590522e-09
2.7317895e-07
4.2774732e-09
2.7185125e-07
4.2972872e-09
2.7051541e-07
4.3235435e-09
2.6916984e-07
4.354941e-09
2.6781433e-07
4.3870238e-09
2.6644797e-07
4.4220548e-09
2.650682e-07
4.4653903e-09
2.6367348e-07
4.5136955e-09
2.6226339e-07
4.563304e-09
2.6083612e-07
4.6188521e-09
2.5938908e-07
4.6827545e-09
2.5792117e-07
4.7501839e-09
2.5643098e-07
4.8221641e-09
2.5491446e-07
4.9073046e-09
2.534341e-07
4.7901795e-09
2.5202449e-07
4.5611828e-09
2.5067667e-07
4.3611966e-09
2.4938575e-07
4.1769992e-09
2.4815093e-07
3.9954098e-09
2.4696823e-07
3.8267223e-09
2.4583285e-07
3.6735715e-09
2.4474112e-07
3.5322846e-09
2.436908e-07
3.3982655e-09
2.426795e-07
3.2719473e-09
2.4170399e-07
3.1561495e-09
2.4076126e-07
3.0500766e-09
2.3984951e-07
2.9497871e-09
2.3896744e-07
2.8537641e-09
2.3811321e-07
2.7636622e-09
2.372841e-07
2.6823896e-09
2.364781e-07
2.6075959e-09
2.3569109e-07
2.5462321e-09
2.3492543e-07
2.4771047e-09
2.34161e-07
2.4734756e-09
2.334287e-07
2.3696704e-09
2.3252688e-07
2.9167594e-09
1.8120195e-09
2.8986003e-06
1.7343014e-10
2.898514e-06
5.5549182e-10
2.8983758e-06
8.8969609e-10
2.8982038e-06
1.1063591e-09
2.898004e-06
1.2853828e-09
2.8977787e-06
1.4489946e-09
2.8975297e-06
1.6007001e-09
2.8972582e-06
1.7453521e-09
2.8969643e-06
1.8897309e-09
2.8966469e-06
2.0400897e-09
2.8963044e-06
2.20211e-09
2.8959339e-06
2.382263e-09
2.8955314e-06
2.5889043e-09
2.8950906e-06
2.8345629e-09
2.8946031e-06
3.1354001e-09
2.8940551e-06
3.525022e-09
2.8934287e-06
4.0299652e-09
2.8926829e-06
4.7990425e-09
2.891787e-06
5.764768e-09
2.8905405e-06
8.0229476e-09
2.8889872e-06
9.9972e-09
2.8845589e-06
2.8517973e-08
2.8809461e-06
2.3224905e-08
1.9763197e-06
7.294659e-06
8.546702e-07
8.1592962e-06
6.2760992e-07
8.9769593e-07
6.1880427e-07
2.8428794e-08
6.1248234e-07
2.1077747e-08
5.9839192e-07
4.9538009e-08
5.8317331e-07
5.3700868e-08
5.695232e-07
4.8205574e-08
5.5771001e-07
4.169328e-08
5.4738255e-07
3.6426477e-08
5.3822602e-07
3.2285841e-08
5.3001488e-07
2.8945522e-08
5.2251975e-07
2.6414951e-08
5.1557437e-07
2.4471889e-08
5.0911834e-07
2.2742506e-08
5.0310517e-07
2.1177704e-08
4.9749851e-07
1.9741688e-08
4.9225421e-07
1.8461883e-08
4.873265e-07
1.7343975e-08
4.8268075e-07
1.6348581e-08
4.7828458e-07
1.5467713e-08
4.7410963e-07
1.4686975e-08
4.7013514e-07
1.3979744e-08
4.6634382e-07
1.3333472e-08
4.6272083e-07
1.2739667e-08
4.5924969e-07
1.2204332e-08
4.5591907e-07
1.170867e-08
4.5271871e-07
1.1249308e-08
4.4963371e-07
1.0842817e-08
4.4665624e-07
1.046362e-08
4.437804e-07
1.0105262e-08
4.409953e-07
9.7856186e-09
4.3829464e-07
9.4880473e-09
4.3567494e-07
9.2025764e-09
4.3312787e-07
8.9466583e-09
4.3064668e-07
8.7147318e-09
4.2822967e-07
8.48843e-09
4.2587285e-07
8.2761473e-09
4.2356925e-07
8.0888198e-09
4.2131545e-07
7.9135417e-09
4.1910749e-07
7.7518143e-09
4.169395e-07
7.610831e-09
4.1480966e-07
7.4766094e-09
4.127182e-07
7.3415525e-09
4.1066465e-07
7.2077991e-09
4.0864629e-07
7.0836444e-09
4.0665937e-07
6.9730078e-09
4.0470193e-07
6.8692098e-09
4.0277292e-07
6.7689573e-09
4.0087022e-07
6.6760797e-09
3.9899134e-07
6.5921217e-09
3.9713457e-07
6.5142865e-09
3.9529849e-07
6.4413619e-09
3.9348181e-07
6.3728011e-09
3.91683e-07
6.3096633e-09
3.8990044e-07
6.2524563e-09
3.8813302e-07
6.199084e-09
3.8637938e-07
6.1503462e-09
3.8463795e-07
6.1070747e-09
3.8290788e-07
6.0669646e-09
3.8118833e-07
6.0298334e-09
3.7947749e-07
5.9990435e-09
3.7777401e-07
5.9728184e-09
3.7607742e-07
5.9482709e-09
3.7438693e-07
5.9267007e-09
3.7270122e-07
5.9096936e-09
3.710188e-07
5.8978147e-09
3.693387e-07
5.8893174e-09
3.6766066e-07
5.8818449e-09
3.6598367e-07
5.8779242e-09
3.6430558e-07
5.8815589e-09
3.6262497e-07
5.8899913e-09
3.6094187e-07
5.8984033e-09
3.5925552e-07
5.9095802e-09
3.5756286e-07
5.9314916e-09
3.5586197e-07
5.9599348e-09
3.541536e-07
5.9858416e-09
3.5243723e-07
6.0136635e-09
3.5071027e-07
6.0505059e-09
3.4897063e-07
6.0945763e-09
3.4721805e-07
6.1396044e-09
3.4545137e-07
6.188731e-09
3.4366728e-07
6.2494856e-09
3.4186375e-07
6.3172272e-09