/*--------------------------------*- C++ -*----------------------------------*\
  =========                 |
  \\      /  F ield         | OpenFOAM: The Open Source CFD Toolbox
   \\    /   O peration     | Website:  https://openfoam.org
    \\  /    A nd           | Version:  12
     \\/     M anipulation  |
\*---------------------------------------------------------------------------*/
FoamFile
{
    format      ascii;
    class       volVectorField;
    location    "1200";
    object      U;
}
// * * * * * * * * * * * * * * * * * * * * * * * * * * * * * * * * * * * * * //

dimensions      [0 1 -1 0 0 0 0];

internalField   nonuniform List<vector> 
7480
(
(0.99717945 8.1009027e-05 1.4989706e-17)
(0.99545432 0.00018548275 0)
(0.99352816 0.00025519409 1.7966921e-19)
(0.99145698 0.00029809771 0)
(0.98927026 0.00032999459 0)
(0.98699012 0.00035201165 0)
(0.98462117 0.00036778875 0)
(0.98215785 0.00038027015 0)
(0.97959594 0.00039202638 0)
(0.97690696 0.00040065139 0)
(0.97413443 0.00042251547 0)
(0.97096952 0.00040427466 0)
(0.96835496 0.0006337528 0)
(0.96221062 0.00086042828 1.1769421e-16)
(0.95210849 0.0014577743 -2.6590749e-18)
(0.9396017 0.0019806497 0)
(0.92554209 0.0023183346 0)
(0.9105834 0.0025039089 0)
(0.89509444 0.0025823749 0)
(0.87950568 0.0025508066 0)
(0.86401332 0.0024702482 0)
(0.84878108 0.0023369872 0)
(0.83385028 0.0021313152 0)
(0.81901915 0.0018956698 0)
(0.80437149 0.0016871589 0)
(0.79007057 0.0015032221 0)
(0.77630189 0.0013244791 0)
(0.76341455 0.0011579363 0)
(0.75123133 0.0010172081 0)
(0.73978917 0.00089410723 0)
(0.72915534 0.00078231443 0)
(0.71938072 0.0006797708 0)
(0.71048677 0.00058587419 0)
(0.70246326 0.00050140398 0)
(0.69527237 0.00042706521 0)
(0.68885835 0.00036287123 0)
(0.68314851 0.00030819204 0)
(0.67807208 0.00026163516 0)
(0.6735714 0.00022150538 0)
(0.66959315 0.00018648341 0)
(0.66607408 0.00015658145 0)
(0.66294411 0.00013213003 0)
(0.66013668 0.00011270834 0)
(0.65759276 9.7059885e-05 0)
(0.65527343 8.5002106e-05 0)
(0.6531116 7.6605977e-05 0)
(0.65106831 7.1163776e-05 0)
(0.64910409 6.8014067e-05 0)
(0.64718474 6.6436721e-05 0)
(0.64528805 6.6509286e-05 0)
(0.64338228 6.8237617e-05 0)
(0.64143405 7.0840051e-05 0)
(0.63941979 7.3817964e-05 0)
(0.6373317 7.6664167e-05 0)
(0.63517437 7.9035654e-05 0)
(0.63295872 8.0661915e-05 0)
(0.6306975 8.143851e-05 0)
(0.62840641 8.1216222e-05 0)
(0.62610451 8.0099638e-05 0)
(0.62380314 7.8522731e-05 0)
(0.62150644 7.6758604e-05 0)
(0.61921623 7.4900106e-05 0)
(0.61693657 7.2857996e-05 0)
(0.61467432 7.0629617e-05 0)
(0.61243514 6.8313029e-05 0)
(0.61022183 6.5939742e-05 0)
(0.60803801 6.3464353e-05 0)
(0.60588871 6.0926941e-05 0)
(0.60377474 5.8504786e-05 0)
(0.60169125 5.6287993e-05 0)
(0.59963355 5.4224158e-05 0)
(0.59760033 5.225936e-05 0)
(0.5955915 5.0379202e-05 0)
(0.59360677 4.8546994e-05 0)
(0.59164755 4.6710195e-05 0)
(0.58971658 4.4886277e-05 0)
(0.58781353 4.3156658e-05 0)
(0.58593528 4.1535835e-05 0)
(0.58407894 4.0017313e-05 0)
(0.58224348 3.8561518e-05 0)
(0.58042898 3.7149713e-05 0)
(0.57863633 3.5755985e-05 0)
(0.5768674 3.4375452e-05 0)
(0.57512164 3.3078279e-05 0)
(0.573396 3.1858386e-05 0)
(0.5716891 3.0693917e-05 0)
(0.57000006 2.9587879e-05 0)
(0.56832933 2.8490402e-05 0)
(0.56667875 2.7414592e-05 0)
(0.56504715 2.6409865e-05 0)
(0.56343206 2.5454529e-05 0)
(0.56183248 2.4543939e-05 0)
(0.56024812 2.3677677e-05 0)
(0.55867769 2.2831694e-05 0)
(0.5571243 2.2057865e-05 0)
(0.55557029 2.1373686e-05 0)
(0.55405315 2.0236535e-05 0)
(0.55242735 3.333624e-05 3.8778674e-20)
(0.55106538 2.2114573e-05 -2.194098e-19)
(0.54855511 3.3067853e-05 -5.1017182e-18)
(0.99846853 0.00034770409 0)
(0.99849085 0.00051626371 0)
(0.99854973 0.00061644101 -2.3241713e-19)
(0.99854881 0.00061384984 -2.9376023e-18)
(0.99852175 0.00062362231 0)
(0.99847422 0.00062985202 0)
(0.99841 0.00063287477 0)
(0.99832526 0.00063562063 0)
(0.99821507 0.00064097423 0)
(0.9980653 0.00064673842 0)
(0.99787346 0.00067123223 0)
(0.99755947 0.00067976905 0)
(0.9971577 0.00088026713 0)
(0.99657955 0.0014057329 0)
(0.99574438 0.0020269094 0)
(0.99422801 0.0024020466 0)
(0.99176667 0.0025371437 0)
(0.98836007 0.0025551974 0)
(0.98411911 0.0025103846 0)
(0.97916994 0.0024353534 0)
(0.97353964 0.0023488134 0)
(0.96723008 0.0022654844 0)
(0.960311 0.0022160023 0)
(0.95302525 0.0022010251 0)
(0.94537649 0.0021782193 0)
(0.93740465 0.0021234907 0)
(0.92912305 0.00203945 0)
(0.92047819 0.0019260015 0)
(0.91165391 0.0017975981 0)
(0.90273193 0.0016631335 0)
(0.89378339 0.0015234491 0)
(0.88486479 0.0013841505 0)
(0.87603976 0.0012466954 0)
(0.86737468 0.0011131609 0)
(0.85893384 0.00098677719 0)
(0.85077539 0.00087020263 0)
(0.84294972 0.00076425965 0)
(0.83552405 0.00067122805 0)
(0.82846934 0.00059225534 0)
(0.82175411 0.00052422439 0)
(0.81538106 0.00046482532 0)
(0.80935266 0.00041378329 0)
(0.80366634 0.00037060346 0)
(0.79830068 0.00033388638 0)
(0.7932235 0.00030230374 0)
(0.78841883 0.00027600281 0)
(0.78385979 0.00025498428 0)
(0.77951837 0.00023805849 0)
(0.7753756 0.00022374247 0)
(0.77142331 0.00021347173 0)
(0.76757042 0.00020721504 0)
(0.76380263 0.00020261651 0)
(0.76012053 0.00019854958 0)
(0.75652702 0.00019437924 0)
(0.75302318 0.00019000486 0)
(0.74960492 0.00018531928 0)
(0.74626543 0.00018027451 0)
(0.74299901 0.000174882 0)
(0.73978699 0.00016926102 0)
(0.73661947 0.00016358155 0)
(0.73349493 0.00015792652 0)
(0.7304151 0.00015229697 0)
(0.72738235 0.00014651181 0)
(0.72440001 0.00014062069 0)
(0.72147031 0.00013481089 0)
(0.71859313 0.00012907896 0)
(0.71576986 0.00012335105 0)
(0.71299933 0.00011776419 0)
(0.71027588 0.00011257903 0)
(0.70759401 0.00010781657 0)
(0.70495203 0.00010331116 0)
(0.70235127 9.8985648e-05 0)
(0.69979269 9.4851181e-05 0)
(0.69727569 9.0856474e-05 0)
(0.69480093 8.6926356e-05 0)
(0.69236854 8.3121841e-05 0)
(0.68997499 7.9572513e-05 0)
(0.68761639 7.6252479e-05 0)
(0.6852912 7.3124386e-05 0)
(0.68299959 7.0122076e-05 0)
(0.68074175 6.7228059e-05 0)
(0.67851811 6.4408556e-05 0)
(0.67632849 6.1669562e-05 0)
(0.67417056 5.9121637e-05 0)
(0.67204124 5.6722555e-05 0)
(0.66993994 5.4431138e-05 0)
(0.66786634 5.2256148e-05 0)
(0.66582069 5.012007e-05 0)
(0.66380325 4.8059994e-05 0)
(0.66181175 4.6146818e-05 0)
(0.65984375 4.4326973e-05 0)
(0.65789873 4.2593618e-05 0)
(0.65597672 4.0950653e-05 0)
(0.65407554 3.9359057e-05 0)
(0.65219741 3.7926616e-05 0)
(0.65032411 3.6556841e-05 0)
(0.64849414 3.5719052e-05 0)
(0.64655952 3.6773913e-05 0)
(0.64491132 3.4834952e-05 0)
(0.64194831 3.742254e-05 0)
(0.99850257 0.00034301234 0)
(0.99850923 0.00043731698 0)
(0.99854077 0.00045981849 0)
(0.99855509 0.00046016396 0)
(0.99854025 0.00046305625 0)
(0.99850538 0.00046795225 0)
(0.99845646 0.00047438497 0)
(0.99839036 0.00048345283 0)
(0.99830186 0.0004971022 0)
(0.99817969 0.00051502173 0)
(0.99801535 0.00055115755 0)
(0.99776281 0.0006076704 0)
(0.99741829 0.00084916327 0)
(0.99717921 0.0014285006 0)
(0.99721834 0.0020441312 0)
(0.99745915 0.0024942815 0)
(0.99771837 0.0027848467 0)
(0.99786225 0.0029912405 0)
(0.99783907 0.003135431 0)
(0.99761527 0.0032217011 0)
(0.99715949 0.0032658038 0)
(0.99645118 0.0032847589 0)
(0.99547232 0.0032787437 0)
(0.99420713 0.0032531876 0)
(0.99263338 0.0031963326 0)
(0.99063878 0.0031118695 0)
(0.98813686 0.0030001454 0)
(0.98498293 0.0028762551 0)
(0.98119528 0.0027555344 0)
(0.9767505 0.0026322207 0)
(0.97160728 0.0024939437 0)
(0.96582327 0.0023389473 0)
(0.95943934 0.0021793932 0)
(0.95251454 0.0020194861 0)
(0.9451311 0.0018610723 0)
(0.93739011 0.0017055708 0)
(0.92940856 0.0015538999 0)
(0.92130575 0.0014082977 0)
(0.9132109 0.0012719165 0)
(0.90523119 0.0011464535 0)
(0.89745171 0.0010320638 0)
(0.88994023 0.00092900821 0)
(0.88274178 0.00084081005 0)
(0.87579436 0.00076717621 0)
(0.86909633 0.00070383561 0)
(0.86267183 0.00064821489 0)
(0.85653402 0.00059906713 0)
(0.85069806 0.00055615542 0)
(0.84514797 0.00051867208 0)
(0.83985498 0.00048643736 0)
(0.83479978 0.00046064724 0)
(0.829964 0.00044031156 0)
(0.82532464 0.00042259124 0)
(0.82086928 0.00040550235 0)
(0.8165864 0.00038878255 0)
(0.81245749 0.00037266255 0)
(0.80846479 0.00035731227 0)
(0.80458848 0.000343246 0)
(0.8007814 0.00032998993 0)
(0.7970489 0.00031682355 0)
(0.79339666 0.00030377899 0)
(0.78982429 0.00029102161 0)
(0.78632794 0.00027837349 0)
(0.78290605 0.00026588272 0)
(0.77955813 0.0002537922 0)
(0.77628205 0.00024204052 0)
(0.77307737 0.00023062819 0)
(0.76993526 0.00021986566 0)
(0.7668464 0.00020995118 0)
(0.76380827 0.00020072101 0)
(0.76082209 0.00019188699 0)
(0.75788974 0.00018336707 0)
(0.75501156 0.00017521849 0)
(0.75218623 0.00016737905 0)
(0.74941393 0.00015976086 0)
(0.74669227 0.00015249971 0)
(0.74401536 0.00014576632 0)
(0.74137979 0.00013945651 0)
(0.73878536 0.00013347197 0)
(0.73623281 0.00012771635 0)
(0.73372204 0.00012217621 0)
(0.73125324 0.0001168195 0)
(0.72882455 0.00011168015 0)
(0.72643243 0.00010690856 0)
(0.72407414 0.00010240981 0)
(0.7217497 9.8104916e-05 0)
(0.71945902 9.4003827e-05 0)
(0.71720229 9.0008329e-05 0)
(0.71497859 8.6188374e-05 0)
(0.71278493 8.2639767e-05 0)
(0.71061906 7.9267342e-05 0)
(0.70848077 7.6047348e-05 0)
(0.70637027 7.2994208e-05 0)
(0.70428479 7.0053204e-05 0)
(0.70222595 6.7422837e-05 0)
(0.7001753 6.4842438e-05 0)
(0.69817197 6.3330538e-05 0)
(0.69606598 6.097683e-05 0)
(0.6942633 6.44049e-05 0)
(0.69104723 5.9079587e-05 -4.1179681e-20)
(0.99853107 0.00033360639 0)
(0.99852831 0.00042234811 0)
(0.99855209 0.00047740351 0)
(0.99856392 0.00050945498 0)
(0.99854877 0.00053423999 0)
(0.99851363 0.00055697867 0)
(0.99846439 0.00057785319 0)
(0.99839836 0.00059827609 0)
(0.99831023 0.00062166263 0)
(0.9981904 0.0006495155 0)
(0.99802908 0.00069927888 0)
(0.99779664 0.00077051973 0)
(0.99749647 0.0010221027 0)
(0.99728431 0.0015264494 0)
(0.99731757 0.0020616218 0)
(0.9975672 0.0024751172 0)
(0.99789627 0.0027438335 0)
(0.99821174 0.0029168722 0)
(0.99849474 0.0030178176 0)
(0.99874542 0.0030587285 0)
(0.99895978 0.003064001 0)
(0.99913591 0.0030496115 0)
(0.99927438 0.0030266597 0)
(0.99937449 0.0029967762 0)
(0.99943427 0.0029628818 0)
(0.99944193 0.0029248338 0)
(0.99937769 0.0028824638 0)
(0.99921313 0.0028388149 0)
(0.99891606 0.0027931278 0)
(0.99844507 0.0027403258 0)
(0.99775688 0.0026805635 0)
(0.99673444 0.0026164796 0)
(0.99528874 0.0025471351 0)
(0.99333104 0.0024716142 0)
(0.99077168 0.0023897616 0)
(0.98752567 0.0023017661 0)
(0.98351953 0.0022060078 0)
(0.97869285 0.0020975074 0)
(0.97310709 0.0019796674 0)
(0.96683387 0.0018582129 0)
(0.95995523 0.0017334995 0)
(0.95259631 0.0016061491 0)
(0.94492393 0.0014783809 0)
(0.93712613 0.0013575929 0)
(0.92934741 0.001248288 0)
(0.92170279 0.0011478967 0)
(0.91428106 0.0010553132 0)
(0.90716804 0.00097499223 0)
(0.90027394 0.00090720708 0)
(0.89359881 0.0008490127 0)
(0.88721381 0.00079879463 0)
(0.881137 0.00075351236 0)
(0.8753734 0.00071202623 0)
(0.86989693 0.00067393839 0)
(0.8646659 0.00063874831 0)
(0.85964502 0.00060623934 0)
(0.85481615 0.00057632597 0)
(0.85016143 0.00054876582 0)
(0.84567423 0.00052329772 0)
(0.84134275 0.00049942724 0)
(0.83714925 0.00047668817 0)
(0.8330765 0.00045513774 0)
(0.82910925 0.00043426218 0)
(0.82524368 0.00041381695 0)
(0.82147857 0.00039413007 0)
(0.81780896 0.00037517793 0)
(0.81422994 0.00035726275 0)
(0.81071831 0.00034072267 0)
(0.8072678 0.00032529829 0)
(0.80388509 0.00031060576 0)
(0.80057229 0.00029642904 0)
(0.7973287 0.00028278684 0)
(0.79415267 0.0002697821 0)
(0.79104191 0.00025730875 0)
(0.78799609 0.00024532455 0)
(0.78500818 0.0002340783 0)
(0.78207029 0.00022365556 0)
(0.77918171 0.00021380078 0)
(0.77634382 0.00020438935 0)
(0.77355718 0.00019533598 0)
(0.7708209 0.00018663902 0)
(0.76813486 0.00017828954 0)
(0.76549454 0.00017035955 0)
(0.7628955 0.00016299244 0)
(0.76033599 0.00015601952 0)
(0.7578168 0.00014933012 0)
(0.75533779 0.0001429441 0)
(0.75289902 0.00013676092 0)
(0.75049788 0.00013088784 0)
(0.74813079 0.00012542623 0)
(0.74579598 0.00012022955 0)
(0.7434936 0.0001152553 0)
(0.74122397 0.00011053989 0)
(0.73898357 0.00010601784 0)
(0.73677327 0.00010198669 0)
(0.73457476 9.7965563e-05 0)
(0.73242755 9.5657745e-05 0)
(0.73018038 9.1422291e-05 0)
(0.72825254 9.9935633e-05 0)
(0.72483 8.5155635e-05 3.308977e-20)
(0.99855874 0.00033731028 0)
(0.99854956 0.00042464824 0)
(0.99856419 0.0004824955 0)
(0.99856969 0.00051102493 0)
(0.99855194 0.00052790117 0)
(0.99851577 0.00054309553 0)
(0.99846602 0.00055788332 0)
(0.99840024 0.00057391348 0)
(0.9983132 0.0005950579 0)
(0.99819634 0.00062483106 0)
(0.99804081 0.00067823388 0)
(0.99782751 0.00077043895 0)
(0.99756459 0.0010088913 0)
(0.99737686 0.0014592641 0)
(0.99740135 0.0019620138 0)
(0.99762451 0.0023703411 0)
(0.99793118 0.0026436248 0)
(0.99823412 0.0028222132 0)
(0.99851465 0.0029360204 0)
(0.99877469 0.0029992506 0)
(0.99901024 0.0030308262 0)
(0.99922038 0.0030450298 0)
(0.99940875 0.0030459759 0)
(0.99958159 0.0030400504 0)
(0.99974349 0.0030244623 0)
(0.99989427 0.0029969211 0)
(1.0000314 0.0029572071 0)
(1.0001523 0.0029076596 0)
(1.0002566 0.0028518566 0)
(1.0003448 0.0027921199 0)
(1.0004149 0.0027294201 0)
(1.0004596 0.0026648587 0)
(1.0004694 0.002600199 0)
(1.0004303 0.0025371545 0)
(1.0003206 0.0024770782 0)
(1.0001066 0.0024204748 0)
(0.99974109 0.0023670149 0)
(0.9991466 0.0023168521 0)
(0.99818866 0.0022684 0)
(0.99674464 0.0022177188 0)
(0.99468666 0.0021620944 0)
(0.99187879 0.0021001576 0)
(0.98819226 0.0020335134 0)
(0.98361085 0.001956323 0)
(0.97820668 0.0018635986 0)
(0.97206242 0.0017620868 0)
(0.96529046 0.0016540046 0)
(0.95805918 0.0015413391 0)
(0.95058945 0.0014321537 0)
(0.94304927 0.0013328579 0)
(0.9355961 0.0012414167 0)
(0.92834344 0.0011559596 0)
(0.92140613 0.0010801362 0)
(0.91470872 0.0010151936 0)
(0.90822207 0.00095691078 0)
(0.9019703 0.0009023983 0)
(0.89597624 0.00085121008 0)
(0.89026306 0.00080413317 0)
(0.88484214 0.00076146381 0)
(0.87966329 0.00072191285 0)
(0.87468414 0.0006852327 0)
(0.86988069 0.00065132714 0)
(0.8652393 0.00061894708 0)
(0.86075874 0.00058760828 0)
(0.85642677 0.00055788687 0)
(0.85222671 0.00052995827 0)
(0.84814126 0.000503723 0)
(0.84416459 0.00047933793 0)
(0.84029473 0.00045672202 0)
(0.8365268 0.00043536312 0)
(0.83285267 0.00041491487 0)
(0.82926582 0.00039534258 0)
(0.82576289 0.00037671852 0)
(0.82234105 0.00035887377 0)
(0.8189986 0.00034194199 0)
(0.81571982 0.00032624365 0)
(0.8124979 0.0003115735 0)
(0.8093385 0.00029752427 0)
(0.80624319 0.00028405599 0)
(0.80321075 0.000271137 0)
(0.80023899 0.0002587616 0)
(0.79732731 0.00024698867 0)
(0.79446663 0.00023592256 0)
(0.79165289 0.00022560077 0)
(0.78888648 0.00021577444 0)
(0.78616873 0.00020633206 0)
(0.78349894 0.00019731466 0)
(0.78087682 0.00018864265 0)
(0.77829698 0.00018045995 0)
(0.77575581 0.00017283512 0)
(0.77325255 0.00016556492 0)
(0.77078767 0.00015859371 0)
(0.76836141 0.00015199248 0)
(0.76596897 0.00014569073 0)
(0.76361049 0.00014008083 0)
(0.76126808 0.00013442626 0)
(0.75898164 0.00013123438 0)
(0.75659876 0.00012491094 1.7993768e-20)
(0.75455151 0.00013917753 0)
(0.75093328 0.00011309665 0)
(0.99858485 0.0003432447 0)
(0.99857018 0.00042451446 0)
(0.99857619 0.00048056298 0)
(0.99857615 0.0005112704 0)
(0.99855703 0.00053305202 0)
(0.99852106 0.00055527483 0)
(0.99847176 0.00057866187 0)
(0.99840694 0.00060419763 0)
(0.99832164 0.00063565543 0)
(0.99820844 0.00067744759 0)
(0.99805989 0.00074428594 0)
(0.99786431 0.0008547783 0)
(0.99763372 0.0010885514 0)
(0.99746956 0.0015026107 0)
(0.99748892 0.0019750241 0)
(0.99768896 0.0023667553 0)
(0.99797261 0.0026337177 0)
(0.99825929 0.0028102968 0)
(0.99852703 0.0029260145 0)
(0.99877624 0.0029923242 0)
(0.99900446 0.0030252021 0)
(0.99921073 0.0030341612 0)
(0.99939809 0.003029552 0)
(0.9995716 0.003014996 0)
(0.99973568 0.0029905632 0)
(0.99989119 0.0029547416 0)
(1.0000356 0.0029084356 0)
(1.0001664 0.0028548105 0)
(1.0002839 0.0027983107 0)
(1.0003903 0.0027406858 0)
(1.0004865 0.0026808451 0)
(1.0005721 0.0026191947 0)
(1.0006467 0.002557703 0)
(1.0007107 0.0024979532 0)
(1.0007655 0.0024410908 0)
(1.0008114 0.0023878847 0)
(1.0008484 0.0023390279 0)
(1.0008742 0.0022945877 0)
(1.0008827 0.0022540316 0)
(1.0008629 0.0022176551 0)
(1.0007962 0.0021856768 0)
(1.0006498 0.0021577921 0)
(1.000366 0.0021328585 0)
(0.99985964 0.0021092142 0)
(0.99895554 0.0020841775 0)
(0.99748883 0.0020540512 0)
(0.99530238 0.0020155603 0)
(0.99221806 0.0019709336 0)
(0.98820156 0.0019168039 0)
(0.9833021 0.0018447962 0)
(0.97760814 0.001759549 0)
(0.97123655 0.0016645292 0)
(0.96436652 0.0015622344 0)
(0.9572325 0.0014613116 0)
(0.95002663 0.0013680794 0)
(0.94290349 0.001280981 0)
(0.93596144 0.0011985416 0)
(0.92930565 0.0011247537 0)
(0.92284558 0.0010604576 0)
(0.91655942 0.0010013924 0)
(0.91048846 0.00094545508 0)
(0.90466547 0.00089265857 0)
(0.89911524 0.00084304875 0)
(0.89379919 0.00079699355 0)
(0.88867516 0.00075413007 0)
(0.88372321 0.00071442927 0)
(0.87893009 0.00067732316 0)
(0.8743149 0.00064264204 0)
(0.86987337 0.00061030101 0)
(0.86558123 0.00058017724 0)
(0.86141525 0.00055179562 0)
(0.85736726 0.00052473913 0)
(0.85343426 0.00049906396 0)
(0.84960988 0.00047467916 0)
(0.8458844 0.00045163902 0)
(0.84225111 0.00043024976 0)
(0.83870634 0.00041033774 0)
(0.8352467 0.00039135573 0)
(0.83186778 0.00037321392 0)
(0.82856517 0.00035588086 0)
(0.8253354 0.00033930683 0)
(0.82217722 0.00032370131 0)
(0.81907424 0.00030912413 0)
(0.81602659 0.00029539926 0)
(0.81303757 0.0002822448 0)
(0.81010774 0.0002696056 0)
(0.8072351 0.00025755014 0)
(0.80441872 0.0002460607 0)
(0.80164901 0.00023529497 0)
(0.79892392 0.00022521263 0)
(0.7962441 0.00021556894 0)
(0.79360997 0.00020631409 0)
(0.79102135 0.00019757283 0)
(0.78847146 0.0001892734 0)
(0.78595989 0.00018188193 0)
(0.78346967 0.00017437969 0)
(0.78104115 0.00017015831 0)
(0.77852011 0.0001612161 0)
(0.77635222 0.00018214188 4.7348856e-20)
(0.77253692 0.00014294654 0)
(0.99860938 0.00035050678 0)
(0.99859035 0.00042574433 0)
(0.99858912 0.00048128763 0)
(0.99858423 0.0005159709 0)
(0.99856362 0.0005420661 0)
(0.99852745 0.00056751129 0)
(0.99847815 0.00059352643 0)
(0.99841394 0.00062146251 0)
(0.9983303 0.00065550329 0)
(0.99822093 0.00070128485 0)
(0.99807986 0.00077308088 0)
(0.99790089 0.00089096033 0)
(0.99769871 0.0011161014 0)
(0.99755609 0.0014939867 0)
(0.99757201 0.0019305878 0)
(0.99775136 0.0023016026 0)
(0.99801388 0.0025622494 0)
(0.9982859 0.0027386389 0)
(0.99854327 0.0028573033 0)
(0.9987846 0.0029288658 0)
(0.9990075 0.0029656562 0)
(0.99921032 0.002981054 0)
(0.99939513 0.0029820267 0)
(0.99956631 0.0029733802 0)
(0.99972771 0.0029552486 0)
(0.99987994 0.0029265187 0)
(1.0000213 0.0028879501 0)
(1.00015 0.0028421423 0)
(1.0002664 0.0027925756 0)
(1.0003725 0.0027402812 0)
(1.0004695 0.0026842782 0)
(1.0005567 0.0026253836 0)
(1.0006338 0.0025657987 0)
(1.0007017 0.0025071371 0)
(1.000761 0.0024505684 0)
(1.0008128 0.0023970238 0)
(1.0008584 0.0023471612 0)
(1.0008986 0.0023008738 0)
(1.0009346 0.0022584019 0)
(1.000967 0.0022202845 0)
(1.0009967 0.0021863985 0)
(1.0010239 0.0021566205 0)
(1.0010482 0.0021307919 0)
(1.0010675 0.0021084153 0)
(1.0010742 0.0020891859 0)
(1.0010523 0.0020727301 0)
(1.0009755 0.0020588252 0)
(1.0007895 0.0020466091 0)
(1.0004192 0.0020338455 0)
(0.99968596 0.0020180972 0)
(0.99839036 0.0019963248 0)
(0.99635482 0.0019652151 0)
(0.99337688 0.0019253691 0)
(0.98941626 0.0018731285 0)
(0.98458217 0.0018034974 0)
(0.97897933 0.0017210998 0)
(0.9727543 0.0016279918 0)
(0.96610602 0.0015289481 0)
(0.95926802 0.0014333187 0)
(0.9524105 0.0013451627 0)
(0.94565584 0.0012632438 0)
(0.93909031 0.0011864607 0)
(0.93278607 0.0011183987 0)
(0.92658307 0.0010572545 0)
(0.92052068 0.00099863389 0)
(0.91465335 0.00094230357 0)
(0.90902842 0.00088906254 0)
(0.90363138 0.00083991551 0)
(0.89843129 0.0007945587 0)
(0.89341112 0.00075281927 0)
(0.88856167 0.00071370027 0)
(0.88388597 0.00067659696 0)
(0.87937393 0.00064173032 0)
(0.87500765 0.00060914219 0)
(0.87076799 0.00057860914 0)
(0.86666259 0.00055011808 0)
(0.86269221 0.00052349108 0)
(0.85884044 0.00049830604 0)
(0.85509354 0.00047445906 0)
(0.85144412 0.00045179047 0)
(0.84788783 0.0004302009 0)
(0.84441939 0.00040986874 0)
(0.84103307 0.00039092113 0)
(0.83772449 0.00037316241 0)
(0.8344903 0.00035617761 0)
(0.83132766 0.00033990154 0)
(0.82823282 0.00032440357 0)
(0.82520392 0.00030978111 0)
(0.82222541 0.00029611743 0)
(0.81930027 0.00028320887 0)
(0.81643011 0.00027082403 0)
(0.81361441 0.00025894432 0)
(0.81085212 0.00024777751 0)
(0.80813357 0.00023724223 0)
(0.80545862 0.00022783046 0)
(0.80281174 0.00021822491 0)
(0.80023355 0.0002127788 0)
(0.79756705 0.00020079967 0)
(0.79527276 0.00022917641 4.4501142e-20)
(0.7912517 0.00017515588 0)
(0.99863257 0.00035911429 0)
(0.99861018 0.00042897886 0)
(0.99860286 0.00048387795 0)
(0.99859346 0.00052135106 0)
(0.99857114 0.00055038905 0)
(0.99853467 0.00057835913 0)
(0.99848559 0.00060747152 0)
(0.99842234 0.00063951873 0)
(0.9983409 0.000678801 0)
(0.99823597 0.00073157769 0)
(0.99810305 0.00081130787 0)
(0.99793995 0.00093798587 0)
(0.99776282 0.0011586814 0)
(0.99763965 0.0015080356 0)
(0.99765355 0.0019139126 0)
(0.99781455 0.0022681262 0)
(0.99805713 0.002525013 0)
(0.99831465 0.0027023967 0)
(0.99856161 0.0028240934 0)
(0.99879514 0.0029004444 0)
(0.99901278 0.002942603 0)
(0.9992123 0.0029621657 0)
(0.99939495 0.0029665213 0)
(0.99956447 0.0029601685 0)
(0.9997242 0.002943503 0)
(0.99987477 0.0029158142 0)
(1.0000146 0.002877882 0)
(1.0001423 0.00283216 0)
(1.0002579 0.0027819064 0)
(1.0003633 0.0027285076 0)
(1.0004594 0.0026716745 0)
(1.0005459 0.0026123948 0)
(1.0006223 0.0025527237 0)
(1.0006893 0.002494219 0)
(1.0007481 0.0024380357 0)
(1.0007999 0.002385073 0)
(1.0008458 0.0023358985 0)
(1.000887 0.0022904961 0)
(1.0009243 0.0022490473 0)
(1.0009587 0.0022118033 0)
(1.0009907 0.0021784681 0)
(1.0010211 0.0021489027 0)
(1.0010503 0.0021229937 0)
(1.0010788 0.0021004741 0)
(1.0011074 0.0020809838 0)
(1.0011361 0.0020640675 0)
(1.0011648 0.0020494161 0)
(1.0011931 0.0020365756 0)
(1.0012192 0.0020253134 0)
(1.0012367 0.0020158203 0)
(1.0012287 0.0020079111 0)
(1.0011661 0.0020009466 0)
(1.0009873 0.0019937818 0)
(1.0005971 0.0019841109 0)
(0.99977588 0.0019684003 0)
(0.99831159 0.0019432838 0)
(0.99601379 0.0019075329 0)
(0.99266773 0.0018585668 0)
(0.98835878 0.0017963498 0)
(0.98324471 0.0017222966 0)
(0.97747424 0.0016374967 0)
(0.97122824 0.0015450471 0)
(0.96472953 0.0014515252 0)
(0.95817016 0.0013641692 0)
(0.9516617 0.0012843256 0)
(0.94527625 0.0012088924 0)
(0.93911277 0.0011406154 0)
(0.9330264 0.0010788325 0)
(0.92703475 0.0010197659 0)
(0.92120784 0.00096289784 0)
(0.91560994 0.00090907524 0)
(0.91022401 0.00085918019 0)
(0.90501675 0.00081278906 0)
(0.89997556 0.00076965319 0)
(0.89509925 0.0007290456 0)
(0.89039823 0.00069084021 0)
(0.8858672 0.00065534019 0)
(0.88148736 0.00062227509 0)
(0.87724567 0.00059119304 0)
(0.87313653 0.00056178233 0)
(0.8691528 0.00053400061 0)
(0.86528112 0.00050799924 0)
(0.86152689 0.00048374429 0)
(0.85788305 0.00046097037 0)
(0.85433774 0.00043932169 0)
(0.85088232 0.00041871887 0)
(0.84751081 0.00039917549 0)
(0.84421884 0.00038072242 0)
(0.84100217 0.00036351878 0)
(0.83785615 0.00034733747 0)
(0.83477725 0.00033184172 0)
(0.83176287 0.00031700167 0)
(0.82881074 0.00030313706 0)
(0.82590725 0.00029010751 0)
(0.82305434 0.00027838633 0)
(0.82023815 0.00026637239 0)
(0.81749905 0.00025947014 0)
(0.81467599 0.00024406285 -7.3680121e-21)
(0.81224604 0.00028064627 0)
(0.80800508 0.00021006671 -1.1979803e-20)
(0.99865462 0.00036872864 0)
(0.99862965 0.00043382551 0)
(0.99861722 0.00048772759 0)
(0.99860375 0.00052729929 0)
(0.99857973 0.00055916958 0)
(0.99854304 0.00059001585 0)
(0.99849434 0.00062253512 0)
(0.99843225 0.00065867105 0)
(0.99835325 0.00070262257 0)
(0.99825299 0.00076094664 0)
(0.99812837 0.0008462922 0)
(0.9979801 0.00097768394 0)
(0.99782493 0.0011915951 0)
(0.99771908 0.0015139477 0)
(0.99773207 0.0018893683 0)
(0.99787684 0.0022250454 0)
(0.99810062 0.0024753594 0)
(0.99834389 0.0026512498 0)
(0.99858055 0.0027739172 0)
(0.99880628 0.0028535525 0)
(0.99901846 0.0028996673 0)
(0.99921445 0.0029226525 0)
(0.99939481 0.0029299452 0)
(0.99956259 0.0029259028 0)
(0.99972072 0.0029113575 0)
(0.99986982 0.0028859978 0)
(1.0000086 0.0028506689 0)
(1.0001355 0.0028077076 0)
(1.0002509 0.0027601433 0)
(1.0003561 0.002709466 0)
(1.0004521 0.0026555767 0)
(1.0005386 0.002599251 0)
(1.0006152 0.0025422834 0)
(1.0006825 0.0024861749 0)
(1.0007417 0.0024320501 0)
(1.0007938 0.0023807741 0)
(1.00084 0.0023329185 0)
(1.0008814 0.0022885598 0)
(1.0009189 0.0022478568 0)
(1.0009531 0.0022110521 0)
(1.0009849 0.0021780062 0)
(1.0010151 0.0021486811 0)
(1.0010443 0.0021230161 0)
(1.0010733 0.0021006719 0)
(1.0011025 0.0020811781 0)
(1.0011325 0.0020640028 0)
(1.0011632 0.0020487512 0)
(1.0011947 0.0020351778 0)
(1.0012268 0.0020232484 0)
(1.0012596 0.0020129207 0)
(1.0012934 0.0020038252 0)
(1.001328 0.0019955107 0)
(1.0013627 0.0019872932 0)
(1.0013952 0.0019787535 0)
(1.0014154 0.0019699881 0)
(1.0014006 0.0019610666 0)
(1.0013052 0.0019514749 0)
(1.0010522 0.0019410533 0)
(1.0004441 0.001926819 0)
(0.99924421 0.0019039449 0)
(0.99723421 0.0018711298 0)
(0.99421807 0.0018236365 0)
(0.99012097 0.0017612545 0)
(0.98520729 0.0016907846 0)
(0.97966052 0.0016107662 0)
(0.97366187 0.0015235392 0)
(0.96742191 0.0014346329 0)
(0.96111546 0.0013507371 0)
(0.95484041 0.0012742333 0)
(0.94865708 0.0012021591 0)
(0.94266037 0.0011364702 0)
(0.93670702 0.0010761375 0)
(0.9308287 0.0010177249 0)
(0.92510187 0.00096117768 0)
(0.91958563 0.00090771684 0)
(0.91425044 0.00085813863 0)
(0.90907765 0.00081201262 0)
(0.90406932 0.00076896907 0)
(0.8992345 0.00072853714 0)
(0.8945702 0.000690529 0)
(0.89006263 0.00065502289 0)
(0.88569492 0.00062180035 0)
(0.88147073 0.00059055957 0)
(0.87738872 0.00056138838 0)
(0.87343488 0.00053397577 0)
(0.86959748 0.00050806466 0)
(0.86586981 0.00048360455 0)
(0.86224299 0.0004605929 0)
(0.85872351 0.00043914823 0)
(0.85529946 0.00041898934 0)
(0.8519611 0.00039978641 0)
(0.84870221 0.00038149094 0)
(0.84551759 0.00036440392 0)
(0.84240089 0.00034836401 0)
(0.83935174 0.00033395114 0)
(0.83635033 0.00031921892 0)
(0.83343569 0.00031064187 0)
(0.83044132 0.00029141204 0)
(0.82786334 0.0003369793 4.2733063e-20)
(0.82338367 0.00024800184 0)
(0.99867572 0.0003791914 0)
(0.99864879 0.00044012014 0)
(0.99863214 0.00049286286 0)
(0.99861508 0.00053411232 0)
(0.99858944 0.00056864717 0)
(0.99855255 0.00060225859 0)
(0.99850436 0.00063788461 0)
(0.99844358 0.00067769429 0)
(0.99836724 0.00072587564 0)
(0.99827189 0.00078915101 0)
(0.99815569 0.00087936845 0)
(0.99802135 0.001014046 0)
(0.99788559 0.0012216209 0)
(0.99779523 0.0015210307 0)
(0.99780818 0.0018692808 0)
(0.99793874 0.0021876052 0)
(0.99814498 0.0024316795 0)
(0.99837436 0.0026067335 0)
(0.99860085 0.0027310924 0)
(0.99881878 0.0028145216 0)
(0.99902532 0.0028650966 0)
(0.99921754 0.0028921842 0)
(0.99939537 0.0029030484 0)
(0.99956124 0.0029019361 0)
(0.99971764 0.0028900077 0)
(0.99986518 0.0028672376 0)
(1.0000027 0.0028344935 0)
(1.0001289 0.0027939632 0)
(1.0002438 0.0027484315 0)
(1.0003488 0.0026994195 0)
(1.0004446 0.002647016 0)
(1.0005311 0.0025919609 0)
(1.0006079 0.0025359839 0)
(1.0006756 0.0024806399 0)
(1.0007353 0.0024270867 0)
(1.0007879 0.0023762084 0)
(1.0008347 0.0023286102 0)
(1.0008767 0.002284444 0)
(1.0009147 0.0022438764 0)
(1.0009494 0.0022071598 0)
(1.0009817 0.0021742158 0)
(1.0010123 0.002144981 0)
(1.0010418 0.0021193533 0)
(1.0010709 0.0020969825 0)
(1.0011002 0.0020774258 0)
(1.0011299 0.0020602145 0)
(1.0011603 0.0020450316 0)
(1.0011913 0.0020316745 0)
(1.0012233 0.0020199952 0)
(1.0012564 0.0020097705 0)
(1.0012911 0.0020005446 0)
(1.0013277 0.0019918193 0)
(1.0013659 0.0019831009 0)
(1.0014048 0.0019741058 0)
(1.0014442 0.001964882 0)
(1.0014837 0.0019553033 0)
(1.0015225 0.0019455616 0)
(1.0015594 0.0019355381 0)
(1.0015887 0.0019250419 0)
(1.0015909 0.0019144374 0)
(1.0015225 0.0019034732 0)
(1.0013143 0.0018917073 0)
(1.0007597 0.0018774833 0)
(0.99960016 0.0018551318 0)
(0.9975993 0.0018226512 0)
(0.99455991 0.0017738252 0)
(0.99043035 0.0017093788 0)
(0.98548571 0.0016388684 0)
(0.97997087 0.0015612668 0)
(0.974084 0.0014781657 0)
(0.96802402 0.0013940047 0)
(0.96192743 0.001315201 0)
(0.95586714 0.0012432124 0)
(0.94989507 0.0011751417 0)
(0.94407026 0.001112675 0)
(0.93824346 0.0010541049 0)
(0.93249131 0.00099677769 0)
(0.92690016 0.00094174206 0)
(0.92148962 0.00089025995 0)
(0.9162389 0.00084215297 0)
(0.91114469 0.00079717358 0)
(0.90621322 0.00075490883 0)
(0.90145146 0.00071510344 0)
(0.8968539 0.00067813484 0)
(0.89240646 0.0006436145 0)
(0.8881055 0.00061106692 0)
(0.88394627 0.00058053559 0)
(0.87991437 0.00055185408 0)
(0.87600933 0.00052500485 0)
(0.87222601 0.00049990421 0)
(0.86855407 0.0004761936 0)
(0.86498357 0.00045375839 0)
(0.86150591 0.00043284968 0)
(0.85812237 0.00041323241 0)
(0.85482963 0.00039558593 0)
(0.85160096 0.00037765657 0)
(0.84847258 0.00036705396 0)
(0.84527194 0.00034335866 0)
(0.84252872 0.00039857904 0)
(0.83778701 0.00028927862 0)
(0.99869605 0.0003903677 0)
(0.99866765 0.00044769262 0)
(0.99864756 0.00049922014 0)
(0.99862739 0.00054177101 0)
(0.99860025 0.00057869304 0)
(0.9985632 0.00061489089 0)
(0.99851564 0.00065342975 0)
(0.99845636 0.00069672163 0)
(0.9983829 0.00074891583 0)
(0.99829265 0.00081667089 0)
(0.99818481 0.00091093836 0)
(0.9980635 0.0010474322 0)
(0.99794492 0.0012484033 0)
(0.9978683 0.0015272993 0)
(0.99788176 0.0018502949 0)
(0.99799989 0.002151211 0)
(0.9981898 0.0023880654 0)
(0.9984057 0.0025613925 0)
(0.99862213 0.0026865138 0)
(0.99883226 0.0027726525 0)
(0.99903299 0.0028267968 0)
(0.99922124 0.0028573137 0)
(0.99939634 0.0028711597 0)
(0.99956014 0.0028725053 0)
(0.99971473 0.0028627684 0)
(0.99986063 0.0028421882 0)
(0.99999685 0.0028116861 0)
(1.0001222 0.002773338 0)
(1.0002367 0.0027297374 0)
(1.0003413 0.0026824459 0)
(1.0004369 0.0026317558 0)