/*--------------------------------*- C++ -*----------------------------------*\
  =========                 |
  \\      /  F ield         | OpenFOAM: The Open Source CFD Toolbox
   \\    /   O peration     | Website:  https://openfoam.org
    \\  /    A nd           | Version:  12
     \\/     M anipulation  |
\*---------------------------------------------------------------------------*/
FoamFile
{
    format      ascii;
    class       volVectorField;
    location    "1200";
    object      U;
}
// * * * * * * * * * * * * * * * * * * * * * * * * * * * * * * * * * * * * * //

dimensions      [0 1 -1 0 0 0 0];

internalField   nonuniform List<vector> 
13056
(
(1 2.3251236e-10 3.7127231e-24)
(0.99998252 8.451952e-10 0)
(0.99994193 1.5358444e-09 0)
(0.99988803 2.1660411e-09 0)
(0.99982405 2.8531616e-09 0)
(0.99975095 3.6452247e-09 0)
(0.99966943 4.5616361e-09 0)
(0.99958007 5.630674e-09 0)
(0.99948305 6.8954104e-09 0)
(0.99937823 8.4098263e-09 0)
(0.99926511 1.0239967e-08 0)
(0.99914294 1.2471781e-08 0)
(0.99901054 1.5221613e-08 0)
(0.99886624 1.8658622e-08 0)
(0.99870755 2.3016124e-08 0)
(0.99853104 2.8716369e-08 0)
(0.99833068 3.6215003e-08 0)
(0.99810005 4.7227674e-08 0)
(0.99781772 6.158405e-08 0)
(0.99748291 9.2094265e-08 0)
(0.99696163 1.2182383e-07 0)
(0.99640905 3.6428621e-07 0)
(0.99393003 3.0532288e-07 -4.753645e-21)
(0.99389115 0.00012205801 1.2177075e-16)
(0.026184154 0.00012479214 0)
(0.012818501 1.2805935e-06 -5.0079609e-17)
(0.012494946 7.7537279e-09 1.4449429e-20)
(0.012512253 5.5798449e-09 6.3538262e-21)
(0.012261877 1.3920806e-08 0)
(0.011940305 1.5097127e-08 0)
(0.011639725 1.3483571e-08 0)
(0.011380367 1.1526457e-08 0)
(0.01115577 9.9546302e-09 0)
(0.01095797 8.7332471e-09 0)
(0.010781496 7.7495023e-09 0)
(0.01062244 6.9954331e-09 0)
(0.010475334 6.4092631e-09 0)
(0.010338852 5.8889529e-09 0)
(0.010211827 5.4206942e-09 0)
(0.010093513 4.9931713e-09 0)
(0.0099831598 4.6127718e-09 0)
(0.0098797022 4.2797217e-09 0)
(0.0097823242 3.9828262e-09 0)
(0.0096904172 3.7195676e-09 0)
(0.0096032586 3.4847835e-09 0)
(0.0095204088 3.2723984e-09 0)
(0.0094414512 3.0777622e-09 0)
(0.0093661 2.8987981e-09 0)
(0.0092940298 2.737477e-09 0)
(0.0092248801 2.5871955e-09 0)
(0.0091585614 2.4479015e-09 0)
(0.0090947394 2.3237235e-09 0)
(0.009033126 2.2069019e-09 0)
(0.0089737034 2.0967748e-09 0)
(0.0089162476 1.997595e-09 0)
(0.0088605233 1.9043945e-09 0)
(0.0088065164 1.8151959e-09 0)
(0.0087541064 1.7340022e-09 0)
(0.0087030618 1.6593284e-09 0)
(0.008653334 1.5865897e-09 0)
(0.0086049167 1.5179264e-09 0)
(0.0085576536 1.455729e-09 0)
(0.0085114008 1.3968751e-09 0)
(0.0084661643 1.3410642e-09 0)
(0.0084217901 1.2899587e-09 0)
(0.0083781913 1.2414167e-09 0)
(0.0083353671 1.1935761e-09 0)
(0.0082933292 1.1465564e-09 0)
(0.0082520599 1.1019961e-09 0)
(0.0082114644 1.0607473e-09 0)
(0.0081714732 1.021285e-09 0)
(0.0081320764 9.8292306e-10 0)
(0.0080932493 9.4628751e-10 0)
(0.0080549326 9.1178862e-10 0)
(0.0080170779 8.7884556e-10 0)
(0.0079796591 8.4712769e-10 0)
(0.0079426482 8.1637554e-10 0)
(0.0079060284 7.8691601e-10 0)
(0.0078697517 7.5893773e-10 0)
(0.0078337918 7.318411e-10 0)
(0.0077981312 7.0566951e-10 0)
(0.0077627385 6.8053692e-10 0)
(0.0077275826 6.5628382e-10 0)
(0.0076926551 6.3278996e-10 0)
(0.0076579269 6.1032812e-10 0)
(0.0076233555 5.8857527e-10 0)
(0.0075889353 5.6734421e-10 0)
(0.0075546512 5.4685357e-10 0)
(0.0075204794 5.2705159e-10 0)
(0.0074863912 5.0794843e-10 0)
(0.0074523593 4.8938621e-10 0)
(0.0074183728 4.7122441e-10 0)
(0.0073844287 4.5362356e-10 0)
(0.0073504863 4.3681758e-10 0)
(0.0073165006 4.2051957e-10 0)
(0.0072824643 4.0443719e-10 0)
(0.0072483841 3.8879177e-10 0)
(0.0072142174 3.7400356e-10 0)
(0.0071798825 3.5971711e-10 0)
(0.0071453905 3.4541525e-10 0)
(0.0071107593 3.3140455e-10 0)
(0.0070759448 3.1800809e-10 0)
(0.0070408866 3.0505723e-10 0)
(0.0070055648 2.9224734e-10 0)
(0.0069699888 2.7974612e-10 0)
(0.0069340976 2.6783284e-10 0)
(0.0068978177 2.5623227e-10 0)
(0.0068611458 2.4474727e-10 0)
(0.0068240629 2.336295e-10 0)
(0.0067864886 2.2292508e-10 0)
(0.0067483694 2.1237409e-10 0)
(0.0067097037 2.0202614e-10 0)
(0.006670416 1.9219326e-10 0)
(0.0066312651 1.8284936e-10 0)
(0.0065935509 1.7410624e-10 0)
(0.0065575977 1.6647729e-10 0)
(0.0065231135 1.5944155e-10 0)
(0.0064901361 1.5250429e-10 0)
(0.0064585859 1.4606703e-10 0)
(0.0064283331 1.402232e-10 0)
(0.0063992566 1.3482583e-10 0)
(0.0063712865 1.2970623e-10 0)
(0.0063443753 1.2488674e-10 0)
(0.0063184453 1.2046862e-10 0)
(0.006293404 1.1641981e-10 0)
(0.0062691875 1.1258808e-10 0)
(0.0062457665 1.0892209e-10 0)
(0.0062231009 1.0548753e-10 0)
(0.0062011346 1.0238805e-10 0)
(0.0061797807 9.9539556e-11 0)
(0.0061590222 9.7194823e-11 0)
(0.0061386565 9.4593122e-11 0)
(0.0061190164 9.4432295e-11 0)
(0.0060986901 3.4182085e-10 0)
(0.0060807388 1.0932911e-10 1.5017013e-22)
(0.0060515454 2.641113e-10 0)
(1 7.0098842e-10 0)
(0.99998252 2.5481861e-09 0)
(0.99994193 4.6305727e-09 0)
(0.99988802 6.5309089e-09 0)
(0.99982403 8.6029985e-09 0)
(0.99975091 1.099157e-08 0)
(0.99966938 1.3755086e-08 0)
(0.99957999 1.6978775e-08 0)
(0.99948295 2.0792481e-08 0)
(0.99937809 2.5358944e-08 0)
(0.99926495 3.0877275e-08 0)
(0.99914274 3.7606598e-08 0)
(0.99901031 4.589766e-08 0)
(0.99886598 5.6260449e-08 0)
(0.99870725 6.9398356e-08 0)
(0.99853071 8.6584363e-08 0)
(0.99833032 1.0919212e-07 0)
(0.99809966 1.4239376e-07 0)
(0.9978173 1.8567584e-07 0)
(0.99748246 2.7765488e-07 0)
(0.99696115 3.6726689e-07 0)
(0.99640854 1.0981869e-06 0)
(0.99392956 9.2113698e-07 1.7596326e-20)
(0.99389074 0.00036118073 -1.3280893e-20)
(0.076492211 0.00036833931 0)
(0.038647939 7.2444787e-06 0)
(0.037671517 1.608969e-07 2.2460077e-20)
(0.037723641 1.1938299e-07 0)
(0.036968334 2.9286976e-07 -4.5661977e-21)
(0.035997923 3.1614449e-07 0)
(0.035091963 2.8186181e-07 0)
(0.034310285 2.4125292e-07 0)
(0.033633198 2.0850391e-07 0)
(0.033036852 1.8289679e-07 0)
(0.032504826 1.6226998e-07 0)
(0.032025316 1.4648916e-07 0)
(0.031581826 1.3421584e-07 0)
(0.031170365 1.2332335e-07 0)
(0.030787416 1.1351254e-07 0)
(0.030430729 1.0456294e-07 0)
(0.030098039 9.659907e-08 0)
(0.029786138 8.9625069e-08 0)
(0.029492563 8.3410732e-08 0)
(0.029215483 7.7894865e-08 0)
(0.028952717 7.2983029e-08 0)
(0.028702941 6.8530255e-08 0)
(0.028464901 6.4456776e-08 0)
(0.028237729 6.0714222e-08 0)
(0.028020451 5.7326395e-08 0)
(0.02781198 5.4184606e-08 0)
(0.027612038 5.1272217e-08 0)
(0.027419626 4.8662291e-08 0)
(0.027233875 4.6220475e-08 0)
(0.027054724 4.3918546e-08 0)
(0.026881504 4.1834879e-08 0)
(0.026713506 3.9883795e-08 0)
(0.026550684 3.8020055e-08 0)
(0.026392674 3.6318591e-08 0)
(0.026238784 3.4749544e-08 0)
(0.026088864 3.3229926e-08 0)
(0.025942892 3.1795417e-08 0)
(0.025800399 3.0489157e-08 0)
(0.025660956 2.9253633e-08 0)
(0.025524576 2.8088323e-08 0)
(0.025390792 2.7020606e-08 0)
(0.025259347 2.6000522e-08 0)
(0.02513024 2.4996688e-08 0)
(0.025003504 2.4014273e-08 0)
(0.024879081 2.3083388e-08 0)
(0.02475669 2.2217166e-08 0)
(0.024636123 2.1389313e-08 0)
(0.024517349 2.0586684e-08 0)
(0.02440029 1.9821293e-08 0)
(0.024284769 1.9098162e-08 0)
(0.024170642 1.8407031e-08 0)
(0.02405783 1.7741872e-08 0)
(0.023946249 1.7099434e-08 0)
(0.023835843 1.6483601e-08 0)
(0.023726473 1.5895846e-08 0)
(0.023618059 1.5327856e-08 0)
(0.023510548 1.4780212e-08 0)
(0.023403843 1.4254836e-08 0)
(0.023297852 1.3746477e-08 0)
(0.02319255 1.3253831e-08 0)
(0.02308785 1.2782832e-08 0)
(0.022983622 1.2328113e-08 0)
(0.022879848 1.1884154e-08 0)
(0.022776486 1.145399e-08 0)
(0.022673463 1.1039005e-08 0)
(0.022570691 1.0639124e-08 0)
(0.022468089 1.0250869e-08 0)
(0.022365623 9.8703081e-09 0)
(0.022263286 9.501304e-09 0)
(0.022160955 9.149117e-09 0)
(0.022058492 8.8082367e-09 0)
(0.021955876 8.4716071e-09 0)
(0.021853128 8.1434807e-09 0)
(0.02175012 7.8335458e-09 0)
(0.021646605 7.5346268e-09 0)
(0.021542615 7.235292e-09 0)
(0.021438205 6.9415571e-09 0)
(0.021333244 6.6608017e-09 0)
(0.021227548 6.3897577e-09 0)
(0.021121056 6.1215919e-09 0)
(0.021013798 5.8595767e-09 0)
(0.020905591 5.6099121e-09 0)
(0.020796212 5.3671188e-09 0)
(0.020685649 5.1266443e-09 0)
(0.020573849 4.8935849e-09 0)
(0.020460566 4.6694043e-09 0)
(0.020345641 4.4484992e-09 0)
(0.020229068 4.2317028e-09 0)
(0.02011062 4.0256951e-09 0)
(0.019992585 3.8300608e-09 0)
(0.01987888 3.6469209e-09 0)
(0.019770485 3.4870274e-09 0)
(0.01966652 3.3397007e-09 0)
(0.019567096 3.1944492e-09 0)
(0.019471976 3.0595687e-09 0)
(0.019380767 2.9371166e-09 0)
(0.019293105 2.8241061e-09 0)
(0.019208778 2.7169105e-09 0)
(0.019127643 2.6159175e-09 0)
(0.019049468 2.5233436e-09 0)
(0.018973971 2.4385243e-09 0)
(0.018900961 2.3583054e-09 0)
(0.018830349 2.2815226e-09 0)
(0.018762015 2.209512e-09 0)
(0.01869579 2.1445679e-09 0)
(0.018631411 2.0847945e-09 0)
(0.018568828 2.0358145e-09 0)
(0.018507431 1.9805919e-09 0)
(0.018448218 1.9781442e-09 0)
(0.018386953 1.9242342e-09 0)
(0.018332831 2.326484e-09 -2.3385956e-22)
(0.018244816 1.4776986e-09 4.2404532e-23)
(1 1.1798977e-09 0)
(0.99998252 4.2891655e-09 0)
(0.99994193 7.7944837e-09 0)
(0.99988801 1.0993669e-08 0)
(0.99982402 1.4482163e-08 0)
(0.99975088 1.8503505e-08 0)
(0.99966932 2.3156034e-08 0)
(0.9995799 2.8583168e-08 0)
(0.99948283 3.500344e-08 0)
(0.99937794 4.2690765e-08 0)
(0.99926476 5.1980283e-08 0)
(0.99914252 6.3308144e-08 0)
(0.99901005 7.7264721e-08 0)
(0.99886569 9.470841e-08 0)
(0.99870692 1.1682314e-07 0)
(0.99853035 1.4575154e-07 0)
(0.99832993 1.8380569e-07 0)
(0.99809924 2.3969089e-07 0)
(0.99781684 3.1254329e-07 0)
(0.99748197 4.6735567e-07 0)
(0.99696062 6.1822491e-07 0)
(0.996408 1.8482736e-06 0)
(0.99392906 1.5513845e-06 -9.2976458e-21)
(0.99389038 0.00059120713 5.8016554e-54)
(0.12550213 0.00061004033 -8.1652944e-54)
(0.06505704 1.9775245e-05 0)
(0.063411046 4.6734133e-07 -1.1966079e-20)
(0.063497188 3.4729219e-07 0)
(0.062225107 8.5086191e-07 0)
(0.060590502 9.1793918e-07 0)
(0.059065983 8.1803339e-07 0)
(0.057750651 7.0027103e-07 0)
(0.05661107 6.0529647e-07 0)
(0.055607322 5.3095893e-07 0)
(0.054711862 4.7106749e-07 0)
(0.0539048 4.2525809e-07 0)
(0.053158357 3.8963095e-07 0)
(0.05246582 3.5801102e-07 0)
(0.051821272 3.2952893e-07 0)
(0.051220929 3.0354915e-07 0)
(0.050660971 2.804311e-07 0)
(0.050136001 2.6018614e-07 0)
(0.049641876 2.4214673e-07 0)
(0.049175512 2.2613369e-07 0)
(0.04873324 2.1187565e-07 0)
(0.048312832 1.9894781e-07 0)
(0.047912178 1.8712336e-07 0)
(0.047529812 1.7625995e-07 0)
(0.047164101 1.6642227e-07 0)
(0.046813215 1.5730316e-07 0)
(0.046476679 1.4884979e-07 0)
(0.046152819 1.4127028e-07 0)
(0.045840174 1.341829e-07 0)
(0.045538631 1.2750178e-07 0)
(0.045247072 1.2145067e-07 0)
(0.044964309 1.1578663e-07 0)
(0.044690251 1.1037772e-07 0)
(0.044424291 1.0543775e-07 0)
(0.04416527 1.0088094e-07 0)
(0.043912934 9.6470661e-08 0)
(0.043667234 9.2307522e-08 0)
(0.043427392 8.8513971e-08 0)
(0.043192688 8.4925997e-08 0)
(0.04296314 8.1544342e-08 0)
(0.042737956 7.844567e-08 0)
(0.042516708 7.5482994e-08 0)
(0.042299401 7.2567938e-08 0)
(0.042086083 6.971684e-08 0)
(0.041876656 6.7015292e-08 0)
(0.041670648 6.4499748e-08 0)
(0.041467714 6.209574e-08 0)
(0.041267797 5.9765986e-08 0)
(0.041070765 5.7544713e-08 0)
(0.04087632 5.5445217e-08 0)
(0.040684224 5.3438196e-08 0)
(0.040494344 5.1506875e-08 0)
(0.040306532 4.9642461e-08 0)
(0.040120697 4.7855054e-08 0)
(0.039936606 4.6148109e-08 0)
(0.039754127 4.4498868e-08 0)
(0.039573167 4.2909233e-08 0)
(0.039393562 4.1384395e-08 0)
(0.039215158 3.990845e-08 0)
(0.039037914 3.8477928e-08 0)
(0.038861686 3.7110375e-08 0)
(0.038686252 3.5790625e-08 0)
(0.03851158 3.4502011e-08 0)
(0.038337599 3.3252844e-08 0)
(0.038164193 3.2047927e-08 0)
(0.03799121 3.088713e-08 0)
(0.037818511 2.9760176e-08 0)
(0.037646041 2.8655303e-08 0)
(0.037473787 2.758386e-08 0)
(0.037301545 2.656135e-08 0)
(0.037129081 2.5571911e-08 0)
(0.036956357 2.4594709e-08 0)
(0.036783411 2.3641942e-08 0)
(0.03661003 2.2742069e-08 0)
(0.036435794 2.1874384e-08 0)
(0.036260758 2.1005453e-08 0)
(0.036085016 2.0152591e-08 0)
(0.035908346 1.9337444e-08 0)
(0.03573044 1.8550641e-08 0)
(0.035551193 1.7772168e-08 0)
(0.035370656 1.7011427e-08 0)
(0.035188523 1.6286559e-08 0)
(0.035004416 1.5581757e-08 0)
(0.034818317 1.488365e-08 0)
(0.034630134 1.4206975e-08 0)
(0.034439458 1.3556144e-08 0)
(0.034246016 1.2914851e-08 0)
(0.0340498 1.2285437e-08 0)
(0.033850429 1.1687349e-08 0)
(0.033651751 1.1119419e-08 0)
(0.033460363 1.0587728e-08 0)
(0.033277912 1.0123494e-08 0)
(0.033102918 9.6957901e-09 0)
(0.032935568 9.2741208e-09 0)
(0.032775461 8.882521e-09 0)
(0.032621939 8.527002e-09 0)
(0.032474385 8.1989282e-09 0)
(0.032332446 7.8877349e-09 0)
(0.03219588 7.5945175e-09 0)
(0.032064295 7.3257413e-09 0)
(0.031937219 7.0794914e-09 0)
(0.031814329 6.8466166e-09 0)
(0.031695475 6.6237013e-09 0)
(0.031580455 6.4146134e-09 0)
(0.031468986 6.2260439e-09 0)
(0.031360625 6.0524793e-09 0)
(0.031255285 5.9102509e-09 0)
(0.031151946 5.7498248e-09 0)
(0.031052279 5.7426889e-09 0)
(0.03094918 5.49537e-09 0)
(0.030858082 6.7613641e-09 0)
(0.030709935 4.21124e-09 0)
(1 1.676389e-09 7.9567032e-24)
(0.99998252 6.094111e-09 0)
(0.99994192 1.1074824e-08 0)
(0.99988801 1.5621003e-08 0)
(0.999824 2.0578586e-08 0)
(0.99975084 2.6293477e-08 0)
(0.99966926 3.2905288e-08 0)
(0.99957981 4.0617721e-08 0)
(0.9994827 4.9741236e-08 0)
(0.99937778 6.0664999e-08 0)
(0.99926456 7.3865172e-08 0)
(0.99914228 8.9961431e-08 0)
(0.99900977 1.0979257e-07 0)
(0.99886537 1.345782e-07 0)
(0.99870657 1.6600044e-07 0)
(0.99852996 2.071035e-07 0)
(0.9983295 2.611724e-07 0)
(0.99809877 3.4057536e-07 0)
(0.99781634 4.4408549e-07 0)
(0.99748143 6.6403999e-07 0)
(0.99696004 8.7842968e-07 0)
(0.99640739 2.6258906e-06 0)
(0.99392851 2.2048509e-06 0)
(0.99389005 0.00081633558 -2.9988884e-54)
(0.17385648 0.00085490855 4.2525347e-54)
(0.092434113 3.925612e-05 0)
(0.090096995 9.6303636e-07 0)
(0.090213346 7.168407e-07 0)
(0.088404749 1.7534597e-06 0)
(0.086080934 1.8908779e-06 0)
(0.083915789 1.6844557e-06 0)
(0.082047791 1.4421017e-06 0)
(0.080429024 1.2466586e-06 0)
(0.079003114 1.093564e-06 0)
(0.077731071 9.7019705e-07 0)
(0.076584609 8.758538e-07 0)
(0.075524241 8.0248251e-07 0)
(0.074540444 7.3736086e-07 0)
(0.073624818 6.786987e-07 0)
(0.072771986 6.2519296e-07 0)
(0.07197652 5.7758164e-07 0)
(0.071230752 5.3588687e-07 0)
(0.070528796 4.9873453e-07 0)
(0.069866277 4.6575411e-07 0)
(0.069237978 4.3638976e-07 0)
(0.068640739 4.0976203e-07 0)
(0.068071563 3.8540986e-07 0)
(0.06752836 3.6303728e-07 0)
(0.06700882 3.4277196e-07 0)
(0.066510344 3.2399238e-07 0)
(0.066032243 3.0658364e-07 0)
(0.065572154 2.90969e-07 0)
(0.065128 2.7637346e-07 0)
(0.064699609 2.6261499e-07 0)
(0.064285403 2.5014906e-07 0)
(0.063883697 2.3848323e-07 0)
(0.063494355 2.2734525e-07 0)
(0.063116511 2.1716992e-07 0)
(0.062748532 2.0778202e-07 0)
(0.06239005 1.9870024e-07 0)
(0.062040988 1.9012765e-07 0)
(0.061700247 1.8231224e-07 0)
(0.061366813 1.7492054e-07 0)
(0.061040703 1.6795748e-07 0)
(0.060720785 1.6157677e-07 0)
(0.06040646 1.5547278e-07 0)
(0.06009774 1.4946745e-07 0)
(0.059794686 1.4359657e-07 0)
(0.059497152 1.3803361e-07 0)
(0.059204476 1.3285125e-07 0)
(0.058916172 1.2789872e-07 0)
(0.058632155 1.2310075e-07 0)
(0.058352232 1.1852675e-07 0)
(0.058075983 1.1420224e-07 0)
(0.057803072 1.1006747e-07 0)
(0.057533313 1.0608915e-07 0)
(0.05726649 1.0225003e-07 0)
(0.057002472 9.8569164e-08 0)
(0.056740931 9.5052487e-08 0)
(0.056481685 9.1655063e-08 0)
(0.056224597 8.8381291e-08 0)
(0.05596943 8.5241175e-08 0)
(0.055715967 8.2201023e-08 0)
(0.055464156 7.9254077e-08 0)
(0.055213789 7.6437075e-08 0)
(0.054964549 7.3719319e-08 0)
(0.054716388 7.1065538e-08 0)
(0.054469211 6.8492132e-08 0)
(0.054222851 6.6010083e-08 0)
(0.053977093 6.3619365e-08 0)
(0.053731736 6.1298471e-08 0)
(0.053486703 5.9022681e-08 0)
(0.053241979 5.6815544e-08 0)
(0.052997272 5.470938e-08 0)
(0.052752249 5.2671696e-08 0)
(0.052506855 5.0659062e-08 0)
(0.052261147 4.8696381e-08 0)
(0.05201482 4.6842762e-08 0)
(0.051767281 4.5055756e-08 0)
(0.051518601 4.3266124e-08 0)
(0.051268919 4.1509306e-08 0)
(0.05101792 3.9830223e-08 0)
(0.050765163 3.820974e-08 0)
(0.050510501 3.6606381e-08 0)
(0.050254006 3.5039356e-08 0)
(0.049995243 3.3546246e-08 0)
(0.049733676 3.2094639e-08 0)
(0.049469279 3.0656766e-08 0)
(0.04920192 2.9262903e-08 0)
(0.04893102 2.7922362e-08 0)
(0.048656189 2.6601514e-08 0)
(0.048377417 2.530506e-08 0)
(0.048094163 2.4073135e-08 0)
(0.047811893 2.2903388e-08 0)
(0.047539979 2.1808233e-08 0)
(0.047280764 2.0851978e-08 0)
(0.047032142 1.9971047e-08 0)
(0.04679438 1.9102532e-08 0)
(0.046566908 1.8295909e-08 0)
(0.046348793 1.7563601e-08 0)
(0.046139157 1.6887874e-08 0)
(0.045937497 1.6246915e-08 0)
(0.045743471 1.5642936e-08 0)
(0.045556521 1.5089295e-08 0)
(0.04537598 1.4582076e-08 0)
(0.045201384 1.4102433e-08 0)
(0.045032522 1.364328e-08 0)
(0.044869109 1.3212568e-08 0)
(0.044710739 1.2824117e-08 0)
(0.044556787 1.2466575e-08 0)
(0.044407128 1.2173543e-08 0)
(0.044260314 1.1843007e-08 0)
(0.044118713 1.1827943e-08 0)
(0.043972267 1.1327962e-08 0)
(0.04384284 1.3934281e-08 0)
(0.043632357 8.6717218e-09 0)
(1 2.1978563e-09 0)
(0.99998252 7.9899183e-09 0)
(0.99994192 1.4520505e-08 0)
(0.999888 2.0481966e-08 0)
(0.99982397 2.698332e-08 0)
(0.9997508 3.4477903e-08 0)
(0.99966919 4.3148602e-08 0)
(0.9995797 5.3262388e-08 0)
(0.99948256 6.5226255e-08 0)
(0.99937759 7.9550408e-08 0)
(0.99926434 9.6859123e-08 0)
(0.99914201 1.1796483e-07 0)
(0.99900946 1.4396726e-07 0)
(0.99886501 1.764654e-07 0)
(0.99870617 2.1766461e-07 0)
(0.99852952 2.715561e-07 0)
(0.99832902 3.4244675e-07 0)
(0.99809825 4.4655202e-07 0)
(0.99781578 5.8226383e-07 0)
(0.99748083 8.7063896e-07 0)
(0.9969594 1.1517418e-06 0)
(0.99640672 3.4426151e-06 0)
(0.99392791 2.891285e-06 0)
(0.99388978 0.0010393494 0)
(0.22208108 0.0011032327 0)
(0.12117934 6.5622448e-05 0)
(0.11811728 1.6707633e-06 0)
(0.11825329 1.2470181e-06 1.2623311e-20)
(0.11588055 3.0421796e-06 0)
(0.11283349 3.2791979e-06 0)
(0.10999742 2.9201449e-06 0)
(0.10755058 2.500224e-06 0)
(0.10542966 2.1616308e-06 0)
(0.10356127 1.8962058e-06 0)
(0.10189451 1.6822758e-06 0)
(0.10039229 1.5187021e-06 0)
(0.099002843 1.391494e-06 0)
(0.097713711 1.2785819e-06 0)
(0.096513891 1.1768654e-06 0)
(0.095396344 1.0840929e-06 0)
(0.09435395 1.0015417e-06 0)
(0.093376668 9.2924803e-07 0)
(0.092456784 8.6482978e-07 0)
(0.091588571 8.076435e-07 0)
(0.090765192 7.5672858e-07 0)
(0.089982509 7.1055477e-07 0)
(0.089236601 6.6833093e-07 0)
(0.088524713 6.2953948e-07 0)
(0.087843837 5.9439463e-07 0)
(0.087190567 5.6183403e-07 0)
(0.08656398 5.3164995e-07 0)
(0.085961002 5.0456873e-07 0)
(0.085378911 4.7926225e-07 0)
(0.084817461 4.5540792e-07 0)
(0.084274603 4.3378742e-07 0)
(0.083748131 4.1355831e-07 0)
(0.083237852 3.9424834e-07 0)
(0.082742638 3.7660257e-07 0)
(0.082260357 3.6031973e-07 0)
(0.081790524 3.4457415e-07 0)
(0.081333025 3.2971189e-07 0)
(0.080886429 3.1615634e-07 0)
(0.080449418 3.0333593e-07 0)
(0.080022003 2.9126453e-07 0)
(0.079602692 2.8020222e-07 0)
(0.079190711 2.6961451e-07 0)
(0.078786084 2.5919866e-07 0)
(0.078388882 2.4902026e-07 0)
(0.077998905 2.3937564e-07 0)
(0.077615292 2.3038716e-07 0)
(0.077237416 2.2179722e-07 0)
(0.076865158 2.1347793e-07 0)
(0.07649826 2.0554785e-07 0)
(0.076136173 1.9804835e-07 0)
(0.075778463 1.9087664e-07 0)
(0.075424889 1.8397714e-07 0)
(0.07507516 1.773212e-07 0)
(0.0747291 1.7093907e-07 0)
(0.074386287 1.6483934e-07 0)
(0.074046486 1.5894691e-07 0)
(0.073709512 1.5327038e-07 0)
(0.073375052 1.4782591e-07 0)
(0.073042823 1.4255363e-07 0)
(0.07271276 1.3744237e-07 0)
(0.072384592 1.325569e-07 0)
(0.0720579 1.2784475e-07 0)
(0.071732616 1.2324327e-07 0)
(0.071408622 1.1877984e-07 0)
(0.071085702 1.1447511e-07 0)
(0.07076357 1.1032952e-07 0)
(0.07044196 1.0630519e-07 0)
(0.070120772 1.0235849e-07 0)
(0.069799992 9.8530497e-08 0)
(0.069479234 9.4877925e-08 0)
(0.06915806 9.1344661e-08 0)
(0.068836396 8.7854593e-08 0)
(0.06851432 8.4450562e-08 0)
(0.068191436 8.1235841e-08 0)
(0.06786696 7.8137131e-08 0)
(0.067540986 7.5033769e-08 0)
(0.067213698 7.1986873e-08 0)
(0.066884685 6.9074853e-08 0)
(0.066553367 6.6264805e-08 0)
(0.066219548 6.3484395e-08 0)
(0.065883326 6.0766701e-08 0)
(0.065544132 5.817723e-08 0)
(0.065201262 5.5659995e-08 0)
(0.064854678 5.3166492e-08 0)
(0.064504212 5.0749105e-08 0)
(0.064149105 4.8424318e-08 0)
(0.063788843 4.6133757e-08 0)
(0.063423414 4.3885389e-08 0)
(0.063052108 4.1748934e-08 0)
(0.062682093 3.9720399e-08 0)
(0.06232565 3.7821143e-08 0)
(0.061985854 3.6162704e-08 0)
(0.061659944 3.4634992e-08 0)
(0.061348268 3.3128835e-08 0)
(0.061050081 3.1729924e-08 0)
(0.060764159 3.0459887e-08 0)
(0.060489353 2.9288053e-08 0)
(0.060225001 2.8176514e-08 0)
(0.059970654 2.7129033e-08 0)
(0.059725586 2.616884e-08 0)
(0.059488917 2.5289192e-08 0)
(0.059260042 2.4457409e-08 0)
(0.059038683 2.3661121e-08 0)
(0.058824466 2.2914096e-08 0)
(0.058616862 2.2240347e-08 0)
(0.05841505 2.1620226e-08 0)
(0.058218864 2.1111871e-08 0)
(0.058026415 2.0538577e-08 0)
(0.057840791 2.0511547e-08 0)
(0.057648858 1.9652588e-08 0)
(0.057479191 2.4173337e-08 -3.0114578e-22)
(0.057203268 1.5035724e-08 5.4606255e-23)
(1 2.7520677e-09 0)
(0.99998252 1.0004844e-08 0)
(0.99994192 1.8182924e-08 0)
(0.99988799 2.5649163e-08 0)
(0.99982395 3.3792142e-08 0)
(0.99975075 4.3179286e-08 0)
(0.99966911 5.4039386e-08 0)
(0.99957959 6.6706601e-08 0)
(0.9994824 8.1690494e-08 0)
(0.99937739 9.9629904e-08 0)
(0.99926409 1.2130651e-07 0)
(0.99914172 1.4773762e-07 0)
(0.99900912 1.8030026e-07 0)
(0.99886462 2.2099662e-07 0)
(0.99870573 2.725882e-07 0)
(0.99852903 3.4007264e-07 0)
(0.99832849 4.2884288e-07 0)
(0.99809767 5.5920315e-07 0)
(0.99781516 7.2914042e-07 0)
(0.99748017 1.0902329e-06 0)
(0.99695869 1.4422132e-06 0)
(0.99640598 4.3106068e-06 0)
(0.99392726 3.62105e-06 0)
(0.9938896 0.0012620455 0)
(0.2705936 0.001358496 0)
(0.15169402 9.9216007e-05 0)
(0.14784664 2.6345115e-06 0)
(0.14797723 1.9731291e-06 0)
(0.14500578 4.79061e-06 0)
(0.14119502 5.1612198e-06 0)
(0.13765185 4.5943697e-06 0)
(0.13459478 3.9340765e-06 0)
(0.13194408 3.4017527e-06 0)
(0.12960868 2.9841391e-06 0)
(0.12752528 2.6474668e-06 0)
(0.12564746 2.3900837e-06 0)
(0.12391051 2.1899289e-06 0)
(0.12229889 2.0122532e-06 0)
(0.12079886 1.8521881e-06 0)
(0.11940164 1.7062002e-06 0)
(0.11809833 1.5762979e-06 0)
(0.11687637 1.4625349e-06 0)
(0.11572614 1.3611626e-06 0)
(0.11464049 1.2711686e-06 -6.2768305e-33)
(0.11361086 1.1910443e-06 0)
(0.1126321 1.1183754e-06 0)
(0.1116993 1.0519285e-06 0)
(0.11080902 9.9088232e-07 0)
(0.1099575 9.3556459e-07 0)
(0.1091405 8.8432503e-07 0)
(0.10835683 8.3682468e-07 0)
(0.10760269 7.9419587e-07 0)
(0.10687466 7.5437085e-07 0)
(0.10617241 7.1683232e-07 0)
(0.10549342 6.8279836e-07 0)
(0.10483491 6.5095983e-07 0)
(0.10419665 6.2057376e-07 0)
(0.10357721 5.9279914e-07 0)
(0.10297394 5.6716583e-07 0)
(0.10238625 5.4238765e-07 0)
(0.10181395 5.1900036e-07 0)
(0.10125529 4.9766007e-07 0)
(0.10070863 4.774773e-07 0)
(0.10017396 4.5848221e-07 0)
(0.099649409 4.4107421e-07 0)
(0.099134024 4.2440503e-07 0)
(0.098627846 4.0800743e-07 0)
(0.098130947 3.919903e-07 0)
(0.097643071 3.7681296e-07 0)
(0.097163151 3.6266245e-07 0)
(0.096690412 3.4913908e-07 0)
(0.096224698 3.3604583e-07 0)
(0.095765677 3.2356643e-07 0)
(0.095312667 3.1176161e-07 0)
(0.094865134 3.0047063e-07 0)
(0.094422774 2.8960964e-07 0)
(0.093985221 2.7913531e-07 0)
(0.093552245 2.69091e-07 0)
(0.093123328 2.594876e-07 0)
(0.092698183 2.5021117e-07 0)
(0.092276571 2.4127694e-07 0)
(0.091858096 2.3270835e-07 0)
(0.091442406 2.2440905e-07 0)
(0.091029426 2.1636213e-07 0)
(0.090618818 2.0867139e-07 0)
(0.090210051 2.0125533e-07 0)
(0.089803037 1.9401301e-07 0)
(0.089397634 1.8698597e-07 0)
(0.088993577 1.8020906e-07 0)
(0.088590502 1.736839e-07 0)
(0.088188074 1.6734984e-07 0)
(0.087786169 1.6113706e-07 0)
(0.087384772 1.5511057e-07 0)
(0.086983403 1.4936072e-07 0)
(0.08658151 1.4379952e-07 0)
(0.086178996 1.3830592e-07 0)
(0.085775964 1.3294684e-07 0)
(0.085371922 1.2788602e-07 0)
(0.084965883 1.2300858e-07 0)
(0.084557965 1.1812365e-07 0)
(0.084148397 1.1332692e-07 0)
(0.083736672 1.0874261e-07 0)
(0.083322058 1.0431935e-07 0)
(0.082904309 9.994265e-08 0)
(0.082483549 9.5664209e-08 0)
(0.082059071 9.1587678e-08 0)
(0.081629987 8.7625256e-08 0)
(0.081196249 8.3700048e-08 0)
(0.080757652 7.9894347e-08 0)
(0.080313244 7.6234601e-08 0)
(0.079862379 7.2628845e-08 0)
(0.079405044 6.9089334e-08 0)
(0.078940352 6.5726007e-08 0)
(0.078477271 6.2532695e-08 0)
(0.078031171 5.9542775e-08 0)
(0.077605903 5.6931855e-08 0)
(0.077198013 5.4526864e-08 0)
(0.076807934 5.2155863e-08 0)
(0.076434734 4.9953544e-08 0)
(0.076076884 4.7954097e-08 0)
(0.075732944 4.6109366e-08 0)
(0.075402085 4.4359548e-08 0)
(0.075083747 4.2710463e-08 0)
(0.074777021 4.1198772e-08 0)
(0.074480807 3.9813945e-08 0)
(0.074194346 3.8504532e-08 0)
(0.073917291 3.7250934e-08 0)
(0.073649174 3.6074795e-08 0)
(0.073389334 3.5013983e-08 0)
(0.073136745 3.4037651e-08 0)
(0.072891196 3.3237055e-08 0)
(0.072650331 3.2334505e-08 0)
(0.072417997 3.2290236e-08 0)
(0.072177822 3.0937426e-08 0)
(0.071965458 3.8065056e-08 0)
(0.071620095 2.3661911e-08 -3.1138536e-23)
(1 3.3472804e-09 0)
(0.99998252 1.2168924e-08 0)
(0.99994192 2.2116738e-08 0)
(0.99988798 3.1199824e-08 0)
(0.99982393 4.1106972e-08 0)
(0.9997507 5.2528027e-08 0)
(0.99966902 6.5740976e-08 0)
(0.99957946 8.1152072e-08 0)
(0.99948223 9.9381003e-08 0)
(0.99937717 1.2120474e-07 0)
(0.99926381 1.4757403e-07 0)
(0.99914139 1.7972618e-07 0)
(0.99900874 2.1933604e-07 0)
(0.99886419 2.6883886e-07 0)
(0.99870525 3.315934e-07 0)
(0.99852849 4.1367819e-07 0)
(0.99832789 5.2165262e-07 0)
(0.99809703 6.8021206e-07 0)
(0.99781447 8.8690899e-07 0)
(0.99747943 1.326098e-06 0)
(0.9969579 1.7542203e-06 0)
(0.99640515 5.2427245e-06 0)
(0.99392654 4.4051506e-06 0)
(0.99388953 0.0014856328 0)
(0.31970168 0.0016226639 0)
(0.18435744 0.00014106792 0)
(0.17959912 3.9296519e-06 0)
(0.17966921 2.9496763e-06 -3.2952594e-20)
(0.17606043 7.1003561e-06 1.5312889e-20)
(0.17144577 7.6443025e-06 0)
(0.16715961 6.802162e-06 0)
(0.16346075 5.8252993e-06 0)
(0.16025223 5.0378762e-06 0)
(0.15742476 4.4196247e-06 0)
(0.15490212 3.9210677e-06 0)
(0.15262813 3.5399841e-06 0)
(0.15052448 3.243641e-06 0)
(0.14857243 2.9805531e-06 0)
(0.14675534 2.7435303e-06 0)
(0.14506262 2.5273513e-06 0)
(0.1434835 2.3349912e-06 0)
(0.14200282 2.166525e-06 0)
(0.14060894 2.0164014e-06 0)
(0.1392932 1.8831233e-06 6.7216665e-33)
(0.13804527 1.7644609e-06 0)
(0.1368589 1.6568305e-06 0)
(0.13572818 1.5584223e-06 0)
(0.1346489 1.4680099e-06 0)
(0.13361658 1.3860665e-06 0)
(0.13262604 1.3101784e-06 0)
(0.13167585 1.2398266e-06 0)
(0.13076141 1.1766731e-06 0)
(0.12987861 1.1176873e-06 0)
(0.12902702 1.0620894e-06 0)
(0.12820358 1.0116662e-06 0)
(0.12740498 9.6450263e-07 0)
(0.12663087 9.1949903e-07 0)
(0.12587955 8.7835195e-07 0)
(0.12514784 8.4037116e-07 0)
(0.12443499 8.0367083e-07 0)
(0.12374078 7.6903178e-07 0)
(0.12306309 7.374106e-07 0)
(0.12239993 7.0750465e-07 0)
(0.12175131 6.7937115e-07 0)
(0.12111492 6.5358694e-07 0)
(0.12048964 6.2888487e-07 0)
(0.11987553 6.0458662e-07 0)
(0.11927265 5.8086206e-07 0)
(0.11868069 5.5838102e-07 0)
(0.11809837 5.3741233e-07 0)
(0.11752475 5.1737229e-07 0)
(0.11695965 4.9797569e-07 0)
(0.11640264 4.7949029e-07 0)
(0.1158529 4.6199954e-07 0)
(0.1153098 4.4526676e-07 0)
(0.11477298 4.2917337e-07 0)
(0.11424197 4.1365773e-07 0)
(0.11371649 3.9877767e-07 0)
(0.11319593 3.8454547e-07 0)
(0.11267994 3.7079855e-07 0)
(0.11216823 3.5756227e-07 0)
(0.1116603 3.4486823e-07 0)
(0.11115575 3.3257051e-07 0)
(0.11065447 3.2064501e-07 0)
(0.11015606 3.0924844e-07 0)
(0.10965988 2.9826164e-07 0)
(0.10916581 2.875315e-07 0)
(0.10867368 2.7711728e-07 0)
(0.10818318 2.6707411e-07 0)
(0.10769387 2.5740585e-07 0)
(0.10720532 2.4802104e-07 0)
(0.1067174 2.3881452e-07 0)
(0.10623008 2.2988314e-07 0)
(0.1057428 2.2136247e-07 0)
(0.10525486 2.1312256e-07 0)
(0.10476616 2.049822e-07 0)
(0.10427681 1.9703974e-07 0)
(0.10378624 1.8953966e-07 0)
(0.10329323 1.8231246e-07 0)
(0.10279792 1.7507385e-07 0)
(0.10230061 1.6796489e-07 0)
(0.10180066 1.6117083e-07 0)
(0.1012972 1.5461622e-07 0)
(0.10078991 1.4813044e-07 0)
(0.10027896 1.4178953e-07 0)
(0.099763489 1.3574794e-07 0)
(0.099242412 1.2987601e-07 0)
(0.098715669 1.24059e-07 0)
(0.098183013 1.184186e-07 0)
(0.097643293 1.1299476e-07 0)
(0.097095718 1.0765107e-07 0)
(0.096540273 1.0240528e-07 0)
(0.095975881 9.7420593e-08 0)
(0.095413432 9.2688044e-08 0)
(0.094871598 8.8256726e-08 0)
(0.094355057 8.4386943e-08 0)
(0.093859617 8.0822571e-08 0)
(0.093385802 7.7308601e-08 0)
(0.092932481 7.4044422e-08 0)
(0.092497799 7.1080902e-08 0)
(0.092080008 6.8346861e-08 0)
(0.0916781 6.5753473e-08 0)
(0.091291397 6.3309206e-08 0)
(0.090918795 6.1068539e-08 0)
(0.090558959 5.9015997e-08 0)
(0.090210966 5.7075317e-08 0)
(0.089874395 5.5217259e-08 0)
(0.089548679 5.3473863e-08 0)
(0.089233016 5.1901347e-08 0)
(0.088926162 5.045414e-08 0)
(0.088627856 4.9267035e-08 0)
(0.088335247 4.7929352e-08 0)
(0.088052987 4.7860888e-08 0)
(0.087761269 4.5853224e-08 -3.6683257e-23)
(0.087503265 5.6432468e-08 0)
(0.08708367 3.5064067e-08 0)
(1 3.9923621e-09 0)
(0.99998252 1.4514424e-08 0)
(0.99994192 2.6380667e-08 0)
(0.99988797 3.7216961e-08 0)
(0.9998239 4.9037406e-08 0)
(0.99975064 6.2664396e-08 0)
(0.99966893 7.8429107e-08 0)
(0.99957932 9.6815847e-08 0)
(0.99948204 1.1856362e-07 0)
(0.99937692 1.4459909e-07 0)
(0.99926351 1.7605621e-07 0)
(0.99914102 2.1441075e-07 0)
(0.99900831 2.6166032e-07 0)
(0.9988637 3.207095e-07 0)
(0.9987047 3.9556438e-07 0)
(0.99852789 4.9347494e-07 0)
(0.99832724 6.2226479e-07 0)
(0.99809632 8.1138813e-07 0)
(0.9978137 1.0579272e-06 0)
(0.9974786 1.5817547e-06 0)
(0.99695702 2.0924154e-06 0)
(0.99640423 6.2528229e-06 0)
(0.99392574 5.2554263e-06 0)
(0.99388959 0.0017108126 -7.629856e-54)
(0.36959473 0.0018974339 1.1139932e-53)
(0.21948111 0.00019236941 -6.149146e-19)
(0.21353363 5.6987335e-06 0)
(0.21343298 4.2597286e-06 -3.7999702e-20)
(0.20914982 1.0098786e-05 0)