/*--------------------------------*- C++ -*----------------------------------*\
  =========                 |
  \\      /  F ield         | OpenFOAM: The Open Source CFD Toolbox
   \\    /   O peration     | Website:  https://openfoam.org
    \\  /    A nd           | Version:  12
     \\/     M anipulation  |
\*---------------------------------------------------------------------------*/
FoamFile
{
    format      ascii;
    class       volScalarField;
    location    "1200";
    object      yPlus;
}
// * * * * * * * * * * * * * * * * * * * * * * * * * * * * * * * * * * * * * //

dimensions      [];

internalField   uniform 0;

boundaryField
{
    inlet
    {
        type            calculated;
        value           uniform 0;
    }
    top
    {
        type            calculated;
        value           uniform 0;
    }
    outlet
    {
        type            calculated;
        value           uniform 0;
    }
    slipsurface
    {
        type            calculated;
        value           uniform 0;
    }
    bottom
    {
        type            calculated;
        value           nonuniform List<scalar> 
100
(
0.20084954
0.1983865
0.19596638
0.19388026
0.19239333
0.19169604
0.19207348
0.19312324
0.1951305
0.19724501
0.20366154
0.1984306
8.0949652
41.976447
67.274145
83.765122
93.457278
98.416459
100.96491
100.87485
100.33467
99.325353
98.070924
96.728873
95.352359
93.968442
92.603268
91.294026
90.079252
88.945061
87.89289
86.929364
86.058866
85.281235
84.591875
83.983391
83.446091
82.970606
82.550696
82.181697
81.856984
81.568459
81.308908
81.071055
80.851813
80.641668
80.438722
80.239726
80.041474
79.841844
79.638508
79.428674
79.210498
78.98386
78.749996
78.510635
78.267453
78.022174
77.776345
77.530985
77.286592
77.043425
76.801821
76.562361
76.325615
76.091901
75.86153
75.634737
75.411305
75.190649
74.972335
74.756319
74.542725
74.331626
74.123208
73.917673
73.71484
73.514292
73.315764
73.119256
72.924874
72.732789
72.543132
72.355724
72.170209
71.986471
71.804517
71.624485
71.446516
71.270417
71.095902
70.922892
70.75145
70.58149
70.413217
70.245017
70.080209
69.905607
69.757531
69.486173
)
;
    }
    frontandback
    {
        type            empty;
    }
}


// ************************************************************************* //
