# Selection     : all 
# Volume        : 2.33333000e+00
# Time          	maxp	location	cell	maxk	location	cell	maxomega	location	cell	maxnut	location	cell
0               	0.00000000e+00	1.56631511e-03 4.00664797e-04 5.00000000e-01	0	1.50000000e-04	1.56631511e-03 4.00664797e-04 5.00000000e-01	0	7.50000000e+02	1.56631511e-03 4.00664797e-04 5.00000000e-01	0	2.00000000e-07	1.56631511e-03 4.00664797e-04 5.00000000e-01	0
1               	3.58591179e-03	2.21780719e-02 4.00664797e-04 5.00000000e-01	6	1.05943200e-03	1.96867370e+00 4.00664797e-04 5.00000000e-01	99	4.30500724e+02	1.84777604e-02 2.05728518e-03 5.00000000e-01	205	1.39531724e-06	8.02553783e-03 4.00664797e-04 5.00000000e-01	2
2               	6.05525288e-03	1.14047319e-02 4.00664797e-04 5.00000000e-01	3	3.94956119e-03	3.54090802e-01 4.00664797e-04 5.00000000e-01	49	1.89799692e+03	1.96867370e+00 1.21537301e-03 5.00000000e-01	199	1.36068228e-06	3.40497276e-01 4.00664797e-04 5.00000000e-01	48
3               	6.84597007e-03	8.02553783e-03 4.00664797e-04 5.00000000e-01	2	4.73384016e-03	8.76651182e-02 4.00664797e-04 5.00000000e-01	20	1.06704201e+03	7.33354481e-01 1.21537301e-03 5.00000000e-01	169	2.84897408e-06	5.61804552e-02 4.00664797e-04 5.00000000e-01	14
4               	7.31308016e-03	4.74706631e-03 4.00664797e-04 5.00000000e-01	1	6.05394961e-03	6.10390842e-02 4.00664797e-04 5.00000000e-01	15	8.87051693e+02	1.33817151e+00 1.21537301e-03 5.00000000e-01	187	4.36118433e-06	3.39751789e-02 4.00664797e-04 5.00000000e-01	9
5               	7.54441566e-03	4.74706631e-03 4.00664797e-04 5.00000000e-01	1	6.79547212e-03	5.14666457e-02 4.00664797e-04 5.00000000e-01	13	8.64756291e+02	6.10390842e-02 4.00664797e-04 5.00000000e-01	15	5.77807066e-06	2.99232349e-02 4.00664797e-04 5.00000000e-01	8
6               	7.66969357e-03	1.56631511e-03 4.00664797e-04 5.00000000e-01	0	7.22978599e-03	4.68933393e-02 4.00664797e-04 5.00000000e-01	12	9.16187045e+02	5.14666457e-02 4.00664797e-04 5.00000000e-01	13	6.76855328e-06	2.99232349e-02 4.00664797e-04 5.00000000e-01	8
7               	7.83423657e-03	1.56631511e-03 4.00664797e-04 5.00000000e-01	0	7.44152351e-03	4.68933393e-02 4.00664797e-04 5.00000000e-01	12	9.45011405e+02	4.68933393e-02 4.00664797e-04 5.00000000e-01	12	7.41817487e-06	2.99232349e-02 4.00664797e-04 5.00000000e-01	8
8               	7.95991714e-03	1.56631511e-03 4.00664797e-04 5.00000000e-01	0	7.55211846e-03	4.68933393e-02 4.00664797e-04 5.00000000e-01	12	9.58749738e+02	4.68933393e-02 4.00664797e-04 5.00000000e-01	12	7.67458994e-06	3.39751789e-02 4.00664797e-04 5.00000000e-01	9
9               	8.01300135e-03	1.56631511e-03 4.00664797e-04 5.00000000e-01	0	7.61054440e-03	4.68933393e-02 4.00664797e-04 5.00000000e-01	12	9.65847869e+02	4.68933393e-02 4.00664797e-04 5.00000000e-01	12	9.27093644e-06	1.96867370e+00 2.05728518e-03 5.00000000e-01	299
10              	8.05497092e-03	1.56631511e-03 4.00664797e-04 5.00000000e-01	0	7.63860313e-03	4.68933393e-02 4.00664797e-04 5.00000000e-01	12	9.69576747e+02	4.68933393e-02 4.00664797e-04 5.00000000e-01	12	1.13707119e-05	1.96867370e+00 2.05728518e-03 5.00000000e-01	299
11              	8.09979310e-03	1.56631511e-03 4.00664797e-04 5.00000000e-01	0	7.64833793e-03	4.68933393e-02 4.00664797e-04 5.00000000e-01	12	9.71362431e+02	4.68933393e-02 4.00664797e-04 5.00000000e-01	12	1.32726878e-05	1.96867370e+00 2.05728518e-03 5.00000000e-01	299
12              	8.16018438e-03	1.56631511e-03 4.00664797e-04 5.00000000e-01	0	7.64837679e-03	4.68933393e-02 4.00664797e-04 5.00000000e-01	12	9.71981197e+02	4.68933393e-02 4.00664797e-04 5.00000000e-01	12	1.56037624e-05	1.96867370e+00 2.92730968e-03 5.00000000e-01	399
13              	8.23692788e-03	1.56631511e-03 4.00664797e-04 5.00000000e-01	0	7.64392242e-03	4.68933393e-02 4.00664797e-04 5.00000000e-01	12	9.71983666e+02	4.68933393e-02 4.00664797e-04 5.00000000e-01	12	1.77737074e-05	1.96867370e+00 2.92730968e-03 5.00000000e-01	399
14              	8.33141269e-03	1.56631511e-03 4.00664797e-04 5.00000000e-01	0	7.63874486e-03	4.68933393e-02 4.00664797e-04 5.00000000e-01	12	9.71700586e+02	4.68933393e-02 4.00664797e-04 5.00000000e-01	12	1.99344983e-05	1.96867370e+00 2.92730968e-03 5.00000000e-01	399
15              	8.43123476e-03	1.56631511e-03 4.00664797e-04 5.00000000e-01	0	7.63397169e-03	4.68933393e-02 4.00664797e-04 5.00000000e-01	12	9.71371443e+02	4.68933393e-02 4.00664797e-04 5.00000000e-01	12	2.18443312e-05	1.96867370e+00 2.92730968e-03 5.00000000e-01	399
16              	8.52017045e-03	1.56631511e-03 4.00664797e-04 5.00000000e-01	0	7.63058174e-03	4.68933393e-02 4.00664797e-04 5.00000000e-01	12	9.71067908e+02	4.68933393e-02 4.00664797e-04 5.00000000e-01	12	2.40929792e-05	1.96867370e+00 3.82638520e-03 5.00000000e-01	499
17              	8.59462702e-03	1.56631511e-03 4.00664797e-04 5.00000000e-01	0	7.62792803e-03	4.68933393e-02 4.00664797e-04 5.00000000e-01	12	9.70852278e+02	4.68933393e-02 4.00664797e-04 5.00000000e-01	12	2.62092747e-05	1.96867370e+00 3.82638520e-03 5.00000000e-01	499
18              	8.65040965e-03	1.56631511e-03 4.00664797e-04 5.00000000e-01	0	7.62622344e-03	4.68933393e-02 4.00664797e-04 5.00000000e-01	12	9.70683444e+02	4.68933393e-02 4.00664797e-04 5.00000000e-01	12	2.81341814e-05	1.96867370e+00 3.82638520e-03 5.00000000e-01	499
19              	8.70959528e-03	1.56631511e-03 4.00664797e-04 5.00000000e-01	0	7.62527401e-03	4.68933393e-02 4.00664797e-04 5.00000000e-01	12	9.70574981e+02	4.68933393e-02 4.00664797e-04 5.00000000e-01	12	3.01494460e-05	1.96867370e+00 4.75548180e-03 5.00000000e-01	599
20              	8.76376403e-03	1.56631511e-03 4.00664797e-04 5.00000000e-01	0	7.62475879e-03	4.68933393e-02 4.00664797e-04 5.00000000e-01	12	9.70514563e+02	4.68933393e-02 4.00664797e-04 5.00000000e-01	12	3.21769733e-05	1.96867370e+00 4.75548180e-03 5.00000000e-01	599
21              	8.82597382e-03	1.56631511e-03 4.00664797e-04 5.00000000e-01	0	7.62457760e-03	4.68933393e-02 4.00664797e-04 5.00000000e-01	12	9.70481775e+02	4.68933393e-02 4.00664797e-04 5.00000000e-01	12	3.41039651e-05	1.96867370e+00 4.75548180e-03 5.00000000e-01	599
22              	8.87882989e-03	1.56631511e-03 4.00664797e-04 5.00000000e-01	0	7.62451262e-03	4.68933393e-02 4.00664797e-04 5.00000000e-01	12	9.70470244e+02	4.68933393e-02 4.00664797e-04 5.00000000e-01	12	3.59189751e-05	1.96867370e+00 4.75548180e-03 5.00000000e-01	599
23              	8.91329888e-03	1.56631511e-03 4.00664797e-04 5.00000000e-01	0	7.62459767e-03	4.68933393e-02 4.00664797e-04 5.00000000e-01	12	9.70466108e+02	4.68933393e-02 4.00664797e-04 5.00000000e-01	12	3.78289586e-05	1.96867370e+00 5.71560190e-03 5.00000000e-01	699
24              	8.93293051e-03	1.56631511e-03 4.00664797e-04 5.00000000e-01	0	7.62466646e-03	4.68933393e-02 4.00664797e-04 5.00000000e-01	12	9.70471521e+02	4.68933393e-02 4.00664797e-04 5.00000000e-01	12	3.98004542e-05	1.96867370e+00 5.71560190e-03 5.00000000e-01	699
25              	8.94780481e-03	1.56631511e-03 4.00664797e-04 5.00000000e-01	0	7.62467736e-03	4.68933393e-02 4.00664797e-04 5.00000000e-01	12	9.70475898e+02	4.68933393e-02 4.00664797e-04 5.00000000e-01	12	4.17062780e-05	1.96867370e+00 5.71560190e-03 5.00000000e-01	699
26              	8.95849294e-03	1.56631511e-03 4.00664797e-04 5.00000000e-01	0	7.62466223e-03	4.68933393e-02 4.00664797e-04 5.00000000e-01	12	9.70476592e+02	4.68933393e-02 4.00664797e-04 5.00000000e-01	12	4.35317231e-05	1.96867370e+00 5.71560190e-03 5.00000000e-01	699
27              	8.96655123e-03	1.56631511e-03 4.00664797e-04 5.00000000e-01	0	7.62463368e-03	4.68933393e-02 4.00664797e-04 5.00000000e-01	12	9.70475629e+02	4.68933393e-02 4.00664797e-04 5.00000000e-01	12	4.54033605e-05	1.96867370e+00 6.70778142e-03 5.00000000e-01	799
28              	8.97179485e-03	1.56631511e-03 4.00664797e-04 5.00000000e-01	0	7.62459519e-03	4.68933393e-02 4.00664797e-04 5.00000000e-01	12	9.70473812e+02	4.68933393e-02 4.00664797e-04 5.00000000e-01	12	4.73441647e-05	1.96867370e+00 6.70778142e-03 5.00000000e-01	799
29              	8.97483575e-03	1.56631511e-03 4.00664797e-04 5.00000000e-01	0	7.62454210e-03	4.68933393e-02 4.00664797e-04 5.00000000e-01	12	9.70471363e+02	4.68933393e-02 4.00664797e-04 5.00000000e-01	12	4.92246910e-05	1.96867370e+00 6.70778142e-03 5.00000000e-01	799
30              	8.97325280e-03	1.56631511e-03 4.00664797e-04 5.00000000e-01	0	7.62448087e-03	4.68933393e-02 4.00664797e-04 5.00000000e-01	12	9.70467984e+02	4.68933393e-02 4.00664797e-04 5.00000000e-01	12	5.10258977e-05	1.96867370e+00 6.70778142e-03 5.00000000e-01	799
31              	8.97004326e-03	1.56631511e-03 4.00664797e-04 5.00000000e-01	0	7.62441431e-03	4.68933393e-02 4.00664797e-04 5.00000000e-01	12	9.70464088e+02	4.68933393e-02 4.00664797e-04 5.00000000e-01	12	5.27284746e-05	1.96867370e+00 6.70778142e-03 5.00000000e-01	799
32              	8.95733084e-03	1.56631511e-03 4.00664797e-04 5.00000000e-01	0	7.62433652e-03	4.68933393e-02 4.00664797e-04 5.00000000e-01	12	9.70459852e+02	4.68933393e-02 4.00664797e-04 5.00000000e-01	12	5.45296016e-05	1.96867370e+00 7.73309085e-03 5.00000000e-01	899
33              	8.93856936e-03	1.56631511e-03 4.00664797e-04 5.00000000e-01	0	7.62424151e-03	4.68933393e-02 4.00664797e-04 5.00000000e-01	12	9.70454901e+02	4.68933393e-02 4.00664797e-04 5.00000000e-01	12	5.62587610e-05	1.96867370e+00 7.73309085e-03 5.00000000e-01	899
34              	8.90645187e-03	1.56631511e-03 4.00664797e-04 5.00000000e-01	0	7.62411449e-03	4.68933393e-02 4.00664797e-04 5.00000000e-01	12	9.70448854e+02	4.68933393e-02 4.00664797e-04 5.00000000e-01	12	5.79016724e-05	1.96867370e+00 7.73309085e-03 5.00000000e-01	899
35              	8.89906442e-03	1.56631511e-03 4.00664797e-04 5.00000000e-01	0	7.62398322e-03	4.68933393e-02 4.00664797e-04 5.00000000e-01	12	9.70440770e+02	4.68933393e-02 4.00664797e-04 5.00000000e-01	12	5.94360144e-05	1.96867370e+00 7.73309085e-03 5.00000000e-01	899
36              	8.89072762e-03	1.56631511e-03 4.00664797e-04 5.00000000e-01	0	7.62385881e-03	4.68933393e-02 4.00664797e-04 5.00000000e-01	12	9.70432416e+02	4.68933393e-02 4.00664797e-04 5.00000000e-01	12	6.08544033e-05	1.96867370e+00 7.73309085e-03 5.00000000e-01	899
37              	8.91353967e-03	1.56631511e-03 4.00664797e-04 5.00000000e-01	0	7.62377183e-03	4.68933393e-02 4.00664797e-04 5.00000000e-01	12	9.70424498e+02	4.68933393e-02 4.00664797e-04 5.00000000e-01	12	6.21574228e-05	1.96867370e+00 7.73309085e-03 5.00000000e-01	899
38              	8.92883606e-03	1.56631511e-03 4.00664797e-04 5.00000000e-01	0	7.62371904e-03	4.68933393e-02 4.00664797e-04 5.00000000e-01	12	9.70418962e+02	4.68933393e-02 4.00664797e-04 5.00000000e-01	12	6.35231494e-05	1.96867370e+00 8.79263643e-03 5.00000000e-01	999
39              	8.93086267e-03	1.56631511e-03 4.00664797e-04 5.00000000e-01	0	7.62369178e-03	4.68933393e-02 4.00664797e-04 5.00000000e-01	12	9.70415603e+02	4.68933393e-02 4.00664797e-04 5.00000000e-01	12	6.48271690e-05	1.96867370e+00 8.79263643e-03 5.00000000e-01	999
40              	8.92164305e-03	1.56631511e-03 4.00664797e-04 5.00000000e-01	0	7.62367991e-03	4.68933393e-02 4.00664797e-04 5.00000000e-01	12	9.70413867e+02	4.68933393e-02 4.00664797e-04 5.00000000e-01	12	6.60327933e-05	1.96867370e+00 8.79263643e-03 5.00000000e-01	999
41              	8.91304260e-03	1.56631511e-03 4.00664797e-04 5.00000000e-01	0	7.62367834e-03	4.68933393e-02 4.00664797e-04 5.00000000e-01	12	9.70413112e+02	4.68933393e-02 4.00664797e-04 5.00000000e-01	12	6.71405286e-05	1.96867370e+00 8.79263643e-03 5.00000000e-01	999
42              	8.90504615e-03	1.56631511e-03 4.00664797e-04 5.00000000e-01	0	7.62368320e-03	4.68933393e-02 4.00664797e-04 5.00000000e-01	12	9.70413012e+02	4.68933393e-02 4.00664797e-04 5.00000000e-01	12	6.81547228e-05	1.96867370e+00 8.79263643e-03 5.00000000e-01	999
43              	8.89870439e-03	1.56631511e-03 4.00664797e-04 5.00000000e-01	0	7.62369163e-03	4.68933393e-02 4.00664797e-04 5.00000000e-01	12	9.70413322e+02	4.68933393e-02 4.00664797e-04 5.00000000e-01	12	6.90814883e-05	1.96867370e+00 8.79263643e-03 5.00000000e-01	999
44              	8.89450384e-03	1.56631511e-03 4.00664797e-04 5.00000000e-01	0	7.62370214e-03	4.68933393e-02 4.00664797e-04 5.00000000e-01	12	9.70413858e+02	4.68933393e-02 4.00664797e-04 5.00000000e-01	12	6.99132895e-05	1.96867370e+00 8.79263643e-03 5.00000000e-01	999
45              	8.88966392e-03	1.56631511e-03 4.00664797e-04 5.00000000e-01	0	7.62371293e-03	4.68933393e-02 4.00664797e-04 5.00000000e-01	12	9.70414527e+02	4.68933393e-02 4.00664797e-04 5.00000000e-01	12	7.06621891e-05	1.96867370e+00 8.79263643e-03 5.00000000e-01	999
46              	8.88338748e-03	1.56631511e-03 4.00664797e-04 5.00000000e-01	0	7.62372334e-03	4.68933393e-02 4.00664797e-04 5.00000000e-01	12	9.70415213e+02	4.68933393e-02 4.00664797e-04 5.00000000e-01	12	7.14574864e-05	1.96867370e+00 9.88756135e-03 5.00000000e-01	1099
47              	8.87211303e-03	1.56631511e-03 4.00664797e-04 5.00000000e-01	0	7.62372869e-03	4.68933393e-02 4.00664797e-04 5.00000000e-01	12	9.70415876e+02	4.68933393e-02 4.00664797e-04 5.00000000e-01	12	7.22478838e-05	1.96867370e+00 9.88756135e-03 5.00000000e-01	1099
48              	8.85230092e-03	1.56631511e-03 4.00664797e-04 5.00000000e-01	0	7.62371885e-03	4.68933393e-02 4.00664797e-04 5.00000000e-01	12	9.70416217e+02	4.68933393e-02 4.00664797e-04 5.00000000e-01	12	7.29711112e-05	1.96867370e+00 9.88756135e-03 5.00000000e-01	1099
49              	8.81836081e-03	1.56631511e-03 4.00664797e-04 5.00000000e-01	0	7.62367604e-03	4.68933393e-02 4.00664797e-04 5.00000000e-01	12	9.70415591e+02	4.68933393e-02 4.00664797e-04 5.00000000e-01	12	7.36311475e-05	1.96867370e+00 9.88756135e-03 5.00000000e-01	1099
50              	8.79979941e-03	1.56631511e-03 4.00664797e-04 5.00000000e-01	0	7.62361432e-03	4.68933393e-02 4.00664797e-04 5.00000000e-01	12	9.70412866e+02	4.68933393e-02 4.00664797e-04 5.00000000e-01	12	7.42325170e-05	1.96867370e+00 9.88756135e-03 5.00000000e-01	1099
51              	8.77247776e-03	1.56631511e-03 4.00664797e-04 5.00000000e-01	0	7.62353001e-03	4.68933393e-02 4.00664797e-04 5.00000000e-01	12	9.70408937e+02	4.68933393e-02 4.00664797e-04 5.00000000e-01	12	7.47794640e-05	1.96867370e+00 9.88756135e-03 5.00000000e-01	1099
52              	8.79320849e-03	1.56631511e-03 4.00664797e-04 5.00000000e-01	0	7.62347749e-03	4.68933393e-02 4.00664797e-04 5.00000000e-01	12	9.70403572e+02	4.68933393e-02 4.00664797e-04 5.00000000e-01	12	7.52707162e-05	1.96867370e+00 9.88756135e-03 5.00000000e-01	1099
53              	8.81165035e-03	1.56631511e-03 4.00664797e-04 5.00000000e-01	0	7.62345948e-03	4.68933393e-02 4.00664797e-04 5.00000000e-01	12	9.70400229e+02	4.68933393e-02 4.00664797e-04 5.00000000e-01	12	7.57105257e-05	1.96867370e+00 9.88756135e-03 5.00000000e-01	1099
54              	8.82795656e-03	1.56631511e-03 4.00664797e-04 5.00000000e-01	0	7.62346962e-03	4.68933393e-02 4.00664797e-04 5.00000000e-01	12	9.70399083e+02	4.68933393e-02 4.00664797e-04 5.00000000e-01	12	7.61055421e-05	1.96867370e+00 9.88756135e-03 5.00000000e-01	1099
55              	8.82407028e-03	1.56631511e-03 4.00664797e-04 5.00000000e-01	0	7.62349473e-03	4.68933393e-02 4.00664797e-04 5.00000000e-01	12	9.70399728e+02	4.68933393e-02 4.00664797e-04 5.00000000e-01	12	7.64612096e-05	1.96867370e+00 9.88756135e-03 5.00000000e-01	1099
56              	8.81323839e-03	1.56631511e-03 4.00664797e-04 5.00000000e-01	0	7.62352678e-03	4.68933393e-02 4.00664797e-04 5.00000000e-01	12	9.70401326e+02	4.68933393e-02 4.00664797e-04 5.00000000e-01	12	7.67819568e-05	1.96867370e+00 9.88756135e-03 5.00000000e-01	1099
57              	8.80357848e-03	1.56631511e-03 4.00664797e-04 5.00000000e-01	0	7.62356157e-03	4.68933393e-02 4.00664797e-04 5.00000000e-01	12	9.70403366e+02	4.68933393e-02 4.00664797e-04 5.00000000e-01	12	7.70714061e-05	1.96867370e+00 9.88756135e-03 5.00000000e-01	1099
58              	8.79839932e-03	1.56631511e-03 4.00664797e-04 5.00000000e-01	0	7.62359597e-03	4.68933393e-02 4.00664797e-04 5.00000000e-01	12	9.70405580e+02	4.68933393e-02 4.00664797e-04 5.00000000e-01	12	7.73325577e-05	1.96867370e+00 9.88756135e-03 5.00000000e-01	1099
59              	8.79666240e-03	1.56631511e-03 4.00664797e-04 5.00000000e-01	0	7.62363124e-03	4.68933393e-02 4.00664797e-04 5.00000000e-01	12	9.70407770e+02	4.68933393e-02 4.00664797e-04 5.00000000e-01	12	7.75679833e-05	1.96867370e+00 9.88756135e-03 5.00000000e-01	1099
60              	8.79787102e-03	1.56631511e-03 4.00664797e-04 5.00000000e-01	0	7.62366975e-03	4.68933393e-02 4.00664797e-04 5.00000000e-01	12	9.70410014e+02	4.68933393e-02 4.00664797e-04 5.00000000e-01	12	7.77800055e-05	1.96867370e+00 9.88756135e-03 5.00000000e-01	1099
61              	8.79741527e-03	1.56631511e-03 4.00664797e-04 5.00000000e-01	0	7.62370649e-03	4.68933393e-02 4.00664797e-04 5.00000000e-01	12	9.70412466e+02	4.68933393e-02 4.00664797e-04 5.00000000e-01	12	7.79708073e-05	1.96867370e+00 9.88756135e-03 5.00000000e-01	1099
62              	8.79581212e-03	1.56631511e-03 4.00664797e-04 5.00000000e-01	0	7.62374003e-03	4.68933393e-02 4.00664797e-04 5.00000000e-01	12	9.70414804e+02	4.68933393e-02 4.00664797e-04 5.00000000e-01	12	7.81424609e-05	1.96867370e+00 9.88756135e-03 5.00000000e-01	1099
63              	8.78620382e-03	1.56631511e-03 4.00664797e-04 5.00000000e-01	0	7.62376231e-03	4.68933393e-02 4.00664797e-04 5.00000000e-01	12	9.70416939e+02	4.68933393e-02 4.00664797e-04 5.00000000e-01	12	7.83229879e-05	1.96867370e+00 1.10190469e-02 5.00000000e-01	1199
64              	8.76966591e-03	1.56631511e-03 4.00664797e-04 5.00000000e-01	0	7.62376331e-03	4.68933393e-02 4.00664797e-04 5.00000000e-01	12	9.70418357e+02	4.68933393e-02 4.00664797e-04 5.00000000e-01	12	7.85061440e-05	1.96867370e+00 1.10190469e-02 5.00000000e-01	1199
65              	8.73532043e-03	1.56631511e-03 4.00664797e-04 5.00000000e-01	0	7.62372169e-03	4.68933393e-02 4.00664797e-04 5.00000000e-01	12	9.70418420e+02	4.68933393e-02 4.00664797e-04 5.00000000e-01	12	7.86707266e-05	1.96867370e+00 1.10190469e-02 5.00000000e-01	1199
66              	8.73002137e-03	1.56631511e-03 4.00664797e-04 5.00000000e-01	0	7.62366554e-03	4.68933393e-02 4.00664797e-04 5.00000000e-01	12	9.70415771e+02	4.68933393e-02 4.00664797e-04 5.00000000e-01	12	7.88185663e-05	1.96867370e+00 1.10190469e-02 5.00000000e-01	1199
67              	8.70590672e-03	1.56631511e-03 4.00664797e-04 5.00000000e-01	0	7.62358677e-03	4.68933393e-02 4.00664797e-04 5.00000000e-01	12	9.70412197e+02	4.68933393e-02 4.00664797e-04 5.00000000e-01	12	7.89513630e-05	1.96867370e+00 1.10190469e-02 5.00000000e-01	1199
68              	8.73629935e-03	1.56631511e-03 4.00664797e-04 5.00000000e-01	0	7.62354061e-03	4.68933393e-02 4.00664797e-04 5.00000000e-01	12	9.70407184e+02	4.68933393e-02 4.00664797e-04 5.00000000e-01	12	7.90707194e-05	1.96867370e+00 1.10190469e-02 5.00000000e-01	1199
69              	8.75723440e-03	1.56631511e-03 4.00664797e-04 5.00000000e-01	0	7.62352957e-03	4.68933393e-02 4.00664797e-04 5.00000000e-01	12	9.70404246e+02	4.68933393e-02 4.00664797e-04 5.00000000e-01	12	7.91779421e-05	1.96867370e+00 1.10190469e-02 5.00000000e-01	1199
70              	8.77516060e-03	1.56631511e-03 4.00664797e-04 5.00000000e-01	0	7.62354735e-03	4.68933393e-02 4.00664797e-04 5.00000000e-01	12	9.70403544e+02	4.68933393e-02 4.00664797e-04 5.00000000e-01	12	7.92742990e-05	1.96867370e+00 1.10190469e-02 5.00000000e-01	1199
71              	8.77357893e-03	1.56631511e-03 4.00664797e-04 5.00000000e-01	0	7.62358124e-03	4.68933393e-02 4.00664797e-04 5.00000000e-01	12	9.70404675e+02	4.68933393e-02 4.00664797e-04 5.00000000e-01	12	7.93609263e-05	1.96867370e+00 1.10190469e-02 5.00000000e-01	1199
72              	8.76617978e-03	1.56631511e-03 4.00664797e-04 5.00000000e-01	0	7.62362259e-03	4.68933393e-02 4.00664797e-04 5.00000000e-01	12	9.70406832e+02	4.68933393e-02 4.00664797e-04 5.00000000e-01	12	7.94387347e-05	1.96867370e+00 1.10190469e-02 5.00000000e-01	1199
73              	8.76111734e-03	1.56631511e-03 4.00664797e-04 5.00000000e-01	0	7.62366645e-03	4.68933393e-02 4.00664797e-04 5.00000000e-01	12	9.70409464e+02	4.68933393e-02 4.00664797e-04 5.00000000e-01	12	7.95076171e-05	1.96867370e+00 1.10190469e-02 5.00000000e-01	1199
74              	8.76009726e-03	1.56631511e-03 4.00664797e-04 5.00000000e-01	0	7.62370880e-03	4.68933393e-02 4.00664797e-04 5.00000000e-01	12	9.70412256e+02	4.68933393e-02 4.00664797e-04 5.00000000e-01	12	7.95688548e-05	1.96867370e+00 1.10190469e-02 5.00000000e-01	1199
75              	8.76222999e-03	1.56631511e-03 4.00664797e-04 5.00000000e-01	0	7.62374729e-03	4.68933393e-02 4.00664797e-04 5.00000000e-01	12	9.70414951e+02	4.68933393e-02 4.00664797e-04 5.00000000e-01	12	7.96234626e-05	1.96867370e+00 1.10190469e-02 5.00000000e-01	1199
76              	8.76668276e-03	1.56631511e-03 4.00664797e-04 5.00000000e-01	0	7.62378153e-03	4.68933393e-02 4.00664797e-04 5.00000000e-01	12	9.70417401e+02	4.68933393e-02 4.00664797e-04 5.00000000e-01	12	7.96722053e-05	1.96867370e+00 1.10190469e-02 5.00000000e-01	1199
77              	8.76850301e-03	1.56631511e-03 4.00664797e-04 5.00000000e-01	0	7.62381039e-03	4.68933393e-02 4.00664797e-04 5.00000000e-01	12	9.70419580e+02	4.68933393e-02 4.00664797e-04 5.00000000e-01	12	7.97157121e-05	1.96867370e+00 1.10190469e-02 5.00000000e-01	1199
78              	8.76880512e-03	1.56631511e-03 4.00664797e-04 5.00000000e-01	0	7.62383371e-03	4.68933393e-02 4.00664797e-04 5.00000000e-01	12	9.70421416e+02	4.68933393e-02 4.00664797e-04 5.00000000e-01	12	7.97545045e-05	1.96867370e+00 1.10190469e-02 5.00000000e-01	1199
79              	8.75964106e-03	1.56631511e-03 4.00664797e-04 5.00000000e-01	0	7.62384288e-03	4.68933393e-02 4.00664797e-04 5.00000000e-01	12	9.70422901e+02	4.68933393e-02 4.00664797e-04 5.00000000e-01	12	7.97890681e-05	1.96867370e+00 1.10190469e-02 5.00000000e-01	1199
80              	8.74386110e-03	1.56631511e-03 4.00664797e-04 5.00000000e-01	0	7.62382849e-03	4.68933393e-02 4.00664797e-04 5.00000000e-01	12	9.70423484e+02	4.68933393e-02 4.00664797e-04 5.00000000e-01	12	7.98198680e-05	1.96867370e+00 1.10190469e-02 5.00000000e-01	1199
81              	8.71084109e-03	1.56631511e-03 4.00664797e-04 5.00000000e-01	0	7.62377061e-03	4.68933393e-02 4.00664797e-04 5.00000000e-01	12	9.70422568e+02	4.68933393e-02 4.00664797e-04 5.00000000e-01	12	7.98473041e-05	1.96867370e+00 1.10190469e-02 5.00000000e-01	1199
82              	8.71060240e-03	1.56631511e-03 4.00664797e-04 5.00000000e-01	0	7.62370214e-03	4.68933393e-02 4.00664797e-04 5.00000000e-01	12	9.70418885e+02	4.68933393e-02 4.00664797e-04 5.00000000e-01	12	7.98717472e-05	1.96867370e+00 1.10190469e-02 5.00000000e-01	1199
83              	8.69693569e-03	1.56631511e-03 4.00664797e-04 5.00000000e-01	0	7.62362402e-03	4.68933393e-02 4.00664797e-04 5.00000000e-01	12	9.70414527e+02	4.68933393e-02 4.00664797e-04 5.00000000e-01	12	7.98935139e-05	1.96867370e+00 1.10190469e-02 5.00000000e-01	1199
84              	8.72950492e-03	1.56631511e-03 4.00664797e-04 5.00000000e-01	0	7.62358108e-03	4.68933393e-02 4.00664797e-04 5.00000000e-01	12	9.70409555e+02	4.68933393e-02 4.00664797e-04 5.00000000e-01	12	7.99129328e-05	1.96867370e+00 1.10190469e-02 5.00000000e-01	1199
85              	8.75069060e-03	1.56631511e-03 4.00664797e-04 5.00000000e-01	0	7.62357205e-03	4.68933393e-02 4.00664797e-04 5.00000000e-01	12	9.70406822e+02	4.68933393e-02 4.00664797e-04 5.00000000e-01	12	7.99301731e-05	1.96867370e+00 1.10190469e-02 5.00000000e-01	1199
86              	8.76585935e-03	1.56631511e-03 4.00664797e-04 5.00000000e-01	0	7.62358910e-03	4.68933393e-02 4.00664797e-04 5.00000000e-01	12	9.70406247e+02	4.68933393e-02 4.00664797e-04 5.00000000e-01	12	7.99454900e-05	1.96867370e+00 1.10190469e-02 5.00000000e-01	1199
87              	8.76338892e-03	1.56631511e-03 4.00664797e-04 5.00000000e-01	0	7.62362036e-03	4.68933393e-02 4.00664797e-04 5.00000000e-01	12	9.70407332e+02	4.68933393e-02 4.00664797e-04 5.00000000e-01	12	7.99591365e-05	1.96867370e+00 1.10190469e-02 5.00000000e-01	1199
88              	8.75726717e-03	1.56631511e-03 4.00664797e-04 5.00000000e-01	0	7.62365862e-03	4.68933393e-02 4.00664797e-04 5.00000000e-01	12	9.70409322e+02	4.68933393e-02 4.00664797e-04 5.00000000e-01	12	7.99714198e-05	1.96867370e+00 1.10190469e-02 5.00000000e-01	1199
89              	8.75397977e-03	1.56631511e-03 4.00664797e-04 5.00000000e-01	0	7.62369863e-03	4.68933393e-02 4.00664797e-04 5.00000000e-01	12	9.70411757e+02	4.68933393e-02 4.00664797e-04 5.00000000e-01	12	7.99825159e-05	1.96867370e+00 1.10190469e-02 5.00000000e-01	1199
90              	8.75486222e-03	1.56631511e-03 4.00664797e-04 5.00000000e-01	0	7.62373694e-03	4.68933393e-02 4.00664797e-04 5.00000000e-01	12	9.70414303e+02	4.68933393e-02 4.00664797e-04 5.00000000e-01	12	7.99925243e-05	1.96867370e+00 1.10190469e-02 5.00000000e-01	1199
91              	8.75804826e-03	1.56631511e-03 4.00664797e-04 5.00000000e-01	0	7.62377159e-03	4.68933393e-02 4.00664797e-04 5.00000000e-01	12	9.70416742e+02	4.68933393e-02 4.00664797e-04 5.00000000e-01	12	8.00014746e-05	1.96867370e+00 1.10190469e-02 5.00000000e-01	1199
92              	8.76295079e-03	1.56631511e-03 4.00664797e-04 5.00000000e-01	0	7.62380222e-03	4.68933393e-02 4.00664797e-04 5.00000000e-01	12	9.70418947e+02	4.68933393e-02 4.00664797e-04 5.00000000e-01	12	8.00093879e-05	1.96867370e+00 1.10190469e-02 5.00000000e-01	1199
93              	8.76456841e-03	1.56631511e-03 4.00664797e-04 5.00000000e-01	0	7.62382766e-03	4.68933393e-02 4.00664797e-04 5.00000000e-01	12	9.70420896e+02	4.68933393e-02 4.00664797e-04 5.00000000e-01	12	8.00163138e-05	1.96867370e+00 1.10190469e-02 5.00000000e-01	1199
94              	8.76467287e-03	1.56631511e-03 4.00664797e-04 5.00000000e-01	0	7.62384710e-03	4.68933393e-02 4.00664797e-04 5.00000000e-01	12	9.70422516e+02	4.68933393e-02 4.00664797e-04 5.00000000e-01	12	8.00223368e-05	1.96867370e+00 1.10190469e-02 5.00000000e-01	1199
95              	8.75346682e-03	1.56631511e-03 4.00664797e-04 5.00000000e-01	0	7.62385024e-03	4.68933393e-02 4.00664797e-04 5.00000000e-01	12	9.70423753e+02	4.68933393e-02 4.00664797e-04 5.00000000e-01	12	8.00275380e-05	1.96867370e+00 1.10190469e-02 5.00000000e-01	1199
96              	8.73527529e-03	1.56631511e-03 4.00664797e-04 5.00000000e-01	0	7.62382647e-03	4.68933393e-02 4.00664797e-04 5.00000000e-01	12	9.70423953e+02	4.68933393e-02 4.00664797e-04 5.00000000e-01	12	8.00320124e-05	1.96867370e+00 1.10190469e-02 5.00000000e-01	1199
97              	8.70606350e-03	1.56631511e-03 4.00664797e-04 5.00000000e-01	0	7.62376291e-03	4.68933393e-02 4.00664797e-04 5.00000000e-01	12	9.70422440e+02	4.68933393e-02 4.00664797e-04 5.00000000e-01	12	8.00358406e-05	1.96867370e+00 1.10190469e-02 5.00000000e-01	1199
98              	8.70084284e-03	1.56631511e-03 4.00664797e-04 5.00000000e-01	0	7.62368456e-03	4.68933393e-02 4.00664797e-04 5.00000000e-01	12	9.70418394e+02	4.68933393e-02 4.00664797e-04 5.00000000e-01	12	8.00391135e-05	1.96867370e+00 1.10190469e-02 5.00000000e-01	1199
99              	8.70339249e-03	1.56631511e-03 4.00664797e-04 5.00000000e-01	0	7.62361379e-03	4.68933393e-02 4.00664797e-04 5.00000000e-01	12	9.70413408e+02	4.68933393e-02 4.00664797e-04 5.00000000e-01	12	8.00419175e-05	1.96867370e+00 1.10190469e-02 5.00000000e-01	1199
100             	8.73364162e-03	1.56631511e-03 4.00664797e-04 5.00000000e-01	0	7.62357978e-03	4.68933393e-02 4.00664797e-04 5.00000000e-01	12	9.70408904e+02	4.68933393e-02 4.00664797e-04 5.00000000e-01	12	8.00443381e-05	1.96867370e+00 1.10190469e-02 5.00000000e-01	1199
101             	8.75539511e-03	1.56631511e-03 4.00664797e-04 5.00000000e-01	0	7.62357855e-03	4.68933393e-02 4.00664797e-04 5.00000000e-01	12	9.70406739e+02	4.68933393e-02 4.00664797e-04 5.00000000e-01	12	8.00463721e-05	1.96867370e+00 1.10190469e-02 5.00000000e-01	1199
102             	8.76466807e-03	1.56631511e-03 4.00664797e-04 5.00000000e-01	0	7.62359977e-03	4.68933393e-02 4.00664797e-04 5.00000000e-01	12	9.70406661e+02	4.68933393e-02 4.00664797e-04 5.00000000e-01	12	8.00480977e-05	1.96867370e+00 1.10190469e-02 5.00000000e-01	1199
103             	8.76075436e-03	1.56631511e-03 4.00664797e-04 5.00000000e-01	0	7.62363279e-03	4.68933393e-02 4.00664797e-04 5.00000000e-01	12	9.70408012e+02	4.68933393e-02 4.00664797e-04 5.00000000e-01	12	8.00496388e-05	1.96867370e+00 1.10190469e-02 5.00000000e-01	1199
104             	8.75537675e-03	1.56631511e-03 4.00664797e-04 5.00000000e-01	0	7.62367120e-03	4.68933393e-02 4.00664797e-04 5.00000000e-01	12	9.70410113e+02	4.68933393e-02 4.00664797e-04 5.00000000e-01	12	8.00511297e-05	1.96867370e+00 1.10190469e-02 5.00000000e-01	1199
105             	8.75313091e-03	1.56631511e-03 4.00664797e-04 5.00000000e-01	0	7.62371044e-03	4.68933393e-02 4.00664797e-04 5.00000000e-01	12	9.70412558e+02	4.68933393e-02 4.00664797e-04 5.00000000e-01	12	8.00526175e-05	1.96867370e+00 1.10190469e-02 5.00000000e-01	1199
106             	8.75461406e-03	1.56631511e-03 4.00664797e-04 5.00000000e-01	0	7.62374741e-03	4.68933393e-02 4.00664797e-04 5.00000000e-01	12	9.70415055e+02	4.68933393e-02 4.00664797e-04 5.00000000e-01	12	8.00540662e-05	1.96867370e+00 1.10190469e-02 5.00000000e-01	1199
107             	8.75932680e-03	1.56631511e-03 4.00664797e-04 5.00000000e-01	0	7.62378109e-03	4.68933393e-02 4.00664797e-04 5.00000000e-01	12	9.70417408e+02	4.68933393e-02 4.00664797e-04 5.00000000e-01	12	8.00553932e-05	1.96867370e+00 1.10190469e-02 5.00000000e-01	1199
108             	8.76267611e-03	1.56631511e-03 4.00664797e-04 5.00000000e-01	0	7.62381016e-03	4.68933393e-02 4.00664797e-04 5.00000000e-01	12	9.70419552e+02	4.68933393e-02 4.00664797e-04 5.00000000e-01	12	8.00565264e-05	1.96867370e+00 1.10190469e-02 5.00000000e-01	1199
109             	8.76491552e-03	1.56631511e-03 4.00664797e-04 5.00000000e-01	0	7.62383444e-03	4.68933393e-02 4.00664797e-04 5.00000000e-01	12	9.70421401e+02	4.68933393e-02 4.00664797e-04 5.00000000e-01	12	8.00574424e-05	1.96867370e+00 1.10190469e-02 5.00000000e-01	1199