/*--------------------------------*- C++ -*----------------------------------*\
  =========                 |
  \\      /  F ield         | OpenFOAM: The Open Source CFD Toolbox
   \\    /   O peration     | Website:  https://openfoam.org
    \\  /    A nd           | Version:  12
     \\/     M anipulation  |
\*---------------------------------------------------------------------------*/
FoamFile
{
    format      ascii;
    class       volScalarField;
    location    "1400";
    object      k;
}
// * * * * * * * * * * * * * * * * * * * * * * * * * * * * * * * * * * * * * //

dimensions      [0 2 -2 0 0 0 0];

internalField   nonuniform List<scalar> 
7480
(
9.1320571e-06
9.5179229e-06
1.0336669e-05
1.2715244e-05
0.0017676048
0.0035112322
0.0049554674
0.0060289671
0.0067627197
0.0072238196
0.0074852173
0.0076042412
0.007623802
0.0075751787
0.0074810104
0.0073574618
0.0072161213
0.0070661413
0.0069172849
0.0067705256
0.0066277672
0.006489503
0.0063578424
0.0062346975
0.006121347
0.0060185642
0.0059266285
0.0058453329
0.0057741045
0.0057121224
0.0056584026
0.0056119219
0.0055717982
0.0055373003
0.0055075535
0.0054815409
0.0054581943
0.005436623
0.0054161798
0.0053964071
0.0053768956
0.0053572749
0.0053372597
0.0053166379
0.0052953052
0.0052732228
0.005250352
0.0052265571
0.0052017072
0.0051758186
0.0051490201
0.0051214354
0.0050931667
0.0050643788
0.0050353241
0.0050062086
0.004977101
0.0049480127
0.0049190027
0.0048901637
0.0048615377
0.0048331499
0.0048050725
0.0047773798
0.0047500762
0.004723155
0.0046966198
0.004670431
0.0046445204
0.0046188796
0.0045935482
0.0045685215
0.0045438004
0.0045194432
0.004495425
0.0044716794
0.0044482097
0.0044250012
0.004402031
0.0043793418
0.0043569485
0.0043348242
0.0043129712
0.0042913586
0.0042699586
0.0042487947
0.0042278783
0.004207209
0.0041867668
0.0041665282
0.0041464992
0.004126673
0.004107058
0.0040876268
0.0040683992
0.0040491601
0.0040305948
0.004010757
0.0039932953
0.0039668025
8.9479415e-06
8.8222263e-06
8.7067712e-06
8.6318696e-06
4.7739572e-05
0.00014931606
0.00031207702
0.0005202522
0.00075169241
0.00098615728
0.0012045636
0.0013985212
0.0015688327
0.0017226208
0.0018691792
0.0020188706
0.0021844773
0.0023870799
0.0026128716
0.0028404852
0.0030741704
0.0033132225
0.0035546382
0.0037950106
0.0040309575
0.0042582298
0.0044728448
0.004671512
0.0048516629
0.0050116048
0.0051506933
0.0052695155
0.0053698646
0.0054548719
0.0055250151
0.0055800671
0.0056198998
0.0056465483
0.0056616205
0.0056665451
0.0056628968
0.005652347
0.0056363431
0.0056158421
0.0055916578
0.0055645311
0.0055351562
0.0055041318
0.0054719687
0.0054393354
0.0054068342
0.005374888
0.00534376
0.0053136356
0.0052846755
0.0052567656
0.0052295201
0.0052027437
0.0051763945
0.0051505382
0.0051252746
0.0051006541
0.0050766297
0.0050531024
0.0050299909
0.0050072093
0.0049844587
0.0049615926
0.0049386584
0.004915776
0.0048930626
0.0048705984
0.0048484083
0.0048264949
0.004804724
0.0047829672
0.0047612048
0.0047395119
0.0047179846
0.0046966753
0.0046756189
0.0046547453
0.0046339475
0.0046132087
0.0045925853
0.0045721302
0.0045518905
0.0045318388
0.0045119008
0.0044920555
0.0044723354
0.0044527858
0.0044334285
0.0044141963
0.0043950969
0.0043759885
0.004357327
0.0043378169
0.0043221275
0.004288069
8.9433931e-06
8.8096704e-06
8.6758681e-06
8.5428131e-06
9.0513528e-06
1.1697499e-05
1.8654972e-05
3.1946433e-05
5.280566e-05
8.1720814e-05
0.00011804524
0.00016044843
0.00020748381
0.00025789496
0.00031073585
0.00036554459
0.0004226396
0.00048390965
0.00054884015
0.0006189303
0.00069626005
0.0007845818
0.00088741817
0.0010087731
0.0011534098
0.0013105414
0.0014770831
0.0016535405
0.0018399539
0.0020359232
0.0022406911
0.0024535028
0.0026715666
0.00288506
0.0030921766
0.0032899253
0.003473942
0.003641112
0.0037923118
0.0039272227
0.0040469621
0.0041528352
0.0042443214
0.0043204859
0.0043831158
0.0044339388
0.0044746879
0.0045040197
0.0045255422
0.0045413223
0.0045525699
0.0045601133
0.0045647126
0.0045672377
0.0045683806
0.0045683765
0.0045671821
0.0045648334
0.0045615458
0.0045576197
0.0045532647
0.0045485535
0.0045434409
0.0045378578
0.0045318068
0.0045252472
0.0045178167
0.0045095355
0.0045005973
0.0044911981
0.0044814666
0.0044714635
0.0044612132
0.0044507337
0.0044397974
0.0044283119
0.0044163686
0.0044041076
0.0043916587
0.0043790884
0.004366432
0.0043535631
0.0043403736
0.004326901
0.0043132604
0.0042995361
0.0042857866
0.0042719505
0.004257937
0.0042437617
0.0042294964
0.0042152113
0.0042009277
0.0041865618
0.0041720954
0.004157544
0.0041430677
0.0041280298
0.0041154968
0.0040889121
8.9432874e-06
8.809228e-06
8.6750695e-06
8.5409223e-06
8.4160128e-06
8.3326008e-06
8.3606515e-06
8.6167267e-06
9.2641987e-06
1.0526217e-05
1.2643206e-05
1.5842664e-05
2.0315146e-05
2.6203822e-05
3.3610423e-05
4.260889e-05
5.3273883e-05
6.575581e-05
8.0216086e-05
9.6858105e-05
0.00011593041
0.00013783097
0.00016312268
0.00019257395
0.00022725107
0.00026786014
0.00031514576
0.00037021313
0.00043469789
0.00051096469
0.00060237913
0.00071355594
0.00084291937
0.00098580697
0.0011432135
0.0013165039
0.0015063054
0.0017099899
0.0019169689
0.0021227251
0.0023236106
0.0025166304
0.0026988058
0.0028687138
0.003025002
0.0031666133
0.003294271
0.0034084188
0.0035095325
0.003596094
0.0036701871
0.0037337278
0.0037885859
0.0038367244
0.0038791626
0.0039154849
0.0039457933
0.0039717644
0.003994566
0.0040150382
0.0040335051
0.0040500491
0.0040647126
0.004077651
0.0040891019
0.0040991343
0.0041076359
0.0041146291
0.0041203196
0.0041249116
0.0041285277
0.0041312131
0.0041330113
0.00413398
0.0041338852
0.0041327387
0.004130719
0.0041279886
0.0041246716
0.0041208365
0.0041165247
0.0041115655
0.004105901
0.0040996414
0.0040929299
0.0040858616
0.0040784998
0.0040707475
0.0040625248
0.0040538961
0.004044965
0.0040358135
0.004026454
0.0040167875
0.0040068033
0.0039966086
0.0039862309
0.003975373
0.0039660483
0.0039455144
8.9432956e-06
8.8092267e-06
8.6750815e-06
8.5409328e-06
8.4069674e-06
8.273822e-06
8.1431628e-06
8.018494e-06
7.9059684e-06
7.8156191e-06
7.7621087e-06
7.7653375e-06
7.8505486e-06
8.0482299e-06
8.3942422e-06
8.929805e-06
9.7018325e-06
1.0764399e-05
1.2180584e-05
1.4021786e-05
1.6366563e-05
1.9308446e-05
2.2963593e-05
2.7478546e-05
3.3049696e-05
3.992386e-05
4.8389131e-05
5.8797369e-05
7.1600477e-05
8.7398373e-05
0.00010700772
0.00013158407
0.00016239878
0.00020071242
0.00024821641
0.0003073268
0.00038145629
0.00047524913
0.00059229908
0.00072594108
0.00087562427
0.0010401631
0.0012193566
0.0014080731
0.0016000833
0.0017911968
0.0019777179
0.0021564375
0.0023251358
0.0024838282
0.0026300289
0.0027631747
0.0028842704
0.0029953093
0.0030953727
0.0031835782
0.0032610129
0.0033294804
0.00339094
0.0034465877
0.0034967113
0.0035417694
0.003582361
0.0036192364
0.0036529258
0.0036833683
0.0037100882
0.0037339904
0.0037556404
0.0037753319
0.0037931786
0.0038092336
0.0038236379
0.0038365178
0.0038478588
0.003857711
0.0038662264
0.0038735558
0.0038798132
0.0038850714
0.0038893853
0.0038925988
0.0038947472
0.0038959921
0.0038964729
0.0038962819
0.0038954831
0.0038939564
0.0038916649
0.0038887272
0.0038852629
0.0038813543
0.0038770012
0.0038720962
0.0038666653
0.0038608659
0.0038546735
0.0038479392
0.0038421592
0.0038264388
8.9433182e-06
8.809259e-06
8.675124e-06
8.5409767e-06
8.4068798e-06
8.2729036e-06
8.1391402e-06
8.0057313e-06
7.8729112e-06
7.7410698e-06
7.6108344e-06
7.4831704e-06
7.3594882e-06
7.2417497e-06
7.1325922e-06
7.0354466e-06
6.9546831e-06
6.8958064e-06
6.8657679e-06
6.8732053e-06
6.9284738e-06
7.0442469e-06
7.2364713e-06
7.5254226e-06
7.9381462e-06
8.5104805e-06
9.2884322e-06
1.0331552e-05
1.1718908e-05
1.3556813e-05
1.5989248e-05
1.9218473e-05
2.3520687e-05
2.9266951e-05
3.6954476e-05
4.7272704e-05
6.1195352e-05
8.0103553e-05
0.00010585743
0.00014011775
0.00018485525
0.00024252422
0.00031659601
0.0004100962
0.00052525955
0.00065790389
0.00080705521
0.00097010892
0.0011440028
0.0013215711
0.0014991645
0.0016733626
0.0018414742
0.0020018284
0.0021552602
0.0022995646
0.002433047
0.0025557801
0.0026692791
0.0027736544
0.0028674408
0.0029520458
0.0030288383
0.003099212
0.0031636651
0.0032221025
0.0032745098
0.0033219069
0.0033652254
0.0034048205
0.0034409108
0.0034737898
0.0035038713
0.0035314021
0.0035560442
0.0035782256
0.0035983718
0.0036167138
0.0036333734
0.0036484411
0.0036620062
0.0036740951
0.0036847897
0.0036942169
0.0037024951
0.0037097182
0.0037159514
0.0037210966
0.0037251902
0.0037283834
0.0037307894
0.0037324849
0.003733461
0.0037336228
0.0037330502
0.0037319224
0.0037301871
0.0037277703
0.0037259004
0.0037147191
8.9433502e-06
8.8092959e-06
8.6751622e-06
8.5410144e-06
8.4069151e-06
8.2729269e-06
8.1391104e-06
8.0055258e-06
7.8722366e-06
7.7393108e-06
7.6068249e-06
7.4748682e-06
7.3435562e-06
7.2130336e-06
7.0834879e-06
6.9551641e-06
6.8283836e-06
6.7035646e-06
6.5812516e-06
6.4621476e-06
6.347133e-06
6.2373092e-06
6.1340693e-06
6.0391843e-06
5.9549725e-06
5.8845063e-06
5.8317915e-06
5.8021298e-06
5.8026982e-06
5.8433915e-06
5.9380297e-06
6.1066389e-06
6.3786349e-06
6.7966673e-06
7.4228608e-06
8.3497923e-06
9.7174158e-06
1.1738281e-05
1.473792e-05
1.9173672e-05
2.568547e-05
3.5169463e-05
4.8897879e-05
6.8549588e-05
9.6286251e-05
0.00013422003
0.00018481853
0.00025107296
0.00033685734
0.00044291909
0.00056604982
0.00070561284
0.0008592672
0.0010229485
0.0011888043
0.0013542392
0.0015166683
0.0016740254
0.0018249809
0.0019707791
0.0021091499
0.0022387247
0.0023596821
0.0024731675
0.0025783195
0.0026740071
0.0027610654
0.0028407601
0.0029140209
0.0029807555
0.0030414306
0.0030968537
0.0031477767
0.003194504
0.0032368597
0.0032752956
0.0033104532
0.0033426989
0.0033722257
0.0033992458
0.0034239917
0.0034463242
0.0034665649
0.0034850087
0.0035018198
0.0035171138
0.0035309598
0.0035433957
0.0035545118
0.0035644234
0.0035732259
0.0035809967
0.0035877352
0.0035933974
0.0035981079
0.0036020389
0.0036051224
0.0036073247
0.0036097711
0.0036031879
8.9433923e-06
8.8093434e-06
8.6752134e-06
8.5410684e-06
8.4069711e-06
8.2729833e-06
8.139165e-06
8.0055749e-06
7.8722726e-06
7.7393177e-06
7.60677e-06
7.4746894e-06
7.343136e-06
7.2121718e-06
7.0818586e-06
6.9522608e-06
6.8234462e-06
6.6954874e-06
6.5684643e-06
6.4424673e-06
6.3175994e-06
6.1939797e-06
6.071749e-06
5.9510765e-06
5.8321713e-06
5.7152973e-06
5.6007883e-06
5.489073e-06
5.3807154e-06
5.276474e-06
5.1773859e-06
5.0849222e-06
5.0012179e-06
4.9293722e-06
4.8739308e-06
4.8417402e-06
4.8433673e-06
4.8954117e-06
5.0249817e-06
5.2758932e-06
5.7176516e-06
6.4621717e-06
7.6909819e-06
9.6928284e-06
1.2916111e-05
1.8015476e-05
2.5933045e-05
3.8005644e-05
5.6117003e-05
8.2545649e-05
0.00011955548
0.00016976864
0.00023635972
0.00032383908
0.0004294661
0.00055122119
0.00068816879
0.00083775835
0.00099520777
0.0011515859
0.0013065341
0.0014584076
0.0016059375
0.0017488207
0.0018875854
0.002019709
0.0021442435
0.0022615012
0.0023720989
0.0024732059
0.0025659012
0.0026513929
0.0027304342
0.0028029753
0.0028690495
0.0029293249
0.0029845744
0.0030351521
0.0030813912
0.0031237684
0.0031627448
0.0031982659
0.0032306325
0.0032602871
0.0032875285
0.0033125365
0.0033354531
0.0033562461
0.0033751688
0.003392459
0.0034082421
0.0034226136
0.0034356199
0.0034473254
0.0034578278
0.0034672729
0.003475592
0.0034827828
0.0034900069
0.0034882145
8.9434411e-06
8.8093987e-06
8.6752733e-06
8.5411312e-06
8.4070353e-06
8.273047e-06
8.139227e-06
8.005635e-06
7.8723304e-06
7.739373e-06
7.6068222e-06
7.474737e-06
7.3431758e-06
7.2121968e-06
7.081857e-06
6.9522126e-06
6.8233188e-06
6.6952299e-06
6.5679993e-06
6.44168e-06
6.3163241e-06
6.1919835e-06
6.0687095e-06
5.946554e-06
5.8255702e-06
5.7058134e-06
5.5873428e-06
5.4702222e-06
5.3545236e-06
5.2403303e-06
5.1277434e-06
5.0168911e-06
4.9079438e-06
4.801134e-06
4.6967867e-06
4.5953724e-06
4.4975951e-06
4.4045345e-06
4.3179263e-06
4.2406021e-06
4.1771278e-06
4.1350467e-06
4.1270742e-06
4.1749198e-06
4.3162172e-06
4.6154489e-06
5.1823448e-06
6.204107e-06
7.9969911e-06
1.1066678e-05
1.6169347e-05
2.4410614e-05
3.7371544e-05
5.7381875e-05
8.6823919e-05
0.00012818338
0.00018437142
0.00025927341
0.00035529891
0.00046717261
0.00059367148
0.00073300903
0.00088146651
0.0010325603
0.0011806392
0.0013269059
0.0014702347
0.0016094883
0.0017461215
0.0018773969
0.0020020263
0.0021200237
0.0022319113
0.0023355623
0.0024310505
0.0025193022
0.0026008751
0.0026756324
0.00274405
0.0028068769
0.0028647071
0.0029175335
0.0029657229
0.0030098873
0.003050438
0.0030876548
0.0031218533
0.0031531264
0.0031817237
0.0032079625
0.0032320898
0.0032542633
0.0032745216
0.0032929345
0.0033097866
0.0033252382
0.003339238
0.0033518455
0.0033643851
0.0033675838
8.9434951e-06
8.8094597e-06
8.6753391e-06
8.5412001e-06
8.4071055e-06
8.2731172e-06
8.1392963e-06
8.0057027e-06
7.8723964e-06
7.739437e-06
7.6068839e-06
7.4747961e-06
7.3432322e-06
7.2122501e-06
7.0819067e-06
6.952258e-06
6.8233588e-06
6.6952624e-06
6.5680213e-06
6.4416862e-06
6.3163068e-06
6.191931e-06
6.0686047e-06
5.9463726e-06
5.8252777e-06
5.7053614e-06
5.5866643e-06
5.4692251e-06
5.3530816e-06
5.2382705e-06
5.1248277e-06
5.0127895e-06
4.902193e-06
4.793078e-06
4.6854882e-06
4.5794747e-06
4.475101e-06
4.372452e-06
4.2716497e-06
4.1728806e-06
4.0764345e-06
3.9827782e-06
3.8926897e-06
3.807496e-06
3.7295244e-06
3.6628699e-06
3.6147286e-06
3.5979583e-06
3.6358554e-06
3.7707835e-06
4.0786563e-06
4.6943717e-06
5.8562865e-06
7.9844408e-06
1.1742551e-05
1.8135555e-05
2.8631846e-05
4.539094e-05
7.1227631e-05
0.00010870899
0.00016064311
0.00023077679
0.00032133105
0.00042992782
0.00055208025
0.00068616103
0.00082866981
0.0009750272
0.0011173787
0.0012584862
0.0013973523
0.0015328036
0.0016662166
0.0017951003
0.0019180966
0.0020350089
0.0021460938
0.0022490038
0.0023442429
0.0024325663
0.0025143758
0.0025894174
0.0026582322
0.0027214534
0.0027794268
0.0028325474
0.0028813566
0.0029261019
0.0029670156
0.0030045217
0.0030390253
0.0030707728
0.0030998968
0.0031265258
0.0031509886
0.0031735241
0.0031941801
0.0032129183
0.0032314121
0.003239646
8.9435532e-06
8.8095251e-06
8.6754098e-06
8.541274e-06
8.4071811e-06
8.2731931e-06
8.1393713e-06
8.0057764e-06
7.8724681e-06
7.7395065e-06
7.606951e-06
7.4748607e-06
7.3432943e-06
7.2123096e-06
7.0819636e-06
6.9523123e-06
6.8234103e-06
6.6953112e-06
6.5680672e-06
6.4417291e-06
6.3163463e-06
6.1919665e-06
6.0686355e-06
5.9463976e-06
5.8252951e-06
5.7053689e-06
5.5866581e-06
5.4692003e-06
5.3530308e-06
5.2381834e-06
5.1246899e-06
5.0125805e-06
4.9018837e-06
4.7926266e-06
4.684835e-06
4.5785328e-06
4.473743e-06
4.3704883e-06
4.2687914e-06
4.1686775e-06
4.0701762e-06
3.9733253e-06
3.878179e-06
3.7848215e-06
3.6933938e-06
3.6041401e-06
3.5174894e-06
3.434212e-06
3.3557189e-06
3.2846372e-06
3.2258528e-06
3.1884058e-06
3.189204e-06
3.2605867e-06
3.4633346e-06
3.9102151e-06
4.8087812e-06
6.5380693e-06
9.7506511e-06
1.5468546e-05
2.5204555e-05
4.1208514e-05
6.640485e-05
0.00010386154
0.00015641645
0.00022801801
0.00031908359
0.00042885344
0.00055100563
0.0006832881
0.00082223775
0.00096396469
0.0011019282
0.0012382457
0.0013727367
0.0015045844
0.0016345161
0.0017599594
0.0018798331
0.0019941047
0.0021024351
0.0022027756
0.0022960016
0.0023825293
0.0024622792
0.0025356245
0.0026031675
0.0026652149
0.0027220073
0.0027740635
0.0028218836
0.0028657931
0.002906096
0.0029430255
0.002976916
0.0030081109
0.0030368218
0.0030629699
0.0030886086
0.0031028875
8.9436147e-06
8.8095941e-06
8.6754843e-06
8.5413519e-06
8.4072609e-06
8.2732734e-06
8.139451e-06
8.0058546e-06
7.8725446e-06
7.7395808e-06
7.6070229e-06
7.4749302e-06
7.3433613e-06
7.2123739e-06
7.0820252e-06
6.9523711e-06
6.8234662e-06
6.6953643e-06
6.5681173e-06
6.4417763e-06
6.3163905e-06
6.1920078e-06
6.0686739e-06
5.946433e-06
5.8253277e-06
5.7053987e-06
5.5866851e-06
5.4692243e-06
5.3530516e-06
5.2382005e-06
5.1247027e-06
5.012588e-06
4.9018843e-06
4.7926181e-06
4.6848137e-06
4.5784937e-06
4.4736785e-06
4.3703868e-06
4.2686354e-06
4.1684399e-06
4.0698144e-06
3.9727715e-06
3.8773228e-06
3.7834802e-06
3.691257e-06
3.6006707e-06
3.5117483e-06
3.4245343e-06
3.339109e-06
3.2556225e-06
3.1743602e-06
3.0958603e-06
3.0211491e-06
2.9522233e-06
2.8929759e-06
2.850941e-06
2.8407451e-06
2.8912656e-06
3.0596562e-06
3.4569146e-06
4.2950497e-06
5.9747334e-06
9.205089e-06
1.514887e-05
2.5535281e-05
4.2973922e-05
7.0582231e-05
0.00011184167
0.00016987989
0.0002476939
0.00034436551
0.00045871355
0.00058360852
0.00071571846
0.00085217639
0.00098947183
0.0011229136
0.0012551376
0.0013854124
0.0015140777
0.0016400129
0.0017612523
0.0018772031
0.0019878846
0.0020915045
0.0021878927
0.0022775381
0.0023605547
0.0024369997
0.0025073502
0.0025720474
0.0026314176
0.002685935
0.0027359521
0.0027817898
0.0028238907
0.0028626472
0.0028979866
0.0029323687
0.0029543786
8.943679e-06
8.809666e-06
8.6755617e-06
8.5414331e-06
8.4073441e-06
8.2733572e-06
8.1395344e-06
8.0059369e-06
7.8726251e-06
7.7396592e-06
7.6070991e-06
7.4750039e-06
7.3434323e-06
7.2124422e-06
7.0820907e-06
6.9524336e-06
6.8235259e-06
6.6954209e-06
6.5681711e-06
6.4418271e-06
6.3164384e-06
6.1920527e-06
6.0687159e-06
5.9464723e-06
5.8253643e-06
5.7054327e-06
5.5867166e-06
5.4692535e-06
5.3530785e-06
5.2382253e-06
5.1247255e-06
5.0126089e-06
4.9019034e-06
4.7926354e-06
4.6848291e-06
4.578507e-06
4.4736893e-06
4.3703946e-06
4.2686393e-06
4.1684384e-06
4.069805e-06
3.9727503e-06
3.8772836e-06
3.7834126e-06
3.6911432e-06
3.6004804e-06
3.5114281e-06
3.4239894e-06
3.338168e-06
3.25397e-06
3.1714081e-06
3.0905082e-06
3.0113235e-06
2.933963e-06
2.8586498e-06
2.7858314e-06
2.7164021e-06
2.6521679e-06
2.5968109e-06
2.557795e-06
2.5502006e-06
2.6049601e-06
2.7855962e-06
3.2212016e-06
4.1672614e-06
6.1215572e-06
9.9688882e-06
1.7176209e-05
2.9956227e-05
5.1391234e-05
8.4924745e-05
0.00013436506
0.00020332582
0.00029111596
0.00039695967
0.00051755369
0.000645007
0.00077689131
0.00091098327
0.0010433095
0.0011726874
0.0013010662
0.00142775
0.0015528971
0.001674198
0.0017905769
0.0019019667
0.0020073061
0.0021053945
0.0021966907
0.0022814256
0.0023595873
0.0024316317
0.0024979336
0.0025587638
0.0026146106
0.0026659854
0.0027128558
0.0027580712
0.002790069
8.9437458e-06
8.8097402e-06
8.6756416e-06
8.5415168e-06
8.40743e-06
8.2734441e-06
8.139621e-06
8.0060224e-06
7.872709e-06
7.7397412e-06
7.6071787e-06
7.475081e-06
7.3435068e-06
7.212514e-06
7.0821596e-06
6.9524996e-06
6.8235888e-06
6.6954809e-06
6.568228e-06
6.441881e-06
6.3164892e-06
6.1921005e-06
6.0687607e-06
5.9465141e-06
5.8254033e-06
5.705469e-06
5.5867505e-06
5.4692849e-06
5.3531076e-06
5.2382523e-06
5.1247505e-06
5.0126321e-06
4.901925e-06
4.7926555e-06
4.6848478e-06
4.5785243e-06
4.4737054e-06
4.3704094e-06
4.2686531e-06
4.168451e-06
4.0698164e-06
3.9727603e-06
3.8772919e-06
3.7834186e-06
3.6911461e-06
3.6004785e-06
3.5114185e-06
3.4239669e-06
3.3381233e-06
3.2538856e-06
3.1712513e-06
3.090217e-06
3.0107796e-06
2.9329378e-06
2.8566958e-06
2.7820699e-06
2.7091018e-06
2.6378871e-06
2.5686352e-06
2.5017918e-06
2.4382899e-06
2.3800939e-06
2.3313722e-06
2.3009485e-06
2.3074286e-06
2.3907562e-06
2.635979e-06
3.2224493e-06
4.5180128e-06
7.2317289e-06
1.2612156e-05
2.2685569e-05
4.0495794e-05
6.9523153e-05
0.00011355689
0.00017695897
0.00025972314
0.00036060759
0.00047710773
0.0006021474
0.00073073311
0.00086153992
0.00099212376
0.001119511
0.0012454794
0.0013699572
0.0014936547
0.0016141544
0.0017300874
0.0018412562
0.0019468702
0.0020453079
0.0021370549
0.002222347
0.0023010778
0.0023736402
0.0024405488
0.0025017267
0.0025602906
0.0026050117
8.9438146e-06
8.8098163e-06
8.6757235e-06
8.5416027e-06
8.4075183e-06
8.2735334e-06
8.1397103e-06
8.0061108e-06
7.8727959e-06
7.7398261e-06
7.6072614e-06
7.4751613e-06
7.3435844e-06
7.2125888e-06
7.0822315e-06
6.9525685e-06
6.8236547e-06
6.6955437e-06
6.5682877e-06
6.4419375e-06
6.3165427e-06
6.1921508e-06
6.068808e-06
5.9465584e-06
5.8254447e-06
5.7055077e-06
5.5867865e-06
5.4693184e-06
5.3531388e-06
5.2382813e-06
5.1247775e-06
5.0126572e-06
4.9019484e-06
4.7926772e-06
4.6848681e-06
4.5785432e-06
4.4737231e-06
4.370426e-06
4.2686686e-06
4.1684655e-06
4.06983e-06
3.972773e-06
3.8773038e-06
3.7834297e-06
3.6911563e-06
3.6004879e-06
3.5114269e-06
3.4239741e-06
3.3381287e-06
3.2538884e-06
3.1712497e-06
3.0902078e-06
3.0107564e-06
2.9328879e-06
2.8565943e-06
2.7818671e-06
2.7086981e-06
2.6370812e-06
2.5670158e-06
2.4985149e-06
2.4316198e-06
2.3664342e-06
2.3031982e-06
2.2424477e-06
2.185354e-06
2.1345031e-06
2.0956168e-06
2.0813201e-06
2.1196116e-06
2.2727516e-06
2.677845e-06
3.6318384e-06
5.750213e-06
1.0172382e-05
1.880945e-05
3.4724466e-05
6.1581608e-05
0.00010326649
0.00016428291
0.00024514207
0.00034408185
0.00045829159
0.00058202951
0.00070845005
0.00083648344
0.00096482787
0.0010902129
0.0012137289
0.0013361345
0.0014581062
0.0015772028
0.0016919865
0.001802186
0.001906994
0.0020047531
0.0020959061
0.002180777
0.0022588705
0.0023333488
0.0023938444
8.9438854e-06
8.8098942e-06
8.6758071e-06
8.5416903e-06
8.4076084e-06
8.2736248e-06
8.1398018e-06
8.0062016e-06
7.8728854e-06
7.7399137e-06
7.6073469e-06
7.4752443e-06
7.3436647e-06
7.2126663e-06
7.0823061e-06
6.9526401e-06
6.8237232e-06
6.695609e-06
6.5683499e-06
6.4419965e-06
6.3165985e-06
6.1922035e-06
6.0688575e-06
5.9466049e-06
5.8254882e-06
5.7055484e-06
5.5868244e-06
5.4693538e-06
5.3531718e-06
5.238312e-06
5.124806e-06
5.0126838e-06
4.9019732e-06
4.7927004e-06
4.6848897e-06
4.5785635e-06
4.473742e-06
4.3704437e-06
4.2686852e-06
4.1684812e-06
4.0698447e-06
3.9727868e-06
3.8773167e-06
3.7834418e-06
3.6911677e-06
3.6004985e-06
3.5114368e-06
3.4239834e-06
3.3381373e-06
3.2538964e-06
3.171257e-06
3.0902142e-06
3.0107615e-06
2.9328913e-06
2.8565945e-06
2.7818615e-06
2.7086813e-06
2.6370419e-06
2.566931e-06
2.498336e-06
2.4312453e-06
2.3656501e-06
2.3015486e-06
2.2389569e-06
2.1779288e-06
2.1186059e-06
2.0613284e-06
2.0068832e-06
1.9570734e-06
1.9160526e-06
1.8933748e-06
1.9110342e-06
2.0202559e-06
2.3386594e-06
3.1306198e-06
4.9760328e-06
8.9999732e-06
1.7144996e-05
3.258668e-05
5.9237806e-05
0.00010115644
0.00016287605
0.00024461303
0.00034418164
0.00045804505
0.00058111819
0.00070589527
0.00083154249
0.00095743952
0.0010806517
0.001201905
0.0013224881
0.0014425793
0.0015598321
0.0016729779
0.0017816178
0.0018848259
0.001980839
0.0020728873
0.0021518666
8.9439578e-06
8.8099735e-06
8.6758921e-06
8.5417794e-06
8.4077002e-06
8.2737179e-06
8.1398953e-06
8.0062945e-06
7.872977e-06
7.7400037e-06
7.6074347e-06
7.4753297e-06
7.3437475e-06
7.2127463e-06
7.0823832e-06
6.9527141e-06
6.8237941e-06
6.6956767e-06
6.5684143e-06
6.4420578e-06
6.3166565e-06
6.1922582e-06
6.068909e-06
5.9466533e-06
5.8255336e-06
5.7055909e-06
5.5868642e-06
5.4693909e-06
5.3532064e-06
5.2383442e-06
5.1248361e-06
5.0127118e-06
4.9019994e-06
4.7927249e-06
4.6849126e-06
4.5785849e-06
4.4737621e-06
4.3704626e-06
4.2687029e-06
4.1684978e-06
4.0698603e-06
3.9728015e-06
3.8773305e-06
3.7834547e-06
3.6911799e-06
3.60051e-06
3.5114476e-06
3.4239934e-06
3.3381467e-06
3.2539052e-06
3.1712652e-06
3.0902218e-06
3.0107686e-06
2.9328978e-06
2.8566005e-06
2.7818668e-06
2.7086856e-06
2.6370446e-06
2.5669309e-06
2.4983305e-06
2.4312288e-06
2.3656104e-06
2.3014597e-06
2.2387615e-06
2.1775022e-06
2.1176727e-06
2.0592755e-06
2.0023401e-06
1.9469589e-06
1.8933734e-06
1.842176e-06
1.7947816e-06
1.7545919e-06
1.729774e-06
1.7398054e-06
1.8319936e-06
2.1195505e-06
2.866841e-06
4.674588e-06
8.7488805e-06
1.7211485e-05
3.3518509e-05
6.1861637e-05
0.00010651532
0.00017149023
0.00025667719
0.00035892277
0.00047379092
0.00059639925
0.00071973028
0.00084331026
0.00096672748
0.0010877265
0.0012068666
0.0013258719
0.0014439682
0.0015591466
0.001670083
0.0017789461
0.0018771793
8.9440318e-06
8.8100542e-06
8.6759783e-06
8.5418698e-06
8.4077933e-06
8.2738125e-06
8.1399904e-06
8.0063892e-06
7.8730706e-06
7.7400956e-06
7.6075246e-06
7.4754172e-06
7.3438325e-06
7.2128285e-06
7.0824624e-06
6.9527903e-06
6.8238671e-06
6.6957466e-06
6.5684809e-06
6.4421211e-06
6.3167165e-06
6.1923149e-06
6.0689625e-06
5.9467036e-06
5.8255808e-06
5.7056351e-06
5.5869056e-06
5.4694295e-06
5.3532425e-06
5.2383779e-06
5.1248675e-06
5.0127412e-06
4.9020268e-06
4.7927506e-06
4.6849367e-06
4.5786074e-06
4.4737832e-06
4.3704823e-06
4.2687215e-06
4.1685153e-06
4.0698767e-06
3.9728169e-06
3.877345e-06
3.7834684e-06
3.6911927e-06
3.600522e-06
3.5114589e-06
3.424004e-06
3.3381567e-06
3.2539145e-06
3.1712739e-06
3.09023e-06
3.0107762e-06
2.9329049e-06
2.8566071e-06
2.7818729e-06
2.7086912e-06
2.6370498e-06
2.5669355e-06
2.4983345e-06
2.4312319e-06
2.365612e-06
2.3014583e-06
2.238754e-06
2.1774815e-06
2.1176229e-06
2.0591606e-06
2.0020783e-06
1.9463625e-06
1.8920087e-06
1.8390338e-06
1.7875056e-06
1.7376185e-06
1.6898772e-06
1.6455406e-06
1.6077599e-06
1.5844162e-06
1.5950618e-06
1.6889942e-06
1.9888975e-06
2.791707e-06
4.7868627e-06
9.3778129e-06
1.9048736e-05
3.7666136e-05
6.974232e-05
0.0001197694
0.00019050667
0.0002810741
0.00038722057
0.00050366808
0.00062561909
0.00074747368
0.00086917037
0.00099014432
0.0011089088
0.0012261906
0.0013435952
0.0014617976
0.001574034
8.9441073e-06
8.8101362e-06
8.6760657e-06
8.5419612e-06
8.4078876e-06
8.2739084e-06
8.1400869e-06
8.0064855e-06
7.8731659e-06
7.7401894e-06
7.6076164e-06
7.4755068e-06
7.3439195e-06
7.2129127e-06
7.0825437e-06
6.9528685e-06
6.8239422e-06
6.6958184e-06
6.5685494e-06
6.4421862e-06
6.3167783e-06
6.1923734e-06
6.0690177e-06
5.9467555e-06
5.8256296e-06
5.7056809e-06
5.5869484e-06
5.4694696e-06
5.35328e-06
5.2384129e-06
5.1249003e-06
5.0127718e-06
4.9020554e-06
4.7927773e-06
4.6849617e-06
4.5786309e-06
4.4738052e-06
4.370503e-06
4.2687409e-06
4.1685335e-06
4.0698939e-06
3.9728331e-06
3.8773602e-06
3.7834827e-06
3.6912061e-06
3.6005347e-06
3.5114707e-06
3.4240152e-06
3.3381671e-06
3.2539243e-06
3.1712831e-06
3.0902385e-06
3.0107842e-06
2.9329123e-06
2.856614e-06
2.7818793e-06
2.7086971e-06
2.6370553e-06
2.5669406e-06
2.4983392e-06
2.4312362e-06
2.3656159e-06
2.3014617e-06
2.2387568e-06
2.1774833e-06
2.1176229e-06
2.0591568e-06
2.002066e-06
1.9463309e-06
1.8919322e-06
1.8388516e-06
1.7870737e-06
1.73659e-06
1.6874114e-06
1.6395964e-06
1.5933241e-06
1.549084e-06
1.5081492e-06
1.4738328e-06
1.4547532e-06
1.4731587e-06
1.5872314e-06
1.9470203e-06
2.9275505e-06
5.4019979e-06
1.1126454e-05
2.317588e-05
4.5908507e-05
8.409783e-05
0.00014226231
0.00022081655
0.00031789732
0.00042803966
0.00054600297
0.00066693685
0.00078720782
0.00090726504
0.0010255506
0.0011444181
0.0012604016
8.9441842e-06
8.8102192e-06
8.676154e-06
8.5420537e-06
8.4079829e-06
8.2740055e-06
8.1401847e-06
8.0065831e-06
7.8732627e-06
7.7402848e-06
7.60771e-06
7.4755981e-06
7.3440083e-06
7.2129988e-06
7.0826269e-06
6.9529486e-06
6.8240191e-06
6.695892e-06
6.5686197e-06
6.4422532e-06
6.3168419e-06
6.1924336e-06
6.0690745e-06
5.9468091e-06
5.82568e-06
5.7057281e-06
5.5869928e-06
5.4695111e-06
5.3533188e-06
5.2384492e-06
5.1249342e-06
5.0128035e-06
4.9020851e-06
4.7928051e-06
4.6849878e-06
4.5786553e-06
4.4738281e-06
4.3705245e-06
4.2687611e-06
4.1685525e-06
4.0699118e-06
3.9728499e-06
3.877376e-06
3.7834975e-06
3.6912201e-06
3.6005478e-06
3.5114831e-06
3.4240268e-06
3.338178e-06
3.2539345e-06
3.1712927e-06
3.0902475e-06
3.0107925e-06
2.9329201e-06
2.8566212e-06
2.781886e-06
2.7087034e-06
2.6370611e-06
2.566946e-06
2.4983442e-06
2.4312408e-06
2.3656201e-06
2.3014656e-06
2.2387603e-06
2.1774865e-06
2.1176257e-06
2.0591592e-06
2.0020677e-06
1.9463313e-06
1.8919299e-06
1.8388432e-06
1.7870506e-06
1.7365318e-06
1.6872673e-06
1.6392404e-06
1.5924416e-06
1.5468805e-06
1.5026168e-06
1.4598415e-06
1.4190969e-06
1.3818482e-06
1.3520576e-06
1.340436e-06
1.3757973e-06
1.536036e-06
2.0279552e-06
3.3793889e-06
6.7920963e-06
1.4600521e-05
3.0708029e-05
5.986885e-05
0.00010703876
0.0001751063
0.00026297168
0.00036684757
0.00048046078
0.00059965285
0.00071879335
0.00083974578
0.00095725968
8.9442623e-06
8.8103033e-06
8.6762432e-06
8.5421469e-06
8.408079e-06
8.2741035e-06
8.1402836e-06
8.006682e-06
7.8733609e-06
7.7403817e-06
7.6078051e-06
7.4756911e-06
7.3440988e-06
7.2130866e-06
7.0827117e-06
6.9530304e-06
6.8240977e-06
6.6959673e-06
6.5686917e-06
6.4423217e-06
6.316907e-06
6.1924953e-06
6.0691329e-06
5.9468641e-06
5.8257318e-06
5.7057768e-06
5.5870384e-06
5.4695539e-06
5.3533588e-06
5.2384867e-06
5.1249692e-06
5.0128363e-06
4.9021158e-06
4.7928339e-06
4.6850147e-06
4.5786806e-06
4.4738518e-06
4.3705468e-06
4.268782e-06
4.1685722e-06
4.0699303e-06
3.9728673e-06
3.8773924e-06
3.7835129e-06
3.6912346e-06
3.6005614e-06
3.5114959e-06
3.4240388e-06
3.3381893e-06
3.2539451e-06
3.1713026e-06
3.0902567e-06
3.0108012e-06
2.9329281e-06
2.8566287e-06
2.781893e-06
2.7087098e-06
2.6370671e-06
2.5669515e-06
2.4983493e-06
2.4312455e-06
2.3656244e-06
2.3014696e-06
2.2387639e-06
2.1774898e-06
2.1176288e-06
2.059162e-06
2.0020701e-06
1.9463335e-06
1.8919318e-06
1.8388445e-06
1.787051e-06
1.73653e-06
1.6872605e-06
1.6392211e-06
1.592391e-06
1.5467502e-06
1.5022818e-06
1.4589769e-06
1.4168485e-06
1.3759693e-06
1.3365747e-06
1.2993516e-06
1.2662262e-06
1.2426011e-06
1.2436016e-06
1.3116323e-06
1.5646963e-06
2.3229623e-06
4.3994203e-06
9.5460541e-06
2.1001144e-05
4.3446082e-05
8.1936167e-05
0.00014098089
0.00022049138
0.00031815821
0.00042747569
0.00054587285
0.00066441147
8.9443417e-06
8.8103885e-06
8.6763332e-06
8.5422409e-06
8.408176e-06
8.2742023e-06
8.1403834e-06
8.0067819e-06
7.8734603e-06
7.7404799e-06
7.6079016e-06
7.4757855e-06
7.3441908e-06
7.2131759e-06
7.0827982e-06
6.9531138e-06
6.8241779e-06
6.6960442e-06
6.5687652e-06
6.4423919e-06
6.3169737e-06
6.1925586e-06
6.0691927e-06
5.9469205e-06
5.8257849e-06
5.7058268e-06
5.5870853e-06
5.4695979e-06
5.3534e-06
5.2385252e-06
5.1250053e-06
5.01287e-06
4.9021474e-06
4.7928635e-06
4.6850425e-06
4.5787066e-06
4.4738763e-06
4.3705697e-06
4.2688036e-06
4.1685925e-06
4.0699494e-06
3.9728852e-06
3.8774093e-06
3.7835288e-06
3.6912495e-06
3.6005755e-06
3.5115091e-06
3.4240512e-06
3.3382009e-06
3.253956e-06
3.1713128e-06
3.0902663e-06
3.0108101e-06
2.9329364e-06
2.8566365e-06
2.7819002e-06
2.7087165e-06
2.6370732e-06
2.5669573e-06
2.4983546e-06
2.4312504e-06
2.3656289e-06
2.3014737e-06
2.2387677e-06