/*--------------------------------*- C++ -*----------------------------------*\
  =========                 |
  \\      /  F ield         | OpenFOAM: The Open Source CFD Toolbox
   \\    /   O peration     | Website:  https://openfoam.org
    \\  /    A nd           | Version:  12
     \\/     M anipulation  |
\*---------------------------------------------------------------------------*/
FoamFile
{
    format      ascii;
    class       volScalarField;
    location    "1400";
    object      omega;
}
// * * * * * * * * * * * * * * * * * * * * * * * * * * * * * * * * * * * * * //

dimensions      [0 0 -1 0 0 0 0];

internalField   nonuniform List<scalar> 
7480
(
99.668428
99.668428
99.668428
99.668428
467.26819
658.57217
782.37666
862.96863
913.97481
944.61961
961.55848
969.17325
970.41891
967.3193
961.28796
953.317
944.11564
934.25275
924.3597
914.50127
904.80855
895.32096
886.19213
877.5678
869.55384
862.22264
855.61192
849.72344
844.5304
839.98536
836.02617
832.58532
829.60357
827.0313
824.80683
822.85668
821.10245
819.47828
817.93607
816.44167
814.96434
813.47603
811.955
810.38489
808.75745
807.06938
805.31731
803.49041
801.57807
799.58093
797.50835
795.36934
793.1713
790.92663
788.65468
786.3714
784.08209
781.78762
779.4926
777.2044
774.92643
772.66077
770.41334
768.19027
765.99211
763.81854
761.67006
759.54367
757.43398
755.34044
753.26645
751.21176
749.17661
747.16599
745.17801
743.20735
741.25443
739.31814
737.39672
735.49385
733.61095
731.7459
729.89902
728.06786
726.25015
724.44801
722.66253
720.89382
719.14027
717.39997
715.67354
713.9605
712.26166
710.57474
708.90154
707.22345
705.60007
703.86168
702.32809
699.99452
53.580957
53.535196
53.495917
53.440142
60.466284
74.60499
96.919763
126.88761
163.04745
203.1747
244.37231
284.24821
318.84965
346.7922
369.58158
388.71384
404.52597
415.61795
423.14956
426.11253
427.71354
430.61919
434.66139
439.16424
443.57103
447.34628
450.1076
451.63748
451.84118
450.72658
448.38827
444.99551
440.78076
436.04676
430.91423
425.37226
419.36216
413.12102
406.81141
400.55045
394.4369
388.54653
382.93105
377.60829
372.57891
367.83936
363.38418
359.25495
355.43943
351.91414
348.65634
345.64161
342.8414
340.2248
337.76785
335.44818
333.23989
331.128
329.10197
327.15699
325.29094
323.49721
321.76757
320.09612
318.4789
316.90916
315.37676
313.8794
312.41702
310.98929
309.59771
308.24413
306.92479
305.63824
304.38335
303.15431
301.94888
300.76998
299.61675
298.48816
297.3861
296.30713
295.24809
294.20965
293.19054
292.19069
291.21093
290.24971
289.30587
288.37772
287.46516
286.5688
285.68796
284.82129
283.96977
283.12468
282.30334
281.48136
280.74424
279.43449
52.974384
52.262312
51.55858
50.863124
50.289518
50.016776
50.328771
51.531342
53.894387
57.794916
63.497978
71.147369
80.69633
91.942684
104.62311
118.44125
133.06885
147.69356
160.98712
172.87798
183.72113
194.30292
205.13853
216.59967
228.96659
240.39266
249.98711
257.91459
264.26268
269.05525
272.25589
273.77088
273.51832
271.63444
268.57657
265.10756
261.9609
258.98529
256.07014
253.12384
250.15774
247.21084
244.19291
240.96285
237.61094
234.21155
230.82817
227.53261
224.39297
221.41548
218.59337
215.91746
213.38042
210.97906
208.70973
206.57494
204.57551
202.69429
200.91634
199.23212
197.63465
196.11473
194.662
193.26788
191.92713
190.6341
189.38028
188.1658
186.99149
185.85654
184.75997
183.70089
182.67554
181.6815
180.71499
179.77238
178.85334
177.95992
177.09179
176.24775
175.42803
174.62907
173.84792
173.08514
172.34071
171.61461
170.90706
170.21618
169.54042
168.87882
168.23154
167.59906
166.98076
166.37524
165.7823
165.19909
164.62958
164.07388
163.56215
162.79173
52.965624
52.234553
51.502605
50.770293
50.039662
49.315437
48.607186
47.930857
47.30924
46.78048
46.393075
46.204527
46.277434
46.674985
47.459934
48.697213
50.459439
52.804065
55.76119
59.359189
63.631191
68.638862
74.466997
81.220989
89.0249
97.347679
106.0617
115.07601
124.34397
133.86327
143.6685
153.79953
162.76208
170.00386
175.6366
179.9205
183.16391
185.40911
186.67288
186.937
186.22645
184.69811
182.81708
181.00243
179.15999
177.22772
175.21713
173.17811
171.12176
168.90425
166.59771
164.2598
161.93871
159.67986
157.49663
155.38787
153.36287
151.4283
149.58767
147.84274
146.18762
144.61148
143.10352
141.65743
140.27137
138.9441
137.68095
136.47467
135.32037
134.21408
133.15234
132.13175
131.14793
130.19798
129.27843
128.38803
127.52696
126.69568
125.893
125.11704
124.36686
123.63847
122.92968
122.24133
121.57358
120.92603
120.29833
119.68804
119.09346
118.51421
117.95052
117.40261
116.86966
116.34991
115.84298
115.34769
114.86533
114.39752
113.96885
113.37264
52.965673
52.234187
51.501487
50.767908
50.033779
49.299485
48.565525
47.832695
47.102123
46.375558
45.655612
44.946024
44.251916
43.579895
42.93818
42.337052
41.78916
41.310205
40.917873
40.632238
40.475723
40.475218
40.664232
41.085049
41.795234
42.849347
44.310134
46.253257
48.773212
51.988795
56.048226
61.138146
67.35206
74.201479
81.59746
89.490351
97.886957
106.82553
115.66947
123.16488
129.20261
133.76134
137.05104
139.39742
140.88617
141.55965
141.47888
140.74252
139.61496
138.43202
137.12733
135.6914
134.16348
132.62258
131.00681
129.27295
127.47352
125.66075
123.88202
122.15759
120.47995
118.84564
117.2567
115.72135
114.24533
112.82663
111.46777
110.16816
108.92671
107.74043
106.60449
105.51357
104.46397
103.45326
102.48714
101.56315
100.67709
99.826538
99.00892
98.221513
97.462419
96.728783
96.019841
95.335939
94.676295
94.039706
93.425119
92.829823
92.252494
91.693123
91.151667
90.627812
90.12037
89.627391
89.148635
88.683517
88.232448
87.795902
87.397037
86.874054
52.965923
52.234468
51.501769
50.768139
50.033879
49.299304
48.564727
47.830469
47.096866
46.36428
45.633104
44.903792
44.176875
43.452992
42.732913
42.017584
41.308176
40.606148
39.913318
39.231925
38.564671
37.914817
37.286273
36.684084
36.11499
35.587667
35.113557
34.706886
34.386543
34.177994
34.115843
34.248642
34.641235
35.362105
36.500573
38.179436
40.571025
43.91492
48.50191
54.362347
61.062324
68.466236
76.461152
84.814372
92.496097
98.95885
104.10878
107.9011
110.48149
112.2357
113.24603
113.59192
113.36469
112.69947
111.87594
110.94704
109.88962
108.72571
107.51964
106.26507
104.89843
103.4684
102.0168
100.58017
99.167019
97.76994
96.389206
95.039961
93.735446
92.476889
91.261066
90.085776
88.952449
87.86101
86.81503
85.81411
84.85582
83.938048
83.057723
82.211528
81.396991
80.617548
79.871892
79.157049
78.470493
77.810205
77.174421
76.561222
75.97011
75.400713
74.852133
74.32335
73.812838
73.318837
72.841343
72.379778
71.933909
71.503089
71.109197
70.617189
52.966215
52.234802
51.502114
50.76848
50.034208
49.299615
48.565014
47.830711
47.097021
46.364259
45.632741
44.902782
44.174713
43.448862
42.725559
42.005139
41.287948
40.574349
39.864722
39.15948
38.459067
37.763967
37.07472
36.391938
35.716355
35.048859
34.390549
33.742801
33.107406
32.486764
31.88415
31.303952
30.752691
30.239182
29.776213
29.382557
29.085902
28.928379
28.97497
29.31339
30.048113
31.326466
33.36336
36.456622
40.954446
46.675155
53.272145
60.544797
68.154876
75.11943
80.979141
85.667346
89.163656
91.507118
93.008074
93.885995
94.223581
94.102356
93.629575
92.999396
92.269669
91.432256
90.514158
89.562344
88.545609
87.431914
86.256918
85.060662
83.866529
82.670307
81.477068
80.299063
79.148326
78.027731
76.934853
75.873126
74.848187
73.861933
72.912483
71.997825
71.117122
70.273478
69.466866
68.694786
67.954772
67.244643
66.561957
65.908539
65.283897
64.685287
64.11054
63.557996
63.026143
62.514166
62.021821
61.547969
61.091658
60.651532
60.248366
59.76462
52.966539
52.235173
51.502511
50.76889
50.034622
49.300024
48.56541
47.83109
47.097377
46.364587
45.633037
44.903043
44.17492
43.448985
42.725547
42.004914
41.287388
40.573268
39.862848
39.156419
38.454268
37.756678
37.063927
36.376291
35.694045
35.01747
34.346854
33.682494
33.024709
32.373847
31.730306
31.094559
30.467211
29.849044
29.241112
28.6449
28.062598
27.497549
26.955105
26.443291
25.974258
25.567352
25.254601
25.087647
25.149563
25.549174
26.432088
28.014811
30.614414
34.6164
39.836082
45.933626
52.674391
59.361931
65.221898
70.029968
73.774346
76.491362
78.245372
79.281691
79.835455
79.983186
79.800563
79.388778
78.875703
78.270129
77.574648
76.821982
76.031553
75.131516
74.162382
73.16232
72.151231
71.128422
70.094465
69.061747
68.044128
67.04643
66.070336
65.11947
64.19798
63.305657
62.443823
61.614333
60.817516
60.052078
59.31597
58.610969
57.937533
57.293254
56.675777
56.083252
55.515063
54.972608
54.453428
53.955403
53.476849
53.016364
52.594196
52.103377
52.966881
52.235567
51.502937
50.769332
50.03507
49.300468
48.565843
47.83151
47.097783
46.364979
45.633414
44.903405
44.175267
43.449315
42.725858
42.005202
41.287648
40.573491
39.863022
39.156526
38.454279
37.756554
37.063611
36.375704
35.69308
35.015979
34.344634
33.679269
33.020104
32.367348
31.721209
31.081887
30.449586
29.82451
29.206874
28.59691
27.99488
27.401108
26.816027
26.24025
25.674676
25.12068
24.580509
24.057956
23.559685
23.09622
22.684594
22.35496
22.159776
22.18735
22.556571
23.433324
25.072861
27.843927
32.025991
37.174058
43.066449
49.142416
54.686067
59.250689
62.818449
65.452416
67.237429
68.292357
68.85755
69.087849
69.039474
68.76994
68.385819
67.917834
67.36345
66.7491
66.092081
65.35077
64.539405
63.689779
62.81804
61.92379
61.01592
60.108232
59.210858
58.323701
57.450328
56.597892
55.770392
54.968604
54.193295
53.445113
52.725257
52.033907
51.370526
50.733959
50.123474
49.540445
48.983319
48.449952
47.93804
47.447514
46.998843
46.487323
52.967238
52.235977
51.50338
50.769793
50.035539
49.300937
48.566306
47.831963
47.098223
46.365405
45.633826
44.903801
44.175648
43.449679
42.726204
42.005531
41.287959
40.573784
39.863297
39.156781
38.454514
37.756767
37.063799
36.375864
35.693208
35.016066
34.344669
33.679238
33.019984
32.36711
31.72081
31.081269
30.448662
29.82316
29.204924
28.594104
27.990846
27.395288
26.807564
26.227813
25.656182
25.092836
24.537982
23.991903
23.455044
22.928112
22.412276
21.909564
21.423668
20.961494
20.534772
20.163009
19.883002
19.76168
19.908269
20.466446
21.660213
23.830094
27.384289
31.927636
37.23587
42.705929
47.697765
51.832458
55.007468
57.324561
58.895043
59.828219
60.299941
60.503693
60.481321
60.273147
59.963284
59.577015
59.115389
58.596012
58.031718
57.383377
56.675922
55.933766
55.168575
54.378733
53.575031
52.769461
51.967898
51.174687
50.396084
49.634975
48.892845
48.172591
47.476838
46.806034
46.159589
45.537892
44.941868
44.370747
43.822671
43.296879
42.815696
42.266736
52.967607
52.236398
51.503835
50.770269
50.036025
49.301424
48.566789
47.832437
47.098686
46.365855
45.634261
44.904222
44.176053
43.450069
42.726579
42.005889
41.288301
40.57411
39.863606
39.157073
38.45479
37.757025
37.064041
36.376089
35.693416
35.016258
34.344845
33.679398
33.020127
32.367236
31.720916
31.081353
30.44872
29.823186
29.204907
28.594031
27.990694
27.395025
26.807139
26.227149
25.655155
25.091252
24.535523
23.988051
23.448915
22.918205
22.396028
21.882534
21.377961
20.882722
20.397561
19.923792
19.463888
19.022687
18.609591
18.240372
17.944518
17.77995
17.851016
18.298141
19.344189
21.334833
24.627892
28.891882
33.870906
38.789603
43.140473
46.682999
49.320949
51.187952
52.418033
53.126382
53.468688
53.589202
53.537167
53.344426
53.070483
52.726671
52.317485
51.85457
51.344347
50.75859
50.127586
49.465302
48.774794
48.064694
47.346732
46.626659
45.907615
45.196173
44.49821
43.81631
43.15237
42.507873
41.884767
41.284277
40.706416
40.148732
39.63623
39.045454
52.967985
52.236827
51.504301
50.770756
50.036524
49.301926
48.567287
47.832928
47.099167
46.366323
45.634716
44.904663
44.176479
43.450479
42.726973
42.006267
41.288662
40.574454
39.863933
39.157383
38.455083
37.757301
37.0643
36.376332
35.693643
35.01647
34.345042
33.679581
33.020297
32.367393
31.721062
31.081488
30.448845
29.8233
29.205012
28.594125
27.990777
27.395095
26.807195
26.227185
25.655166
25.091226
24.535444
23.987888
23.448619
22.917691
22.39515
21.881035
21.375383
20.878231
20.389629
19.909656
19.43845
18.976281
18.52369
18.081706
17.652318
17.23961
16.852042
16.504818
16.22656
16.076391
16.16165
16.636648
17.754113
19.905699
23.241305
27.472199
32.097314
36.429946
40.081415
42.931562
44.965215
46.335708
47.193179
47.656449
47.848433
47.880963
47.779449
47.582822
47.320117
46.9955
46.615656
46.190034
45.701201
45.159876
44.582691
43.976677
43.346625
42.702636
42.052392
41.400629
40.753473
40.115066
39.488282
38.876778
38.283257
37.705349
37.17099
36.54948
52.968372
52.237263
51.504773
50.771252
50.037032
49.302439
48.567798
47.833432
47.099662
46.366807
45.635186
44.905119
44.17692
43.450905
42.727383
42.00666
41.289038
40.574813
39.864276
39.157709
38.455392
37.757593
37.064575
36.37659
35.693885
35.016697
34.345254
33.679779
33.020482
32.367566
31.721223
31.081638
30.448985
29.823432
29.205134
28.59424
27.990884
27.395195
26.807288
26.227272
25.655247
25.0913
24.535509
23.987944
23.448664
22.91772
22.395155
21.881003
21.375288
20.878026
20.38923
19.908904
19.43705
18.973668
18.518767
18.072384
17.634604
17.205633
16.785934
16.376467
15.979179
15.598264
15.242722
14.929397
14.692234
14.603423
14.785216
15.429911
16.85399
19.471341
23.044635
27.306415
31.461824
35.044268
37.890626
39.984002
41.390168
42.285535
42.800187
43.048298
43.109774
43.060401
42.914664
42.70571
42.440266
42.121939
41.755503
41.339956
40.868857
40.358817
39.819126
39.254482
38.674556
38.085971
37.492963
36.901946
36.318298
35.741174
35.202002
34.567664
52.968767
52.237705
51.505252
50.771754
50.037548
49.302961
48.568319
47.833948
47.100169
46.367303
45.63567
44.905589
44.177375
43.451344
42.727806
42.007067
41.289429
40.575187
39.864632
39.158048
38.455713
37.757897
37.064861
36.37686
35.694139
35.016935
34.345477
33.679988
33.020677
32.367748
31.721394
31.081798
30.449135
29.823573
29.205266
28.594364
27.991001
27.395304
26.807391
26.22737
25.655338
25.091386
24.53559
23.98802
23.448735
22.917786
22.395216
21.881058
21.375336
20.878065
20.389255
19.908907
19.437015
18.973563
18.518532
18.071898
17.633634
17.203712
16.782115
16.368852
15.963987
15.567716
15.180528
14.803497
14.438947
14.092187
13.774693
13.508267
13.342507
13.378368
13.771812
14.796158
16.895288
20.003324
23.890738
27.800174
31.232021
33.966997
35.987462
37.357185
38.21845
38.724926
38.977686
39.056352
39.024613
38.906932
38.732975
38.507785
38.23367
37.912042
37.547589
37.128298
36.670828
36.184846
35.674034
35.146956
34.611008
34.067175
33.550039
32.928729
52.969169
52.238153
51.505735
50.772262
50.03807
49.30349
48.568849
47.834474
47.100687
46.36781
45.636165
44.90607
44.177843
43.451796
42.728242
42.007486
41.289831
40.575571
39.864999
39.158398
38.456045
37.758211
37.065158
36.37714
35.694402
35.017182
34.34571
33.680206
33.020882
32.36794
31.721573
31.081966
30.449293
29.823721
29.205406
28.594495
27.991124
27.395421
26.807501
26.227473
25.655436
25.091478
24.535677
23.988102
23.448813
22.917859
22.395285
21.881123
21.375396
20.878122
20.389308
19.908955
19.437058
18.973599
18.518558
18.071908
17.633615
17.203638
16.781933
16.368451
15.963143
15.565961
15.176871
14.79587
14.423032
14.058607
13.703248
13.358421
13.027589
12.718949
12.449389
12.255786
12.223336
12.492105
13.309622
15.097224
17.916562
21.522419
25.173552
28.387451
30.928069
32.785621
34.04108
34.820075
35.27391
35.498311
35.573588
35.541996
35.438833
35.2866
35.087939
34.84316
34.553752
34.224928
33.844384
33.427532
32.984298
32.514884
32.055213
31.483223
52.969577
52.238605
51.506222
50.772774
50.038598
49.304026
48.569387
47.835008
47.101214
46.368328
45.636671
44.906563
44.178321
43.452259
42.728689
42.007916
41.290244
40.575967
39.865377
39.158758
38.456387
37.758535
37.065465
36.377429
35.694674
35.017438
34.345951
33.680432
33.021093
32.368138
31.721759
31.082141
30.449457
29.823875
29.205551
28.594632
27.991253
27.395543
26.807616
26.227582
25.655539
25.091575
24.535769
23.988189
23.448895
22.917937
22.395358
21.881192
21.375461
20.878183
20.389365
19.909009
19.437108
18.973646
18.518602
18.071948
17.633651
17.203669
16.781955
16.368459
15.963125
15.56589
15.176689
14.795456
14.422125
14.056634
13.698946
13.349071
13.00714
12.673578
12.349454
12.037331
11.743679
11.482884
11.286164
11.230024
11.450465
12.190363
13.875111
16.554093
19.952314
23.348911
26.285907
28.56504
30.196239
31.281134
31.941904
32.317197
32.49687
32.552234
32.51252
32.415138
32.274301
32.091935
31.865864
31.599398
31.294913
30.940456
30.576038
30.098215
52.969992
52.239062
51.506713
50.77329
50.03913
49.304567
48.569931
47.83555
47.101749
46.368854
45.637186
44.907065
44.178809
43.452732
42.729145
42.008356
41.290666
40.576372
39.865764
39.159127
38.456738
37.758869
37.06578
36.377727
35.694955
35.017703
34.346199
33.680665
33.021312
32.368344
31.721952
31.082322
30.449627
29.824035
29.205702
28.594774
27.991387
27.395669
26.807736
26.227695
25.655646
25.091676
24.535865
23.98828
23.44898
22.918018
22.395435
21.881264
21.375529
20.878247
20.389426
19.909066
19.437162
18.973696
18.518649
18.071992
17.633692
17.203707
16.78199
16.368491
15.963153
15.565913
15.176704
14.795457
14.422096
14.056543
13.698718
13.348541
13.005936
12.670842
12.343235
12.023188
11.71101
11.407575
11.11505
10.839156
10.593413
10.407972
10.359825
10.589153
11.353457
13.104547
15.765312
18.984643
22.101931
24.7169
26.684834
28.050436
28.935688
29.462038
29.749951
29.880096
29.907714
29.855089
29.758029
29.622015
29.449231
29.232646
28.999304
28.662952
52.970413
52.239523
51.507208
50.773809
50.039666
49.305113
48.57048
47.836098
47.102292
46.369389
45.63771
44.907576
44.179306
43.453214
42.729612
42.008806
41.291098
40.576786
39.86616
39.159505
38.457098
37.75921
37.066103
36.378032
35.695243
35.017974
34.346454
33.680905
33.021538
32.368555
31.722151
31.082508
30.449803
29.824201
29.205858
28.594921
27.991526
27.3958
26.807859
26.227812
25.655757
25.091781
24.535964
23.988373
23.449069
22.918102
22.395514
21.881339
21.3756
20.878314
20.389489
19.909126
19.437217
18.973749
18.518698
18.072038
17.633735
17.203747
16.782028
16.368526
15.963186
15.565943
15.176732
14.795482
14.422117
14.056559
13.698725
13.348529
13.005884
12.670699
12.342884
12.022353
11.70903
11.402874
11.103929
10.812456
10.529264
10.256452
9.9998131
9.7734515
9.6104681
9.5975878
9.8898328
10.782219
12.67103
15.41707
18.464604
21.261093
23.504926
25.127758
26.213154
26.895179
27.288758
27.491417
27.573507
27.571062
27.504403
27.403704
27.280657
27.09467
52.97084
52.239989
51.507705
50.774331
50.040206
49.305663
48.571034
47.836651
47.102841
46.36993
45.638241
44.908095
44.179811
43.453705
42.730086
42.009264
41.291539
40.577209
39.866565
39.159892
38.457466
37.75956
37.066435
36.378345
35.695539
35.018252
34.346716
33.681151
33.021769
32.368773
31.722355
31.0827
30.449984
29.824371
29.206018
28.595071
27.991668
27.395934
26.807986
26.227932
25.65587
25.091889
24.536065
23.988469
23.44916
22.918188
22.395595
21.881416
21.375673
20.878383
20.389554
19.909187
19.437275
18.973803
18.518749
18.072086
17.63378
17.203789
16.782067
16.368563
15.963219
15.565975
15.176761
14.795509
14.422142
14.056582
13.698745
13.348547
13.005899
12.670707
12.342879
12.022319
11.708927
11.402608
11.103267
10.810823
10.525225
10.246511
9.9749467
9.7113902
9.4581744
9.2220177
9.0193038
8.8915759
8.9413676
9.360352
10.516176
12.631566
15.441729
18.265833
20.672708
22.504251
23.770014
24.585808
25.080158
25.353245
25.479243
25.516905
25.494415
25.423918
52.971273
52.240459
51.508206
50.774857
50.040748
49.306216
48.571593
47.83721
47.103397
46.370478
45.63878
44.908622
44.180325
43.454203
42.730569
42.00973
41.291988
40.57764
39.866978
39.160286
38.457842
37.759917
37.066773
36.378666
35.695841
35.018537
34.346985
33.681404
33.022006
32.368995
31.722564
31.082897
30.450169
29.824545
29.206182
28.595226
27.991814
27.396072
26.808117
26.228055
25.655987
25.091999
24.53617
23.988568
23.449253
22.918276
22.395679
21.881495
21.375747
20.878453
20.38962
19.909249
19.437334
18.973858
18.518801
18.072135
17.633825
17.203831
16.782107
16.3686
15.963254
15.566007
15.176791
14.795537
14.422168
14.056606
13.698768
13.348568
13.005918
12.670724
12.342894
12.02233
11.708934
11.402604
11.103239
10.810736
10.524993
10.245912
9.9734079
9.7074331
9.4480373
9.1955485
8.9510112
8.7174173
8.5034062
8.3302862
8.2579322
8.4161183
9.0603265
10.609243
12.991801
15.699826
18.189813
20.167236
21.584401
22.517553
23.097532
23.431174
23.61092
23.689486
52.971712
52.240932
51.50871
50.775384
50.041293
49.306773
48.572156
47.837774
47.103957
46.371032
45.639325
44.909156
44.180846
43.45471
42.73106
42.010204
41.292445
40.578079
39.867399
39.160688
38.458225
37.760281
37.067119
36.378993
35.69615
35.018829
34.347259
33.681662
33.022249
32.369224
31.722779
31.083099
30.450358
29.824724
29.20635
28.595385
27.991964
27.396213
26.80825
26.228182
25.656106
25.092112
24.536276
23.988669
23.449349
22.918367
22.395764
21.881575
21.375824
20.878525
20.389688
19.909313
19.437394
18.973914
18.518854
18.072184
17.633872
17.203875
16.782147
16.368638
15.963289
15.56604
15.176822
14.795565
14.422194
14.05663
13.69879
13.348589
13.005937
12.670742
12.34291
12.022345
11.708947
11.402616
11.103249
10.810741
10.524989
10.245885
9.9733238
9.7072006
9.4474164
9.1938884
8.9465805
8.7055854
8.4713685
8.2453699
8.0320352
7.8438424
7.7133148
7.7312256
8.0771598
9.115102
11.049252
13.57032
16.05701
18.119434
19.646332
20.67317
21.329627
21.730203
52.972157
52.24141
51.509217
50.775914
50.041841
49.307332
48.572721
47.838341
47.104522
46.371592
45.639876
44.909696
44.181373
43.455223
42.731558
42.010685
41.292909
40.578525
39.867826
39.161097
38.458615
37.760652
37.067471
36.379326
35.696465
35.019126
34.34754
33.681926
33.022497
32.369457
31.722998
31.083305
30.450553
29.824906
29.206522
28.595547
27.992116
27.396357
26.808386
26.22831
25.656228
25.092227
24.536385
23.988772
23.449446
22.918459
22.395851
21.881657
21.375901
20.878598
20.389757
19.909378
19.437455
18.973972
18.518908
18.072235
17.633919
17.203919
16.782189
16.368676
15.963325
15.566073
15.176853
14.795594
14.422221
14.056655
13.698813
13.34861
13.005956
12.67076
12.342927
12.02236
11.708961
11.402628
11.10326
10.810751
10.524997
10.245891
9.9733261
9.7071934
9.4473854
9.1937938
8.9463136
8.7048478
8.4693221
8.2397279
8.016252
7.7996463
7.5922362
7.4014063
7.2467693
7.187035
7.3554109
8.0266959
9.5728184
11.862342
14.268454
16.357275
17.956317
19.079783
52.972607
52.241892
51.509726
50.776447
50.042391
49.307894
48.57329
47.838912
47.105092
46.372156
45.640432
44.910242
44.181907
43.455743
42.732062
42.011174
41.29338
40.578978
39.868261
39.161513
38.459012
37.76103
37.067829
36.379666
35.696787
35.01943
34.347826
33.682195
33.022751
32.369695
31.723222
31.083516
30.450751
29.825093
29.206698
28.595712
27.992272
27.396504
26.808525
26.228442
25.656352
25.092344
24.536496
23.988877
23.449545
22.918552
22.39594
21.881741
21.37598
20.878672
20.389827
19.909444
19.437516
18.97403
18.518962
18.072286
17.633967
17.203964
16.78223
16.368715
15.963361
15.566107
15.176884
14.795623
14.422248
14.05668
13.698836
13.348631
13.005976
12.670778
12.342943
12.022375
11.708975
11.402641
11.103271
10.810761
10.525006
10.245899
9.9733332
9.7071992
9.4473891
9.1937931
8.9463021
8.7048073
8.4692006
8.2393788
8.0152509
7.7967623
7.5839653
7.3772472
7.1779332
6.9904359
6.8278052
6.7271789
6.7915468
7.2362059
8.4686989
10.472483
12.78423
14.908406
52.973062
52.242378
51.510239
50.776981
50.042943
49.308458
48.573861
47.839487
47.105665
46.372725
45.640993
44.910793
44.182446
43.456268
42.732573
42.011668
41.293857
40.579438
39.868702
39.161935
38.459415
37.761414
37.068194
36.380012
35.697114
35.019739
34.348117
33.68247
33.023009
32.369938
31.723451
31.083731
30.450953
29.825283
29.206877
28.595881
27.992431
27.396654
26.808667
26.228575
25.656478
25.092463
24.536609
23.988983
23.449646
22.918647
22.396029
21.881825
21.376059
20.878747
20.389897
19.90951
19.437579
18.974088
18.519017
18.072337
17.634015
17.204008
16.782272
16.368754
15.963398
15.56614
15.176915
14.795652
14.422275
14.056704
13.698859
13.348652
13.005995
12.670795
12.342959
12.02239
11.708988
11.402653
11.103282
10.810771
10.525015
10.245907
9.9733402
9.7072054
9.4473944
9.1937975
8.9463053
8.7048082
8.4691963
8.2393603
8.0151919
7.7965853
7.5834418
7.3756845
7.1733
6.9764796
6.786037
6.6046923
6.4414816
6.3219474
6.3274698
6.6252704
7.6790448
9.4404338
52.973523
52.242867
51.510754
50.777518
50.043496
49.309024
48.574435
47.840063
47.106241
46.373297
45.641558
44.911349
44.182991
43.4568
42.733089
42.012169
41.294341
40.579904
39.86915
39.162364
38.459825
37.761804
37.068565
36.380364
35.697447
35.020054
34.348414
33.68275
33.023273
32.370186
31.723684
31.08395
30.451159
29.825477
29.20706
28.596053
27.992593
27.396807
26.808811
26.228711
25.656607
25.092585
24.536723
23.989091
23.449748
22.918743
22.39612
21.881911
21.37614
20.878823
20.389969
19.909577
19.437642
18.974147
18.519072
18.072389
17.634063
17.204053
16.782314
16.368793
15.963434
15.566174
15.176946
14.795681
14.422301
14.056729
13.698881
13.348673
13.006014
12.670813
12.342975
12.022404
11.709001
11.402665
11.103293
10.810781
10.525024
10.245915
9.9733469
9.7072112
9.4473994
9.1938019
8.9463089
8.7048111
8.4691983
8.239361
8.0151899
7.7965757
7.5834107
7.3755884
7.1730071
6.975579
6.7832576
6.5961265
6.4147046
6.2408046
6.0810945
5.9536675
5.9468955
6.1466615
52.973989
52.243361
51.511272
50.778057
50.044052
49.309591
48.57501
47.840643
47.10682
46.373873
45.642128
44.91191
44.18354
43.457336
42.733611
42.012675
41.29483
40.580376
39.869603
39.162798
38.46024
37.7622
37.068942
36.380721
35.697785
35.020373
34.348716
33.683034
33.023541
32.370438
31.723921
31.084173
30.451369
29.825674
29.207245
28.596228
27.992758
27.396962
26.808957
26.228849
25.656737
25.092708
24.536839
23.989201
23.449851
22.918841
22.396212
21.881998
21.376222
20.8789
20.390041
19.909645
19.437705
18.974207
18.519128
18.072441
17.634111
17.204099
16.782356
16.368832
15.96347
15.566207
15.176977
14.795709
14.422327
14.056753
13.698903
13.348693
13.006032
12.670829
12.34299
12.022418
11.709014
11.402676
11.103303
10.81079
10.525032
10.245922
9.973353
9.7072165
9.447404
9.1938057
8.9463121
8.7048137
8.4692003
8.2393624
8.0151907
7.7965757
7.583409
7.3755824
7.1729888
6.9755227
6.7830815
6.5955722
6.4129304
6.2351819
6.0626833
5.8966717
5.7452172
5.6149064
52.97446
52.243858
51.511792
50.778597
50.044608
49.31016
48.575587
47.841224
47.107402
46.374451
45.6427
44.912474
44.184093
43.457877
42.734138
42.013186
41.295325
40.580853
39.870062
39.163238
38.460661
37.762602
37.069324
36.381084
35.698129
35.020698
34.349023
33.683323
33.023813
32.370695
31.724162
31.084399
30.451582
29.825875
29.207434
28.596406
27.992925
27.39712
26.809106
26.22899
25.656869
25.092832
24.536957
23.989311
23.449955
22.918939
22.396305
21.882085
21.376304
20.878977
20.390114
19.909713
19.437769
18.974266
18.519183
18.072493
17.63416
17.204144
16.782398
16.368871
15.963506
15.566241
15.177008
14.795737
14.422353
14.056777
13.698925
13.348713
13.00605
12.670846
12.343005
12.022431
11.709026
11.402687
11.103312
10.810798
10.525039
10.245928
9.9733585
9.7072212
9.4474079
9.1938089
8.9463146
8.7048156
8.4692017
8.2393633
8.015191
7.7965756
7.5834085
7.3755813
7.1729867
6.975518
6.7830692
6.5955361
6.4128168
6.2348161
6.0614612
5.8927438
5.7291624
5.5710449
52.974935
52.244358
51.512315
50.77914
50.045166
49.31073
48.576165
47.841806
47.107985
46.375032
45.643276
44.913041
44.184651
43.458422
42.734669
42.013702
41.295824
40.581335
39.870526
39.163684
38.461087
37.763008
37.069711
36.381451
35.698477
35.021028
34.349334
33.683617
33.02409
32.370955
31.724407
31.08463
30.451799
29.826079
29.207626
28.596586
27.993095
27.39728
26.809256
26.229131
25.657003
25.092958
24.537075
23.989423
23.450061
22.919039
22.396398
21.882173
21.376386
20.879055
20.390186
19.909781
19.437833
18.974326
18.519239
18.072545
17.634208
17.204188
16.782439
16.368909
15.963541
15.566273
15.177038
14.795765
14.422379
14.0568
13.698946
13.348732
13.006068
12.670862
12.343019
12.022444
11.709037
11.402697
11.103321
10.810806
10.525046
10.245934
9.9733633
9.7072252
9.4474111
9.1938114
8.9463165
8.7048168
8.4692024
8.2393635
8.0151907
7.7965749
7.5834073
7.3755798
7.1729848
6.9755157
6.7830663
6.5955316
6.4128072
6.2347908
6.0613805
5.8924842
5.7280254
5.5679955
52.975415
52.244862
51.51284
50.779684
50.045726
49.311301
48.576745
47.84239
47.10857
46.375615
45.643854
44.913612
44.185211
43.458971
42.735204
42.014222
41.296328
40.581821
39.870995
39.164134
38.461518
37.76342
37.070103
36.381824
35.698831
35.021362
34.34965
33.683915
33.024371
32.371219
31.724656
31.084864
30.452019
29.826286
29.20782
28.596769
27.993267
27.397442
26.809409
26.229275
25.657138
25.093086
24.537195
23.989536
23.450167
22.919139
22.396493
21.882261
21.376469
20.879133
20.390259
19.90985
19.437897
18.974385
18.519295
18.072596
17.634256
17.204233
16.782481
16.368947
15.963576
15.566305
15.177068
14.795792
14.422403
14.056823
13.698967
13.34875
13.006084
12.670877
12.343033
12.022456
11.709047
11.402706
11.103329
10.810813
10.525051
10.245939
9.9733673
9.7072284
9.4474135
9.1938131
8.9463175
8.7048173
8.4692023
8.2393628
8.0151897
7.7965734
7.5834055
7.3755776
7.1729823
6.9755129
6.7830632
6.5955282
6.4128034
6.2347858
6.0613728
5.8924661
5.7279483
5.5677886
52.9759
52.245369
51.513368
50.780229
50.046286
49.311873
48.577324
47.842974
47.109156
46.376199
45.644433
44.914184
44.185774
43.459522
42.735743
42.014746
41.296836
40.582312
39.871467
39.164588
38.461953
37.763836
37.070499
36.382201
35.699188
35.021701
34.34997
33.684217
33.024655
32.371487
31.724908
31.085101
30.452242
29.826495
29.208017
28.596954
27.993441
27.397606
26.809563
26.22942
25.657275
25.093214
24.537316
23.98965
23.450274
22.919239
22.396587
21.88235
21.376553
20.879211
20.390332
19.909918
19.43796
18.974445
18.51935
18.072647
17.634303
17.204277
16.782521
16.368985
15.963611
15.566337
15.177097
14.795818
14.422427
14.056844