/*--------------------------------*- C++ -*----------------------------------*\
  =========                 |
  \\      /  F ield         | OpenFOAM: The Open Source CFD Toolbox
   \\    /   O peration     | Website:  https://openfoam.org
    \\  /    A nd           | Version:  12
     \\/     M anipulation  |
\*---------------------------------------------------------------------------*/
FoamFile
{
    format      ascii;
    class       volVectorField;
    location    "1400";
    object      U;
}
// * * * * * * * * * * * * * * * * * * * * * * * * * * * * * * * * * * * * * //

dimensions      [0 1 -1 0 0 0 0];

internalField   nonuniform List<vector> 
7480
(
(0.98222857 0.00075703347 0)
(0.9697037 0.0014019386 0)
(0.95647069 0.0017613434 0)
(0.94236543 0.0020803341 0)
(0.92839404 0.0024834107 0)
(0.91491831 0.0027336984 0)
(0.90196146 0.0027630695 0)
(0.88951119 0.0026980688 0)
(0.87747464 0.0025891742 0)
(0.86575686 0.0024382375 0)
(0.85415694 0.0022628857 0)
(0.84258647 0.0020983522 0)
(0.83101307 0.0019450783 0)
(0.81944148 0.0018011133 0)
(0.80789516 0.0016651065 0)
(0.79641627 0.0015347843 0)
(0.78507786 0.001403114 0)
(0.77403026 0.0012725789 0)
(0.76315406 0.0011558722 0)
(0.75262368 0.0010453529 0)
(0.7425041 0.0009392659 0)
(0.73285036 0.00083780499 0)
(0.72371858 0.00074151871 0)
(0.71515696 0.00065128669 0)
(0.7072083 0.00056639425 0)
(0.69991241 0.00048699835 0)
(0.69328114 0.00041475809 0)
(0.68730017 0.00034949105 0)
(0.68194281 0.00029113715 0)
(0.67717284 0.00024063803 0)
(0.67294347 0.00019785683 0)
(0.66920456 0.00016161804 0)
(0.66591675 0.00013082674 0)
(0.66303691 0.0001054033 0)
(0.66050833 8.4509174e-05 0)
(0.65826866 6.815993e-05 0)
(0.65625568 5.6663239e-05 0)
(0.65441229 4.9155487e-05 0)
(0.65270228 4.3663353e-05 0)
(0.65109882 4.0228666e-05 0)
(0.64956657 3.9290834e-05 0)
(0.64806904 4.0046436e-05 0)
(0.64657863 4.2007766e-05 0)
(0.64507585 4.4649791e-05 0)
(0.64355123 4.7397936e-05 0)
(0.64199796 5.0391037e-05 0)
(0.6404059 5.415059e-05 0)
(0.63875319 5.8537417e-05 0)
(0.63702365 6.281591e-05 0)
(0.63521658 6.6455071e-05 0)
(0.63333893 6.9565813e-05 0)
(0.63139424 7.2257112e-05 0)
(0.62938546 7.4307809e-05 0)
(0.62732485 7.5317975e-05 0)
(0.62523312 7.5285951e-05 0)
(0.62312579 7.4686298e-05 0)
(0.62100756 7.3760613e-05 0)
(0.6188796 7.2552635e-05 0)
(0.61674873 7.1000076e-05 0)
(0.61462286 6.9311543e-05 0)
(0.61250265 6.7700501e-05 0)
(0.61038902 6.5922575e-05 0)
(0.60828999 6.3873552e-05 0)
(0.60621323 6.1742607e-05 0)
(0.60415835 5.9718951e-05 0)
(0.60212577 5.7592123e-05 0)
(0.60012012 5.5420198e-05 0)
(0.59813912 5.3498466e-05 0)
(0.59617596 5.1746735e-05 0)
(0.59423002 4.9984765e-05 0)
(0.59230455 4.8261125e-05 0)
(0.59039722 4.6698542e-05 0)
(0.58850806 4.5044053e-05 0)
(0.58664351 4.3336061e-05 0)
(0.58480168 4.183725e-05 0)
(0.58297781 4.0363059e-05 0)
(0.58117406 3.8889802e-05 0)
(0.57938797 3.7610588e-05 0)
(0.57761618 3.6334248e-05 0)
(0.57586306 3.5002623e-05 0)
(0.57412913 3.3794066e-05 0)
(0.57241236 3.2584096e-05 0)
(0.57071508 3.1378646e-05 0)
(0.56903441 3.0325472e-05 0)
(0.56736721 2.9281595e-05 0)
(0.56571573 2.8242307e-05 0)
(0.56408028 2.7259279e-05 0)
(0.56246117 2.627676e-05 0)
(0.56085746 2.536793e-05 0)
(0.55926739 2.4486181e-05 0)
(0.55769151 2.3630319e-05 0)
(0.55612851 2.2831314e-05 0)
(0.55457907 2.2030227e-05 0)
(0.5530413 2.1291272e-05 0)
(0.55151766 2.0600058e-05 0)
(0.54998726 1.9970996e-05 0)
(0.54851829 1.9110564e-05 0)
(0.54691756 5.0094774e-05 0)
(0.54552167 9.4204909e-05 0)
(0.54341093 9.0410509e-05 0)
(0.99620061 0.0027565921 0)
(0.99709555 0.0038450032 0)
(0.9977154 0.0042243575 0)
(0.99795685 0.0041370074 0)
(0.99738057 0.0039219561 0)
(0.99593776 0.0035840518 0)
(0.99369966 0.0032692898 0)
(0.99071592 0.0030125115 0)
(0.98707969 0.0028105593 0)
(0.98288024 0.0026633678 0)
(0.97829496 0.0025757316 0)
(0.97341771 0.002524705 0)
(0.96829076 0.002490659 0)
(0.96292668 0.0024611574 0)
(0.95732807 0.0024295357 0)
(0.95148947 0.0023912053 0)
(0.94540397 0.0023430893 0)
(0.93900711 0.0022852901 0)
(0.93241017 0.0022112253 0)
(0.92550026 0.0021176893 0)
(0.91839554 0.0020086471 0)
(0.91114046 0.001887983 0)
(0.90377054 0.0017584796 0)
(0.896321 0.0016234516 0)
(0.88883766 0.0014849295 0)
(0.88136178 0.0013471234 0)
(0.87393329 0.0012142621 0)
(0.86658939 0.0010873792 0)
(0.85936988 0.00096794353 0)
(0.85231683 0.00085729409 0)
(0.84546991 0.00075646665 0)
(0.83886724 0.00066432927 0)
(0.83255628 0.00058314334 0)
(0.82649104 0.00051561125 0)
(0.82066877 0.00045848335 0)
(0.81509636 0.0004094181 0)
(0.8097798 0.00036812975 0)
(0.80472291 0.00033416378 0)
(0.79991649 0.00030455457 0)
(0.79534832 0.00027921523 0)
(0.7909986 0.0002594923 0)
(0.78684388 0.0002440064 0)
(0.78286238 0.00023189349 0)
(0.77903642 0.00022202177 0)
(0.77535643 0.00021312895 0)
(0.77181089 0.00020552879 0)
(0.76839038 0.0002012776 0)
(0.76501996 0.0001999615 0)
(0.76168253 0.00019881856 0)
(0.7583885 0.00019636749 0)
(0.75515119 0.00019336941 0)
(0.75197266 0.00019042251 0)
(0.74884526 0.00018719849 0)
(0.74576361 0.00018291638 0)
(0.74273274 0.00017769116 0)
(0.73975218 0.00017262421 0)
(0.73680607 0.0001678538 0)
(0.73388367 0.00016295926 0)
(0.73098645 0.00015761963 0)
(0.72812218 0.00015221668 0)
(0.72529338 0.00014711601 0)
(0.72249951 0.00014180866 0)
(0.71974454 0.00013617054 0)
(0.71703345 0.00013060459 0)
(0.71436476 0.00012541033 0)
(0.71173631 0.00012017259 0)
(0.70914643 0.00011506197 0)
(0.70659146 0.00011054228 0)
(0.70406602 0.00010634116 0)
(0.70157021 0.00010212131 0)
(0.6991088 9.8026789e-05 0)
(0.69668129 9.4280069e-05 0)
(0.69428601 9.0396258e-05 0)
(0.69192826 8.6517574e-05 0)
(0.68960589 8.3119001e-05 0)
(0.68731155 7.9803275e-05 0)
(0.68504589 7.6549761e-05 0)
(0.68280858 7.3682353e-05 0)
(0.68059666 7.0819183e-05 0)
(0.67841346 6.7905951e-05 0)
(0.67626049 6.5264255e-05 0)
(0.67413432 6.2648997e-05 0)
(0.67203526 6.0099085e-05 0)
(0.66996115 5.7850348e-05 0)
(0.66790881 5.5623232e-05 0)
(0.66588011 5.3435068e-05 0)
(0.66387584 5.1369973e-05 0)
(0.66189566 4.933421e-05 0)
(0.65993792 4.7459186e-05 0)
(0.65800024 4.5646445e-05 0)
(0.65608324 4.3899615e-05 0)
(0.65418596 4.2264034e-05 0)
(0.65230888 4.0648401e-05 0)
(0.65044892 3.9150256e-05 0)
(0.64861055 3.7797335e-05 0)
(0.6467649 3.6386005e-05 0)
(0.64499794 3.556475e-05 0)
(0.64308096 6.9897865e-05 0)
(0.64148673 0.00011847475 0)
(0.63857051 9.8490604e-05 0)
(0.996314 0.0026085359 0)
(0.99684628 0.0030867568 0)
(0.99746416 0.003046181 0)
(0.9978979 0.0029373764 0)
(0.99816758 0.0029152437 0)
(0.99849116 0.002945598 0)
(0.99869964 0.0030085699 0)
(0.99878897 0.0030935236 0)
(0.99876459 0.003163139 0)
(0.99861634 0.0032363213 0)
(0.99833414 0.0032783652 0)
(0.99791072 0.0032954027 0)
(0.99733618 0.0032903469 0)
(0.99659603 0.0032686907 0)
(0.9956748 0.0032309673 0)
(0.99455384 0.0031777152 0)
(0.99321066 0.0031107696 0)
(0.99159408 0.0030376574 0)
(0.98972284 0.0029658047 0)
(0.98751089 0.0028870773 0)
(0.98492053 0.00279459 0)
(0.98191893 0.0026926006 0)
(0.97848241 0.002585149 0)
(0.97458804 0.0024720835 0)
(0.97024558 0.0023517628 0)
(0.96534547 0.0022207367 0)
(0.95995705 0.0020841344 0)
(0.95414906 0.0019466788 0)
(0.94796904 0.0018106864 0)
(0.94147116 0.0016771946 0)
(0.93471797 0.0015473756 0)
(0.92778361 0.0014204511 0)
(0.92075101 0.0012965506 0)
(0.91371204 0.0011818487 0)
(0.90673096 0.0010788777 0)
(0.89986334 0.00098579679 0)
(0.89315715 0.00090159907 0)
(0.88666499 0.0008292994 0)
(0.88033523 0.00076620662 0)
(0.87418683 0.00070991927 0)
(0.86824226 0.00066137968 0)
(0.86251403 0.00061823733 0)
(0.85701531 0.00057975008 0)
(0.85174685 0.00054548287 0)
(0.84669559 0.00051399259 0)
(0.84184694 0.00048603221 0)
(0.83718306 0.00046303754 0)
(0.83269345 0.00044506624 0)
(0.82836433 0.00043012312 0)
(0.8241871 0.0004150872 0)
(0.82015388 0.00040031012 0)
(0.81624856 0.00038668889 0)
(0.8124503 0.00037381133 0)
(0.8087446 0.00036032554 0)
(0.80513196 0.00034639293 0)
(0.80159726 0.00033388668 0)
(0.79811227 0.00032254631 0)
(0.79467611 0.00031119452 0)
(0.79129318 0.00029927188 0)
(0.7879699 0.00028737784 0)
(0.78470678 0.00027612091 0)
(0.78150068 0.00026480737 0)
(0.77835194 0.0002532671 0)
(0.77526212 0.00024207559 0)
(0.77222795 0.00023167028 0)
(0.76924556 0.00022155703 0)
(0.76630674 0.00021192844 0)
(0.76340905 0.00020323783 0)
(0.76055031 0.00019505451 0)
(0.75773196 0.00018688235 0)
(0.75495867 0.00017893754 0)
(0.75222972 0.00017158384 0)
(0.74954244 0.00016413112 0)
(0.74690127 0.00015680181 0)
(0.7443017 0.00015032279 0)
(0.74173533 0.0001440936 0)
(0.73920334 0.00013802027 0)
(0.73670667 0.00013254158 0)
(0.73424284 0.00012712108 0)
(0.73181459 0.00012167859 0)
(0.72942339 0.00011668717 0)
(0.72706448 0.00011182587 0)
(0.72473691 0.0001071379 0)
(0.72243904 0.00010293271 0)
(0.72016827 9.8803177e-05 0)
(0.71792642 9.4763267e-05 0)
(0.71571434 9.0934966e-05 0)
(0.71353094 8.7205921e-05 0)
(0.71137387 8.3762431e-05 0)
(0.70924072 8.0448771e-05 0)
(0.70713233 7.7259011e-05 0)
(0.70504797 7.4253282e-05 0)
(0.7029879 7.1322084e-05 0)
(0.70094833 6.8577408e-05 0)
(0.6989339 6.6154621e-05 0)
(0.69691466 6.3490204e-05 0)
(0.69497855 6.1695224e-05 0)
(0.69289212 9.2386227e-05 0)
(0.69116175 0.00014036777 0)
(0.6879373 0.00010734092 0)
(0.99646561 0.0023664312 0)
(0.99691434 0.0028578564 0)
(0.99748334 0.0030698306 0)
(0.99790987 0.0031895135 0)
(0.99820226 0.0032941602 0)
(0.99844981 0.0033746291 0)
(0.99867393 0.0033905581 0)
(0.99886985 0.0033768142 0)
(0.99904029 0.0033394628 0)
(0.99918057 0.0032861477 0)
(0.99933965 0.0032325164 0)
(0.99947486 0.0031845791 0)
(0.99958749 0.0031434643 0)
(0.99968153 0.0031021441 0)
(0.99975166 0.0030680338 0)
(0.99979422 0.0030367748 0)
(0.99980392 0.0030029704 0)
(0.99977215 0.002970774 0)
(0.99969081 0.0029415618 0)
(0.99954954 0.0029089248 0)
(0.99932933 0.0028652791 0)
(0.99900474 0.0028122821 0)
(0.9985505 0.0027527788 0)
(0.99793765 0.0026879953 0)
(0.99713826 0.0026216095 0)
(0.99608789 0.0025586006 0)
(0.9947323 0.0024948501 0)
(0.99302172 0.002425374 0)
(0.99090849 0.0023507453 0)
(0.98834784 0.0022733306 0)
(0.98529217 0.002192132 0)
(0.98171789 0.0021047045 0)
(0.97749543 0.0020116573 0)
(0.97264993 0.001913684 0)
(0.96727349 0.0018105533 0)
(0.96142739 0.001704681 0)
(0.9551898 0.0015976328 0)
(0.94865287 0.0014907348 0)
(0.94195785 0.0013861199 0)
(0.93520066 0.0012878646 0)
(0.92846144 0.0011988855 0)
(0.92180239 0.0011168831 0)
(0.91529111 0.0010433214 0)
(0.90891241 0.0009792419 0)
(0.90265964 0.00092050082 0)
(0.89657207 0.00086616924 0)
(0.89067187 0.00081877667 0)
(0.88500933 0.00077767774 0)
(0.87960053 0.000739909 0)
(0.87442456 0.00070346104 0)
(0.86945361 0.0006693901 0)
(0.86466127 0.00063903483 0)
(0.86002592 0.00061143129 0)
(0.85553846 0.0005842126 0)
(0.85120043 0.00055701726 0)
(0.84700522 0.00053227985 0)
(0.84293442 0.00051056242 0)
(0.83896728 0.00049033472 0)
(0.83509275 0.00046999244 0)
(0.831311 0.00044991342 0)
(0.82761871 0.00043092939 0)
(0.82400842 0.00041224189 0)
(0.82047539 0.00039363248 0)
(0.81701693 0.00037577835 0)
(0.8136283 0.0003592133 0)
(0.81030281 0.00034353639 0)
(0.80702208 0.00032869526 0)
(0.80379396 0.00031490737 0)
(0.80061957 0.00030173971 0)
(0.79749984 0.00028864392 0)
(0.79443806 0.00027593028 0)
(0.79143219 0.00026412169 0)
(0.78847806 0.00025233331 0)
(0.78557926 0.00024091135 0)
(0.78272641 0.00023081901 0)
(0.77991165 0.00022114062 0)
(0.77713855 0.00021166999 0)
(0.77440909 0.00020298838 0)
(0.77172079 0.00019445641 0)
(0.76907563 0.00018596099 0)
(0.76647473 0.00017813704 0)
(0.76391093 0.00017061856 0)
(0.76138243 0.00016340115 0)
(0.75888868 0.00015683785 0)
(0.75642793 0.00015041846 0)
(0.75400189 0.00014415031 0)
(0.75161127 0.00013820187 0)
(0.74925373 0.00013246015 0)
(0.74692613 0.00012714669 0)
(0.74462642 0.00012204055 0)
(0.74235584 0.00011712142 0)
(0.74011381 0.00011246727 0)
(0.73790027 0.00010796793 0)
(0.73571051 0.0001037329 0)
(0.73354905 0.0001000382 0)
(0.73138644 9.5832857e-05 0)
(0.72930958 9.2931865e-05 0)
(0.72708606 0.00011872585 0)
(0.72523553 0.00016594092 0)
(0.72180249 0.00012570374 0)
(0.99664594 0.0022647674 0)
(0.99702709 0.0027802276 0)
(0.99753257 0.0030271555 0)
(0.99792838 0.0031111462 0)
(0.99820317 0.0031510052 0)
(0.99843492 0.003154174 0)
(0.99865126 0.0031311279 0)
(0.99884676 0.0031070847 0)
(0.99902031 0.0030849556 0)
(0.99917706 0.003072092 0)
(0.99932212 0.003066981 0)
(0.99945903 0.0030679785 0)
(0.99959175 0.003068729 0)
(0.9997202 0.0030677962 0)
(0.99984338 0.0030608223 0)
(0.9999611 0.0030452974 0)
(1.0000737 0.0030233337 0)
(1.0001761 0.0029957348 0)
(1.0002853 0.0029645124 0)
(1.0003927 0.0029279726 0)
(1.0004892 0.0028815009 0)
(1.0005673 0.0028272183 0)
(1.0006248 0.0027689717 0)
(1.0006571 0.0027082749 0)
(1.0006651 0.0026507456 0)
(1.0006453 0.0025981107 0)
(1.0005883 0.0025435989 0)
(1.0004786 0.0024860106 0)
(1.0002977 0.0024286455 0)
(1.0000239 0.0023735213 0)
(0.99962793 0.0023204399 0)
(0.99907569 0.0022729173 0)
(0.99830054 0.0022309102 0)
(0.99722822 0.0021934013 0)
(0.99578785 0.0021539006 0)
(0.99390498 0.0021105961 0)
(0.99150968 0.0020619841 0)
(0.9885215 0.0020096524 0)
(0.98496915 0.0019512558 0)
(0.9806508 0.0018829038 0)
(0.97571455 0.0018032363 0)
(0.97024353 0.001716066 0)
(0.9643289 0.0016238782 0)
(0.95810235 0.0015304582 0)
(0.95169919 0.0014388842 0)
(0.94521738 0.0013518722 0)
(0.9387396 0.0012718779 0)
(0.93233924 0.0011976481 0)
(0.92608566 0.0011313077 0)
(0.91991992 0.0010706308 0)
(0.91388378 0.0010134549 0)
(0.9080174 0.00096070102 0)
(0.9023419 0.00091160314 0)
(0.89687781 0.00086406384 0)
(0.89161987 0.00081853733 0)
(0.88655728 0.00077768858 0)
(0.88168114 0.00074148253 0)
(0.87696646 0.00070786821 0)
(0.87240177 0.00067490044 0)
(0.86798786 0.00064299455 0)
(0.86371147 0.00061332539 0)
(0.85955318 0.00058499692 0)
(0.8554997 0.00055749961 0)
(0.8515459 0.00053128959 0)
(0.84768922 0.00050682908 0)
(0.8439249 0.00048353652 0)
(0.84024996 0.0004617014 0)
(0.83665734 0.00044168844 0)
(0.83313943 0.0004226392 0)
(0.82969396 0.00040380138 0)
(0.82632219 0.00038555642 0)
(0.82301985 0.00036860853 0)
(0.81978064 0.00035186926 0)
(0.81660721 0.00033589687 0)
(0.81348169 0.00032175811 0)
(0.8104019 0.00030807934 0)
(0.80737514 0.00029460693 0)
(0.80440305 0.00028213646 0)
(0.80148224 0.00026995747 0)
(0.79861362 0.00025791608 0)
(0.79579759 0.00024685244 0)
(0.79302291 0.00023635528 0)
(0.79028817 0.00022627034 0)
(0.78759501 0.00021698165 0)
(0.78494228 0.00020791765 0)
(0.78233125 0.00019908659 0)
(0.77976231 0.0001907187 0)
(0.77723099 0.00018271102 0)
(0.7747335 0.00017528541 0)
(0.77226877 0.00016814414 0)
(0.76983854 0.00016125755 0)
(0.76744222 0.00015472891 0)
(0.7650791 0.00014846159 0)
(0.76274325 0.00014255175 0)
(0.76043926 0.00013741627 0)
(0.75813863 0.00013147508 0)
(0.75592684 0.00012746529 0)
(0.75357241 0.00014901182 0)
(0.75160721 0.00019608423 0)
(0.74797992 0.00015043612 0)
(0.99681588 0.0021857019 0)
(0.99713671 0.0026676677 0)
(0.99757804 0.0029102856 0)
(0.99794484 0.0029994583 0)
(0.99821292 0.0030549201 0)
(0.99844206 0.0030977607 0)
(0.99865714 0.0031234513 0)
(0.9988518 0.0031379024 0)
(0.99902398 0.0031466424 0)
(0.99917818 0.0031463662 0)
(0.9993196 0.0031428403 0)
(0.99945273 0.0031360032 0)
(0.99958176 0.0031244196 0)
(0.99970753 0.0031060684 0)
(0.99982949 0.0030816692 0)
(0.99994766 0.0030522017 0)
(1.0000617 0.0030186562 0)
(1.000171 0.0029814608 0)
(1.000276 0.0029427335 0)
(1.0003788 0.002902144 0)
(1.000479 0.0028553054 0)
(1.0005726 0.0028025256 0)
(1.0006563 0.0027463907 0)
(1.00073 0.002688039 0)
(1.0007945 0.0026309892 0)
(1.0008501 0.0025764522 0)
(1.0009085 0.0025210466 0)
(1.0009612 0.0024651481 0)
(1.0009975 0.0024112673 0)
(1.0010205 0.0023610373 0)
(1.0010296 0.0023146592 0)
(1.0010242 0.0022749717 0)
(1.0010019 0.0022448716 0)
(1.0009552 0.002218485 0)
(1.0008685 0.0021918085 0)
(1.0007189 0.0021654823 0)
(1.0004764 0.0021408844 0)
(1.0000978 0.0021161917 0)
(0.99953337 0.002094952 0)
(0.99868002 0.0020790272 0)
(0.99745038 0.0020589656 0)
(0.99575279 0.0020308698 0)
(0.99349271 0.0019963 0)
(0.99063779 0.0019563903 0)
(0.98713933 0.0019066151 0)
(0.98288093 0.001844341 0)
(0.97800519 0.0017705729 0)
(0.9726135 0.0016891271 0)
(0.96682519 0.0016023623 0)
(0.96080507 0.0015151332 0)
(0.954654 0.0014318863 0)
(0.94846217 0.001353921 0)
(0.94230183 0.0012798649 0)
(0.93625368 0.0012102938 0)
(0.93026343 0.0011458069 0)
(0.92434841 0.0010860555 0)
(0.91856169 0.0010301433 0)
(0.91294254 0.00097706795 0)
(0.90752535 0.00092579168 0)
(0.90230524 0.00087759756 0)
(0.89725481 0.00083349646 0)
(0.89235054 0.000792256 0)
(0.88758435 0.00075283949 0)
(0.88296153 0.0007153476 0)
(0.87848313 0.00068045234 0)
(0.87413745 0.00064764415 0)
(0.86993001 0.00061704063 0)
(0.86584233 0.00058877553 0)
(0.86186442 0.00056195519 0)
(0.85799057 0.00053578354 0)
(0.85421605 0.00051073524 0)
(0.85053025 0.00048758786 0)
(0.84692522 0.00046493791 0)
(0.84340208 0.00044323252 0)
(0.83995821 0.00042384989 0)
(0.83658591 0.00040534009 0)
(0.83328339 0.00038725298 0)
(0.8300486 0.00037044585 0)
(0.82687679 0.00035410801 0)
(0.82376756 0.00033804687 0)
(0.82072014 0.0003233839 0)
(0.81771689 0.00030957426 0)
(0.81476047 0.00029620664 0)
(0.81185543 0.00028374668 0)
(0.80900001 0.00027162001 0)
(0.80619449 0.00025983949 0)
(0.80343868 0.00024872888 0)
(0.80072487 0.00023819353 0)
(0.79804945 0.00022838548 0)
(0.79541317 0.00021892357 0)
(0.79281801 0.00020979289 0)
(0.79026299 0.00020113547 0)
(0.78774641 0.00019288332 0)
(0.78526069 0.00018510176 0)
(0.78281114 0.00017833154 0)
(0.78037043 0.00017045077 0)
(0.77802229 0.00016524956 0)
(0.77553587 0.00018308514 0)
(0.77345408 0.00023098658 0)
(0.76963687 0.0001794818 0)
(0.99697355 0.0021163247 0)
(0.99724454 0.0025601056 0)
(0.99762983 0.0028098388 0)
(0.99796956 0.0029228644 0)
(0.99822998 0.0029966058 0)
(0.99845302 0.0030522568 0)
(0.9986617 0.0030803069 0)
(0.99885188 0.0030891972 0)
(0.99902137 0.0030864697 0)
(0.99917411 0.003078403 0)
(0.99931497 0.0030673997 0)
(0.9994481 0.0030543432 0)
(0.99957677 0.0030426166 0)
(0.99970201 0.0030284279 0)
(0.99982341 0.0030115221 0)
(0.9999408 0.0029904546 0)
(1.0000537 0.0029654946 0)
(1.0001615 0.0029367959 0)
(1.0002648 0.0029058608 0)
(1.0003653 0.0028721353 0)
(1.0004631 0.0028315835 0)
(1.000555 0.0027839808 0)
(1.0006387 0.0027318496 0)
(1.0007134 0.0026767522 0)
(1.0007796 0.0026219025 0)
(1.0008399 0.0025689106 0)
(1.0008956 0.0025156127 0)
(1.0009457 0.0024622185 0)
(1.0009887 0.002410355 0)
(1.0010249 0.0023612258 0)
(1.0010549 0.002315066 0)
(1.0010797 0.0022745101 0)
(1.001101 0.0022409043 0)
(1.0011269 0.0022109022 0)
(1.0011531 0.0021824699 0)
(1.001174 0.0021564897 0)
(1.0011888 0.0021339023 0)
(1.001194 0.0021137848 0)
(1.0011873 0.002101337 0)
(1.001164 0.002095449 0)
(1.0011082 0.0020873694 0)
(1.0009913 0.0020768151 0)
(1.0007741 0.0020639728 0)
(1.0004065 0.0020496493 0)
(0.9998137 0.0020370091 0)
(0.99888229 0.002023996 0)
(0.99750957 0.0020039954 0)
(0.99559441 0.0019753341 0)
(0.99304937 0.0019395396 0)
(0.98985834 0.0018954429 0)
(0.98589933 0.0018386444 0)
(0.98132111 0.0017696957 0)
(0.97622813 0.0016920301 0)
(0.97075159 0.0016072105 0)
(0.96503946 0.0015216232 0)
(0.95918575 0.0014417104 0)
(0.95326753 0.0013669124 0)
(0.9473552 0.0012947013 0)
(0.94153589 0.0012264103 0)
(0.9357409 0.0011636084 0)
(0.92999284 0.0011046637 0)
(0.9243433 0.0010476103 0)
(0.91883743 0.00099209484 0)
(0.91350679 0.00093949603 0)
(0.90833498 0.00089108397 0)
(0.90330098 0.00084544995 0)
(0.89840821 0.00080266527 0)
(0.89366407 0.00076311576 0)
(0.88907593 0.00072584703 0)
(0.88463179 0.00069011264 0)
(0.88031742 0.00065648606 0)
(0.87611707 0.0006255326 0)
(0.87202774 0.00059540241 0)
(0.86804937 0.00056666775 0)
(0.86418995 0.00054088069 0)
(0.86043476 0.00051630348 0)
(0.85677447 0.00049246067 0)
(0.85320387 0.0004703343 0)
(0.84971513 0.00044899774 0)
(0.84630451 0.00042820845 0)
(0.84296809 0.00040912755 0)
(0.83970032 0.00039117093 0)
(0.83650036 0.00037391554 0)
(0.83336533 0.00035782858 0)
(0.83029036 0.0003422354 0)
(0.82727458 0.00032712506 0)
(0.82431702 0.0003129661 0)
(0.82140515 0.00029962162 0)
(0.81853779 0.00028709807 0)
(0.81571828 0.00027496428 0)
(0.81294782 0.00026326048 0)
(0.81022463 0.0002521831 0)
(0.80754548 0.00024171069 0)
(0.8049009 0.00023183709 0)
(0.80229805 0.00022319699 0)
(0.79971066 0.0002131372 0)
(0.79722011 0.00020675239 0)
(0.79459633 0.0002209522 0)
(0.79239172 0.00027058468 0)
(0.78838265 0.00021205698 0)
(0.99712014 0.0020584171 0)
(0.99735084 0.002466225 0)
(0.99768695 0.0027192147 0)
(0.99799894 0.0028477549 0)
(0.99824885 0.0029289566 0)
(0.99846457 0.0029883935 0)
(0.99866676 0.0030219783 0)
(0.99885331 0.00303728 0)
(0.99902128 0.0030434022 0)
(0.99917348 0.0030447839 0)
(0.99931439 0.003043457 0)
(0.99944765 0.0030414494 0)
(0.99957579 0.0030359221 0)
(0.99970005 0.0030272697 0)
(0.99982049 0.003013115 0)
(0.99993688 0.0029938351 0)
(1.0000488 0.0029693777 0)
(1.0001558 0.002940274 0)
(1.0002584 0.0029079447 0)
(1.000358 0.0028721737 0)
(1.0004545 0.0028299868 0)
(1.0005454 0.0027812162 0)
(1.0006284 0.0027282805 0)
(1.0007027 0.0026729246 0)
(1.0007688 0.0026178814 0)
(1.0008285 0.0025646853 0)
(1.0008835 0.0025116294 0)
(1.0009329 0.0024585222 0)
(1.0009758 0.0024067238 0)
(1.0010125 0.0023575778 0)
(1.0010436 0.0023116294 0)
(1.00107 0.0022711773 0)
(1.0010943 0.0022373814 0)
(1.0011191 0.0022079026 0)
(1.0011444 0.0021807238 0)
(1.0011688 0.0021558845 0)
(1.0011919 0.0021337888 0)
(1.0012131 0.002113723 0)
(1.0012334 0.0020994132 0)
(1.0012558 0.0020905651 0)
(1.0012846 0.0020803137 0)
(1.0013184 0.0020688677 0)
(1.0013439 0.0020577411 0)
(1.0013577 0.0020481216 0)
(1.0013575 0.0020437302 0)
(1.0013333 0.0020416003 0)
(1.0012602 0.0020365812 0)
(1.0010985 0.0020280886 0)
(1.000792 0.0020167106 0)
(1.0002619 0.0020052328 0)
(0.99938603 0.00199134 0)
(0.9980547 0.0019696501 0)
(0.99615993 0.0019381351 0)
(0.99362382 0.0018972371 0)
(0.99032468 0.0018483432 0)
(0.98633389 0.0017879982 0)
(0.98177859 0.0017188436 0)
(0.97677584 0.0016417961 0)
(0.97145736 0.0015593976 0)
(0.96594361 0.0014796818 0)
(0.96030744 0.0014059062 0)
(0.95461413 0.0013350339 0)
(0.94893602 0.0012656343 0)
(0.94331111 0.001201179 0)
(0.93766759 0.0011415002 0)
(0.93205871 0.0010829116 0)
(0.92654651 0.0010258088 0)
(0.92118749 0.00097231702 0)
(0.91597692 0.00092237085 0)
(0.91090063 0.00087482483 0)
(0.90595636 0.00083033881 0)
(0.90114794 0.00078920948 0)
(0.89648627 0.00074939537 0)
(0.89196607 0.00071152369 0)
(0.88757988 0.000677294 0)
(0.88331834 0.00064485862 0)
(0.87918406 0.0006136367 0)
(0.87517225 0.0005848107 0)
(0.87126883 0.00055732782 0)
(0.86746588 0.00053079639 0)
(0.86375782 0.00050640637 0)
(0.86015126 0.00048343476 0)
(0.85664094 0.00046141112 0)
(0.85321541 0.00044093122 0)
(0.84986629 0.0004212094 0)
(0.84659097 0.00040219544 0)
(0.84338539 0.00038436912 0)
(0.8402452 0.00036759513 0)
(0.83716756 0.00035189045 0)
(0.83414938 0.00033672933 0)
(0.83118919 0.00032213761 0)
(0.82828416 0.00030836325 0)
(0.82542897 0.00029543846 0)
(0.82261226 0.0002832145 0)
(0.81984497 0.00027242126 0)
(0.81710098 0.00025990782 0)
(0.81445883 0.00025213945 0)
(0.81168862 0.00026275919 0)
(0.80935175 0.00031475679 0)
(0.80514504 0.00024800497 0)
(0.99725657 0.0020085412 0)
(0.99745454 0.002382205 0)
(0.99774754 0.0026326278 0)
(0.9980321 0.0027719639 0)
(0.99827029 0.0028608273 0)
(0.99847881 0.0029270064 0)
(0.99867477 0.0029697074 0)
(0.99885729 0.0029933576 0)
(0.99902301 0.0030057878 0)
(0.99917383 0.0030112607 0)
(0.99931377 0.0030122032 0)
(0.99944621 0.003009565 0)
(0.9995734 0.003003677 0)
(0.99969659 0.0029932227 0)
(0.99981609 0.0029782672 0)
(0.99993162 0.0029586683 0)
(1.0000428 0.0029345102 0)
(1.0001494 0.0029063419 0)
(1.0002516 0.0028751961 0)
(1.0003507 0.0028408666 0)
(1.0004465 0.0028009703 0)
(1.0005368 0.0027550875 0)
(1.0006196 0.0027051748 0)
(1.000694 0.0026528947 0)
(1.0007604 0.0026005132 0)
(1.0008206 0.002549436 0)
(1.0008757 0.0024984122 0)
(1.0009253 0.0024472018 0)
(1.0009686 0.0023971157 0)
(1.0010058 0.0023495542 0)
(1.0010374 0.0023051656 0)
(1.0010643 0.0022658465 0)
(1.001089 0.0022326967 0)
(1.0011137 0.0022037853 0)
(1.0011388 0.0021770262 0)
(1.0011631 0.0021522626 0)
(1.0011864 0.0021300635 0)
(1.0012084 0.0021100746 0)
(1.0012297 0.0020954209 0)
(1.0012541 0.002086219 0)
(1.0012831 0.0020763764 0)
(1.0013139 0.0020655826 0)
(1.001344 0.0020549121 0)
(1.0013725 0.0020453277 0)
(1.0014013 0.0020396812 0)
(1.0014325 0.0020359135 0)
(1.0014684 0.0020294173 0)
(1.0015093 0.0020213301 0)
(1.0015358 0.0020132718 0)
(1.0015447 0.002008915 0)
(1.0015275 0.0020060154 0)
(1.0014555 0.001999036 0)
(1.0012822 0.0019870922 0)
(1.0009418 0.0019727435 0)
(1.0003205 0.0019582613 0)
(0.99929843 0.0019391136 0)
(0.9977601 0.0019118589 0)
(0.99561892 0.0018741013 0)
(0.9927081 0.0018269584 0)
(0.98904423 0.0017709625 0)
(0.98480337 0.0017074082 0)
(0.98010993 0.0016359594 0)
(0.97508612 0.0015583763 0)
(0.9698359 0.0014810978 0)
(0.96443781 0.001409009 0)
(0.9589476 0.0013402012 0)
(0.95342566 0.0012724037 0)
(0.94795057 0.0012096076 0)
(0.94242158 0.0011506359 0)
(0.93689167 0.0010922321 0)
(0.93143257 0.0010354486 0)
(0.92610408 0.00098216643 0)
(0.92090347 0.00093112333 0)
(0.91582255 0.00088256799 0)
(0.91086297 0.00083827912 0)
(0.90603703 0.00079608861 0)
(0.90136317 0.00075561569 0)
(0.89683364 0.00071847173 0)
(0.89243137 0.00068340108 0)
(0.88815344 0.00064971953 0)
(0.88399971 0.00061855526 0)
(0.87996828 0.00058911245 0)
(0.87605427 0.00056111198 0)
(0.87224984 0.00053519479 0)
(0.86854704 0.00051041463 0)
(0.86494008 0.00048670717 0)
(0.8614201 0.00046454487 0)
(0.85799173 0.00044368375 0)
(0.85465092 0.00042413272 0)
(0.85138675 0.00040537094 0)
(0.84819384 0.00038740972 0)
(0.84506754 0.00037047416 0)
(0.84200435 0.00035458896 0)
(0.83899846 0.00033959624 0)
(0.83605301 0.00032635679 0)
(0.83313955 0.00031112707 0)
(0.83033367 0.00030181531 0)
(0.82740475 0.00030877881 0)
(0.82492347 0.00036338612 0)
(0.82051119 0.00028743638 0)
(0.99738388 0.0019652109 0)
(0.99755512 0.0023071688 0)
(0.9978107 0.0025514034 0)
(0.99806902 0.0026988219 0)
(0.99829468 0.002795375 0)
(0.99849566 0.0028677557 0)
(0.99868502 0.0029174513 0)
(0.99886277 0.0029470867 0)
(0.99902562 0.0029638384 0)
(0.99917472 0.0029727718 0)
(0.99931356 0.0029765922 0)
(0.99944519 0.0029766071 0)
(0.99957159 0.0029731639 0)
(0.99969395 0.0029657651 0)
(0.99981257 0.0029539191 0)
(0.99992725 0.0029373378 0)
(1.0000377 0.0029161062 0)
(1.0001437 0.0028906338 0)
(1.0002454 0.0028616524 0)
(1.0003438 0.002829017 0)
(1.0004387 0.0027908943 0)
(1.0005283 0.0027468228 0)
(1.0006107 0.002698496 0)
(1.0006851 0.002647627 0)
(1.0007518 0.0025962577 0)
(1.0008123 0.0025457662 0)
(1.0008677 0.0024953565 0)
(1.0009176 0.0024448279 0)
(1.0009614 0.0023953756 0)
(1.0009991 0.0023483472 0)
(1.0010315 0.0023044443 0)
(1.0010594 0.0022652837 0)
(1.0010848 0.0022319039 0)
(1.00111 0.0022027077 0)
(1.0011354 0.0021757638 0)
(1.0011601 0.0021508926 0)
(1.0011837 0.0021286954 0)
(1.001206 0.0021089623 0)
(1.0012277 0.0020942248 0)
(1.001252 0.00208464 0)
(1.0012803 0.0020747982 0)
(1.0013104 0.0020639703 0)
(1.0013402 0.0020531945 0)
(1.0013691 0.0020434674 0)
(1.0013986 0.002037336 0)
(1.0014316 0.0020330767 0)
(1.0014683 0.0020265624 0)
(1.0015055 0.0020186282 0)
(1.0015413 0.0020107155 0)
(1.0015765 0.0020054922 0)
(1.001615 0.0020010224 0)
(1.0016519 0.0019929668 0)
(1.0017007 0.0019819871 0)
(1.0017279 0.0019727627 0)
(1.0017312 0.0019666234 0)
(1.0016945 0.0019588088 0)
(1.0015772 0.0019466488 0)
(1.0013191 0.0019318555 0)
(1.0008117 0.0019161203 0)
(0.99992128 0.0018982305 0)
(0.99852737 0.0018723804 0)
(0.99653824 0.0018363817 0)
(0.99378727 0.0017894596 0)
(0.99022513 0.0017326224 0)
(0.98609555 0.0016713598 0)
(0.98154927 0.0016033179 0)
(0.97669328 0.0015301191 0)
(0.97161596 0.001457245 0)
(0.96638608 0.0013882854 0)
(0.96105273 0.001322132 0)
(0.95567163 0.001257237 0)
(0.95031624 0.0011966681 0)
(0.94489016 0.0011380692 0)
(0.93944877 0.0010801002 0)
(0.93406485 0.0010251669 0)
(0.92879317 0.00097222078 0)
(0.92363428 0.0009216173 0)
(0.91858606 0.0008748996 0)
(0.9136566 0.0008306269 0)
(0.90886593 0.00078809289 0)
(0.90421971 0.0007487067 0)
(0.89970535 0.00071160869 0)
(0.89532017 0.00067639312 0)
(0.89106839 0.00064374721 0)
(0.88694481 0.00061275631 0)
(0.88293946 0.00058337017 0)
(0.87904277 0.0005558496 0)
(0.87525717 0.000529807 0)
(0.87158011 0.0005054888 0)
(0.86800083 0.00048237311 0)
(0.86451264 0.00046037566 0)
(0.86110879 0.00043970138 0)
(0.85778645 0.00042033932 0)
(0.85454594 0.00040206384 0)
(0.85138209 0.00038589849 0)
(0.84826323 0.00036756684 0)
(0.84525955 0.00035634761 0)
(0.84214794 0.00035938992 0)
(0.83950784 0.00041633991 0)
(0.83488119 0.00033063106 0)
(0.99750302 0.0019270927 0)
(0.99765226 0.0022400307 0)
(0.9978756 0.002475677 0)
(0.99810929 0.002628341 0)
(0.99832179 0.0027314119 0)
(0.99851474 0.0028088721 0)
(0.99869729 0.0028642679 0)
(0.99886987 0.0028996006 0)
(0.99902953 0.0029212402 0)
(0.99917671 0.0029344404 0)
(0.99931426 0.0029419062 0)
(0.99944486 0.0029448786 0)
(0.9995703 0.0029437566 0)
(0.99969162 0.0029382464 0)
(0.99980918 0.0029278662 0)
(0.99992285 0.0029125013 0)
(1.0000324 0.0028923561 0)
(1.0001377 0.0028678479 0)
(1.0002388 0.0028396007 0)
(1.0003365 0.0028075805 0)
(1.0004305 0.0027704269 0)
(1.0005195 0.0027277101 0)
(1.0006015 0.0026808776 0)
(1.000676 0.0026316027 0)
(1.000743 0.0025816988 0)
(1.0008038 0.0025324375 0)
(1.0008594 0.0024833291 0)
(1.0009097 0.0024341846 0)
(1.0009539 0.0023860446 0)
(1.0009923 0.0023401898 0)
(1.0010254 0.0022973805 0)
(1.0010542 0.0022590215 0)
(1.0010804 0.0022260681 0)
(1.0011062 0.0021972156 0)
(1.001132 0.0021707085 0)
(1.001157 0.0021462914 0)
(1.001181 0.0021244975 0)
(1.0012039 0.002105223 0)
(1.0012262 0.0020905164 0)
(1.0012507 0.0020805745 0)
(1.001279 0.0020707112 0)
(1.0013091 0.0020599496 0)
(1.0013389 0.002049315 0)
(1.0013679 0.0020398119 0)
(1.0013974 0.0020336262 0)