/*--------------------------------*- C++ -*----------------------------------*\
  =========                 |
  \\      /  F ield         | OpenFOAM: The Open Source CFD Toolbox
   \\    /   O peration     | Website:  https://openfoam.org
    \\  /    A nd           | Version:  12
     \\/     M anipulation  |
\*---------------------------------------------------------------------------*/
FoamFile
{
    format      ascii;
    class       volVectorField;
    location    "1400";
    object      wallShearStress;
}
// * * * * * * * * * * * * * * * * * * * * * * * * * * * * * * * * * * * * * //

dimensions      [0 2 -2 0 0 0 0];

internalField   uniform (0 0 0);

boundaryField
{
    inlet
    {
        type            calculated;
        value           uniform (0 0 0);
    }
    top
    {
        type            calculated;
        value           uniform (0 0 0);
    }
    outlet
    {
        type            calculated;
        value           uniform (0 0 0);
    }
    slipsurface
    {
        type            calculated;
        value           uniform (0 0 0);
    }
    bottom
    {
        type            calculated;
        value           nonuniform List<vector> 
100
(
(-0.0033445799 -3.5317589e-06 0)
(-0.0032712157 -6.5055303e-06 0)
(-0.0031943032 -8.1520184e-06 0)
(-0.0031132857 -9.5773799e-06 0)
(-0.0030339061 -1.1306231e-05 0)
(-0.0029581397 -1.2316487e-05 0)
(-0.0028861301 -1.2348663e-05 0)
(-0.0028176912 -1.1972274e-05 0)
(-0.0027522143 -1.1415004e-05 0)
(-0.0026891177 -1.0694517e-05 0)
(-0.002627285 -9.8895978e-06 0)
(-0.0025662374 -9.1427862e-06 0)
(-0.0025058037 -8.4525494e-06 0)
(-0.0024460104 -7.8085381e-06 0)
(-0.0023869783 -7.2034907e-06 0)
(-0.0023289165 -6.6263699e-06 0)
(-0.0022721794 -6.0464984e-06 0)
(-0.0022174918 -5.4788436e-06 0)
(-0.0021642225 -4.9711717e-06 0)
(-0.0021131858 -4.48786e-06 0)
(-0.0020646418 -4.0256629e-06 0)
(-0.0020187922 -3.5853132e-06 0)
(-0.0019758359 -3.1686954e-06 0)
(-0.0019359284 -2.7789711e-06 0)
(-0.0018991965 -2.4133582e-06 0)
(-0.0018657518 -2.07277e-06 0)
(-0.001835579 -1.7638801e-06 0)
(-0.0018085495 -1.4862379e-06 0)
(-0.0017844873 -1.2393712e-06 0)
(-0.0017631816 -1.0262112e-06 0)
(-0.0017443839 -8.4574821e-07 0)
(-0.0017278392 -6.9299992e-07 0)
(-0.0017133473 -5.6340734e-07 0)
(-0.0017006974 -4.5638858e-07 0)
(-0.001689624 -3.6884896e-07 0)
(-0.0016798422 -3.0040288e-07 0)
(-0.0016710716 -2.5152062e-07 0)
(-0.0016630573 -2.1845553e-07 0)
(-0.0016556378 -1.937737e-07 0)
(-0.0016486938 -1.7739171e-07 0)
(-0.00164207 -1.707259e-07 0)
(-0.0016356075 -1.7078624e-07 0)
(-0.0016291868 -1.755862e-07 0)
(-0.0016227239 -1.830612e-07 0)
(-0.0016161784 -1.9109283e-07 0)
(-0.0016095219 -2.0012236e-07 0)
(-0.0016027116 -2.120052e-07 0)
(-0.0015956551 -2.2626759e-07 0)
(-0.001588285 -2.4021913e-07 0)
(-0.0015806004 -2.5188749e-07 0)
(-0.0015726329 -2.616284e-07 0)
(-0.0015643994 -2.6985753e-07 0)
(-0.0015559144 -2.7579568e-07 0)
(-0.0015472312 -2.7802533e-07 0)
(-0.0015384386 -2.7656974e-07 0)
(-0.0015296026 -2.7314283e-07 0)
(-0.0015207431 -2.6865213e-07 0)
(-0.0015118656 -2.63236e-07 0)
(-0.0015029986 -2.5666204e-07 0)
(-0.001494175 -2.4966023e-07 0)
(-0.0014853975 -2.4296859e-07 0)
(-0.0014766696 -2.3575622e-07 0)
(-0.0014680242 -2.2765965e-07 0)
(-0.0014594923 -2.1934264e-07 0)
(-0.0014510716 -2.1145068e-07 0)
(-0.0014427631 -2.0328244e-07 0)
(-0.0014345851 -1.9503706e-07 0)
(-0.0014265274 -1.8770388e-07 0)
(-0.0014185618 -1.8100914e-07 0)
(-0.0014106853 -1.7433145e-07 0)
(-0.0014029103 -1.6783095e-07 0)
(-0.0013952271 -1.6190504e-07 0)
(-0.0013876352 -1.5571953e-07 0)
(-0.0013801598 -1.4940476e-07 0)
(-0.0013727928 -1.4382339e-07 0)
(-0.0013655145 -1.3837654e-07 0)
(-0.0013583331 -1.3297967e-07 0)
(-0.0013512383 -1.2824948e-07 0)
(-0.0013442162 -1.235649e-07 0)
(-0.0013372837 -1.1873343e-07 0)
(-0.0013304425 -1.143262e-07 0)
(-0.0013236841 -1.099504e-07 0)
(-0.001317017 -1.0562536e-07 0)
(-0.0013104297 -1.0181775e-07 0)
(-0.0013039094 -9.8071088e-08 0)
(-0.0012974644 -9.4361356e-08 0)
(-0.0012910958 -9.0850711e-08 0)
(-0.0012848041 -8.7370489e-08 0)
(-0.0012785855 -8.4146694e-08 0)
(-0.0012724328 -8.1032072e-08 0)
(-0.0012663477 -7.8020642e-08 0)
(-0.0012603248 -7.5204558e-08 0)
(-0.0012543665 -7.2405422e-08 0)
(-0.0012484653 -6.9812458e-08 0)
(-0.0012426302 -6.7414896e-08 0)
(-0.0012367812 -6.513733e-08 0)
(-0.0012311785 -6.2396851e-08 0)
(-0.0012250859 -1.5454043e-07 0)
(-0.0012197829 -2.8641671e-07 0)
(-0.0012117838 -2.7209993e-07 0)
)
;
    }
    frontandback
    {
        type            empty;
    }
}


// ************************************************************************* //
