/*--------------------------------*- C++ -*----------------------------------*\
  =========                 |
  \\      /  F ield         | OpenFOAM: The Open Source CFD Toolbox
   \\    /   O peration     | Website:  https://openfoam.org
    \\  /    A nd           | Version:  12
     \\/     M anipulation  |
\*---------------------------------------------------------------------------*/
FoamFile
{
    format      ascii;
    class       volScalarField;
    location    "1400";
    object      yPlus;
}
// * * * * * * * * * * * * * * * * * * * * * * * * * * * * * * * * * * * * * //

dimensions      [];

internalField   uniform 0;

boundaryField
{
    inlet
    {
        type            calculated;
        value           uniform 0;
    }
    top
    {
        type            calculated;
        value           uniform 0;
    }
    outlet
    {
        type            calculated;
        value           uniform 0;
    }
    slipsurface
    {
        type            calculated;
        value           uniform 0;
    }
    bottom
    {
        type            calculated;
        value           nonuniform List<scalar> 
100
(
115.85497
114.57556
113.22188
111.77676
110.34311
108.9581
107.62429
106.34066
105.09784
103.88615
102.6849
101.48496
100.28293
99.079283
97.876434
96.678765
95.493916
94.337671
93.197615
92.092126
91.028177
90.011734
89.048905
88.144989
87.304729
86.532568
85.829983
85.195668
84.626976
84.120227
83.670581
83.272822
82.922851
82.616152
82.34674
82.108016
81.893379
81.696761
81.514316
81.343191
81.179622
81.019718
80.860535
80.69999
80.537069
80.371044
80.200825
80.024074
79.839052
79.645677
79.444685
79.236448
79.021273
78.800468
78.576247
78.35027
78.12304
77.89468
77.66592
77.437611
77.209822
76.982654
76.756969
76.533594
76.312489
76.093703
75.877735
75.664343
75.452796
75.243028
75.035392
74.82964
74.625775
74.424494
74.225597
74.028571
73.833651
73.640574
73.448977
73.259336
73.071707
72.885874
72.702089
72.520044
72.339398
72.160399
71.983079
71.807475
71.633487
71.460922
71.289845
71.120113
70.951802
70.784706
70.619095
70.452697
70.292931
70.118781
69.96687
69.737082
)
;
    }
    frontandback
    {
        type            empty;
    }
}


// ************************************************************************* //
