#      distance             U_x             U_y             U_z wallShearStr... wallShearStr... wallShearStr...               p         epsilon               k             nut
  3.0219182e-06     0.031898352   5.3475647e-09  -5.2121078e-23               0               0               0   0.00042883035         9.68063   0.00048530883    4.828208e-09
  5.0865428e-06     0.052701296   1.3475409e-08  -2.2272823e-23               0               0               0   0.00042883089       6.4394713    0.0010226868   1.9290157e-08
  7.2269684e-06     0.072319881   2.5737622e-08   -4.016145e-23               0               0               0   0.00042883155       5.3912594    0.0016220131   4.9173884e-08
  9.4750924e-06     0.090160221   4.1752077e-08  -6.0235732e-23               0               0               0   0.00042883238        4.893247    0.0022070725   9.4448046e-08
  1.1864417e-05      0.10613478   6.1287783e-08  -2.3728926e-23               0               0               0   0.00042883342       4.5721481    0.0027356136   1.5161505e-07
  1.4430548e-05      0.12052998    8.446966e-08   4.9716922e-23               0               0               0   0.00042883469       4.3108687    0.0031975967   2.1738969e-07
  1.7211727e-05      0.13372559   1.1167433e-07   8.1875523e-23               0               0               0   0.00042883617       4.0716827    0.0035990994    2.900623e-07
  2.0249401e-05      0.14605152   1.4345432e-07   2.0458773e-23               0               0               0   0.00042883789       3.8424668    0.0039500737   3.6917226e-07
  2.3588836e-05      0.15776055   1.8051812e-07  -1.6090367e-23               0               0               0   0.00042883986       3.6194045    0.0042596304    4.549844e-07
  2.7279799e-05      0.16903979   2.2373216e-07  -8.0451837e-24               0               0               0   0.00042884211       3.4014869    0.0045350267   5.4817451e-07
  3.1377293e-05      0.18002741   2.7413094e-07               0               0               0               0    0.0004288447       3.1887117    0.0047818102   6.4967831e-07
  3.5942381e-05      0.19082626   3.3293404e-07   2.9677978e-23               0               0               0   0.00042884765       2.9814572    0.0050041947   7.6062714e-07
  4.1043091e-05      0.20151362    4.015696e-07   4.4512205e-23               0               0               0   0.00042885104       2.7802435    0.0052054095   8.8232648e-07
  4.6755437e-05      0.21214803    4.817038e-07    5.213265e-23               0               0               0   0.00042885492       2.5856291    0.0053879713   1.0162563e-06
  5.3164546e-05      0.22277411   5.7527616e-07    5.594165e-23               0               0               0   0.00042885939       2.3981582    0.0055538839   1.1640835e-06
  6.0365928e-05      0.23342586   6.8454105e-07  -9.5143575e-23               0               0               0   0.00042886451       2.2183282    0.0057047815   1.3276813e-06
    6.84669e-05      0.24412914   8.1211595e-07  -2.0086884e-22               0               0               0   0.00042887041       2.0465689    0.0058420303   1.5091549e-06
  7.7588184e-05      0.25490347   9.6103761e-07   -1.080477e-22               0               0               0    0.0004288772       1.8832274    0.0059668012   1.7108703e-06
   8.786571e-05       0.2657633    1.134827e-06   3.5427966e-23               0               0               0   0.00042888503       1.7285599    0.0060801202   1.9354887e-06
  9.9452634e-05       0.2767191   1.3375644e-06   1.5747923e-22               0               0               0   0.00042889405       1.5827273    0.0061829035   2.1860041e-06
  0.00011252163      0.28777812   1.5739762e-06     2.97071e-23               0               0               0   0.00042890446       1.4457958     0.006275982   2.4657858e-06
  0.00012726745      0.29894503   1.8495351e-06  -9.1747689e-23               0               0               0   0.00042891647       1.3177402    0.0063601176    2.778626e-06
  0.00014390985      0.31022245   2.1705765e-06  -2.0369195e-23               0               0               0   0.00042893033       1.1984507    0.0064360145    3.128792e-06
  0.00016269684      0.32161134   2.5444318e-06    5.216381e-23               0               0               0   0.00042894633       1.0877415    0.0065043258   3.5210848e-06
  0.00018390838      0.33311136   2.9795839e-06   4.1111919e-22               0               0               0   0.00042896482      0.98536107    0.0065656585   3.9609037e-06
  0.00020786057      0.34472119   3.4858462e-06   5.1230196e-22               0               0               0   0.00042898618      0.89100262     0.006620576   4.4543172e-06
  0.00023491035      0.35643876   4.0745703e-06   1.5334657e-22               0               0               0   0.00042901086      0.80431537    0.0066695995   5.0081418e-06
  0.00026546084      0.36826145   4.7588859e-06               0               0               0               0   0.00042903937      0.72491518    0.0067132094   5.6300273e-06
   0.0002999673      0.38018632   5.5539796e-06               0               0               0               0   0.00042907231      0.65239469    0.0067518458   6.3285506e-06
  0.00033894396      0.39221025   6.4774181e-06  -1.7104809e-22               0               0               0   0.00042911037      0.58633256    0.0067859084   7.1133167e-06
  0.00038297165      0.40433008   7.5495223e-06  -3.4209618e-22               0               0               0   0.00042915434      0.52630157    0.0068157573   7.9950677e-06
  0.00043270649      0.41654276   8.7938041e-06   7.3872274e-22               0               0               0   0.00042920513      0.47187574    0.0068417128   8.9857982e-06
  0.00048888965      0.42884545   1.0237472e-05    1.438367e-21               0               0               0   0.00042926378      0.42263613    0.0068640556   1.0098877e-05
  0.00055235838      0.44123562   1.1912023e-05   5.2859622e-22               0               0               0   0.00042933151      0.37817568    0.0068830269   1.1349173e-05
   0.0006240585      0.45371117   1.3853929e-05               0               0               0               0   0.00042940968      0.33810286    0.0068988281   1.2753181e-05
  0.00070505852       0.4662705   1.6105443e-05   2.4701596e-22               0               0               0   0.00042949987       0.3020445    0.0069116206   1.4329146e-05
  0.00079656552      0.47891262   1.8715543e-05   4.9403193e-22               0               0               0   0.00042960389      0.26964768    0.0069215248   1.6097181e-05
  0.00089994316       0.4916372   2.1741034e-05   2.4701596e-22               0               0               0    0.0004297238      0.24058099    0.0069286195   1.8079365e-05
    0.001016732       0.5044447   2.5247851e-05               0               0               0               0   0.00042986193      0.21453507    0.0069329398    2.029982e-05
   0.0011486725      0.51733643   2.9312597e-05   1.0666282e-21               0               0               0   0.00043002094      0.19122277    0.0069344756   2.2784741e-05
   0.0012977308      0.53031469   3.4024356e-05  -8.2738607e-22               0               0               0   0.00043020385      0.17037879     0.006933168    2.556238e-05
   0.0014661282      0.54338281   3.9486857e-05   -3.641707e-21               0               0               0   0.00043041404      0.15175912    0.0069289062   2.8662937e-05
   0.0016563743      0.55654536    4.582105e-05  -2.8906523e-21               0               0               0   0.00043065535      0.13514016    0.0069215219   3.2118353e-05
   0.0018713042      0.56980818   5.3168199e-05  -1.7514155e-21               0               0               0   0.00043093203      0.12031775    0.0069107839   3.5961947e-05
   0.0021141207      0.58317862   6.1693595e-05  -6.0845601e-22               0               0               0   0.00043124882      0.10710599    0.0068963899   4.0227865e-05
   0.0023884425      0.59666568   7.1591056e-05  -4.5035776e-22               0               0               0   0.00043161096     0.095336081    0.0068779566   4.4950277e-05
   0.0026983575      0.61028017   8.3088392e-05   1.2477435e-21               0               0               0   0.00043202417     0.084855101    0.0068550082   5.0162245e-05
   0.0030484842      0.62403501   9.6454075e-05  -2.3990754e-21               0               0               0   0.00043249462     0.075524777    0.0068269609    5.589419e-05
   0.0034440402      0.63794542   0.00011200543  -5.9658144e-21               0               0               0   0.00043302889     0.067220274    0.0067931043   6.2171841e-05
   0.0038909203      0.65202928    0.0001301187  -1.8686377e-21               0               0               0   0.00043363381     0.059829028     0.006752578   6.9013552e-05
    0.004395784      0.66630743   0.00015124151   3.5299656e-21               0               0               0   0.00043431624     0.053249611    0.0067043423   7.6426846e-05
   0.0049661549       0.6808041   0.00017590836  -4.5154793e-21               0               0               0   0.00043508277      0.04739065    0.0066471418   8.4404027e-05
   0.0056105328      0.69554735    0.0002047598  -1.4338285e-20               0               0               0   0.00043593915      0.04216979    0.0065794591   9.2916686e-05
   0.0063385204      0.71056956   0.00023856649   5.0953908e-21               0               0               0   0.00043688951     0.037512711    0.0064994572   0.00010190892
   0.0071609664      0.72590804   0.00027825882   1.8839783e-20               0               0               0   0.00043793515      0.03335218    0.0064049055   0.00011128909
   0.0080901272      0.74160558   0.00032496355   2.5923714e-20               0               0               0   0.00043907288     0.029627142    0.0062930876   0.00012091989
   0.0091398493      0.75771117   0.00038005205   2.8518177e-20               0               0               0   0.00044029365      0.02628183    0.0061606833   0.00013060667
    0.010325776      0.77428052    0.0004452119   1.4205934e-20               0               0               0   0.00044158131     0.023264895    0.0060036197   0.00014008384
     0.01166558      0.79137657   0.00052253329   4.1599205e-21               0               0               0   0.00044289962     0.020528526    0.0058168847   0.00014899936
    0.013179228      0.80906968   0.00061430276    2.114024e-20               0               0               0   0.00044418247     0.018027583    0.0055942939   0.00015689737
    0.014889277      0.82743686   0.00072367606   2.2507606e-20               0               0               0   0.00044533947     0.015718724    0.0053282111   0.00016319942
    0.016821209       0.8465596   0.00085461453   4.2708215e-20               0               0               0   0.00044624785     0.013559644    0.0050092306   0.00016718476
    0.019003816      0.86651841    0.0010113813    6.073326e-20               0               0               0   0.00044673107      0.01150858    0.0046258674   0.00016797129
    0.021469624      0.88738083    0.0011991942   3.0133422e-20               0               0               0   0.00044652848    0.0095246334    0.0041643939   0.00016450057
    0.024255377      0.90917455    0.0014239973   9.9734052e-21               0               0               0    0.0004452579    0.0075702419    0.0036092269   0.00015553668
    0.027402591      0.93182364     0.001690898  -7.6764367e-22               0               0               0   0.00044238246    0.0056195454    0.0029451246   0.00013971481
    0.030958166      0.95496637    0.0020050563               0               0               0               0   0.00043748502    0.0036851489    0.0021663431   0.00011584298
    0.034975088      0.97723182    0.0023590436               0               0               0               0   0.00043005204    0.0019203399    0.0013233621   8.4495942e-05
    0.039513219      0.99467008    0.0026616645   3.5950486e-20               0               0               0   0.00041784692   0.00068429821   0.00061839083   5.7220965e-05
    0.044640187       1.0037144    0.0028081347   3.1435695e-20               0               0               0   0.00040076969   0.00014882414    0.0002513337   5.9423611e-05
    0.050432395       1.0063612    0.0028341489  -3.0701821e-20               0               0               0   0.00038293247   2.8285587e-05   0.00015098877   0.00010101107
    0.056976161       1.0068461    0.0028243864  -2.9889449e-20               0               0               0   0.00036647472   1.1448108e-05   0.00013608451    0.0001591316
    0.064369002       1.0069642    0.0028072988  -3.7024843e-21               0               0               0   0.00035050848   7.9253468e-06   0.00013412855   0.00020883183
    0.072721087       1.0070095    0.0027862053               0               0               0               0   0.00033425315   6.6866838e-06    0.0001344556   0.00024511127
    0.082156882       1.0070234    0.0027608891               0               0               0               0   0.00031788629   6.0605658e-06   0.00013530495   0.00027283915
    0.092817002       1.0070166    0.0027316684               0               0               0               0   0.00030203058   5.6543578e-06   0.00013620139   0.00029591572
