#      distance             U_x             U_y             U_z wallShearStr... wallShearStr... wallShearStr...               p         epsilon               k             nut
              0      0.99903275               0               0               0               0               0    0.0086356159   0.00069514401    4.727026e-05   2.8930243e-07
   0.0021021021      0.99900474               0               0               0               0               0     0.008669858   0.00069378499   4.7129337e-05   2.8814373e-07
   0.0042042042      0.99897674               0               0               0               0               0    0.0087041001   0.00069242597   4.6988414e-05   2.8698504e-07
   0.0063063063      0.99894874               0               0               0               0               0    0.0087383422   0.00069106695   4.6847491e-05   2.8582634e-07
   0.0084084084      0.99892074               0               0               0               0               0    0.0087725843   0.00068970792   4.6706568e-05   2.8466765e-07
    0.010510511      0.99888886               0               0               0               0               0    0.0088112942    0.0006884274   4.6572618e-05    2.835637e-07
    0.012612613      0.99885458               0               0               0               0               0     0.008852779   0.00068719564   4.6442999e-05   2.8249375e-07
    0.014714715      0.99882029               0               0               0               0               0    0.0088942638   0.00068596387   4.6313379e-05    2.814238e-07
    0.016816817      0.99878601               0               0               0               0               0    0.0089357486   0.00068473211    4.618376e-05   2.8035385e-07
    0.018918919      0.99875173               0               0               0               0               0    0.0089772334   0.00068350035   4.6054141e-05    2.792839e-07
    0.021021021      0.99871645               0               0               0               0               0     0.009019844   0.00068228218   4.5925695e-05     2.78223e-07
    0.023123123      0.99867445               0               0               0               0               0    0.0090700234   0.00068115545    4.580514e-05   2.7722293e-07
    0.025225225      0.99863246               0               0               0               0               0    0.0091202028   0.00068002873   4.5684586e-05   2.7622287e-07
    0.027327327      0.99859047               0               0               0               0               0    0.0091703821     0.000678902   4.5564031e-05    2.752228e-07
    0.029429429      0.99854847               0               0               0               0               0    0.0092205615   0.00067777527   4.5443477e-05   2.7422274e-07
    0.031531532      0.99850405               0               0               0               0               0    0.0092734299   0.00067667137   4.5324816e-05   2.7323691e-07
    0.033633634      0.99845253               0               0               0               0               0    0.0093341526   0.00067563415   4.5211686e-05   2.7229266e-07
    0.035735736      0.99840101               0               0               0               0               0    0.0093948753   0.00067459692   4.5098557e-05   2.7134842e-07
    0.037837838      0.99834949               0               0               0               0               0     0.009455598    0.0006735597   4.4985428e-05   2.7040417e-07
     0.03993994      0.99829797               0               0               0               0               0    0.0095163207   0.00067252247   4.4872298e-05   2.6945993e-07
    0.042042042      0.99823553               0               0               0               0               0    0.0095888559   0.00067155733   4.4764849e-05   2.6855694e-07
    0.044144144      0.99817207               0               0               0               0               0    0.0096624981   0.00067059894   4.4657933e-05   2.6765781e-07
    0.046246246      0.99810861               0               0               0               0               0    0.0097361403   0.00066964055   4.4551016e-05   2.6675869e-07
    0.048348348      0.99804459               0               0               0               0               0    0.0098103741   0.00066868479   4.4444294e-05   2.6586091e-07
     0.05045045      0.99796609               0               0               0               0               0     0.009900137   0.00066779817   4.4342678e-05    2.649985e-07
    0.052552553      0.99788759               0               0               0               0               0    0.0099898998   0.00066691156   4.4241062e-05   2.6413609e-07
    0.054654655      0.99780909               0               0               0               0               0     0.010079663   0.00066602494   4.4139446e-05   2.6327368e-07
    0.056756757      0.99771955               0               0               0               0               0     0.010180806   0.00066517598   4.4040431e-05   2.6242834e-07
    0.058858859       0.9976213               0               0               0               0               0     0.010290921    0.0006643567   4.3943468e-05   2.6159646e-07
    0.060960961      0.99752305               0               0               0               0               0     0.010401035   0.00066353742   4.3846505e-05   2.6076459e-07
    0.063063063      0.99741409               0               0               0               0               0     0.010522563   0.00066274637   4.3751255e-05   2.5994264e-07
    0.065165165      0.99729066               0               0               0               0               0      0.01065952   0.00066199347   4.3658321e-05   2.5913411e-07
    0.067267267      0.99716723               0               0               0               0               0     0.010796477   0.00066124057   4.3565387e-05   2.5832559e-07
    0.069369369      0.99702177               0               0               0               0               0     0.010953948   0.00066052221   4.3474914e-05   2.5753355e-07
    0.071471471       0.9968606               0               0               0               0               0     0.011126044   0.00065982847   4.3386194e-05   2.5675326e-07
    0.073573574      0.99669943               0               0               0               0               0      0.01129814   0.00065913473   4.3297475e-05   2.5597297e-07
    0.075675676      0.99649432               0               0               0               0               0       0.0115226    0.0006585448   4.3210487e-05   2.5517436e-07
    0.077777778      0.99628871               0               0               0               0               0     0.011747654   0.00065795605   4.3123519e-05   2.5437554e-07
     0.07987988       0.9960238               0               0               0               0               0     0.012013848   0.00065729251    4.304265e-05   2.5367795e-07
    0.081981982      0.99571903               0               0               0               0               0     0.012307701   0.00065657869   4.2965881e-05   2.5304843e-07
    0.084084084      0.99538403               0               0               0               0               0     0.012658181   0.00065623139   4.2881769e-05   2.5219426e-07
    0.086186186      0.99499809               0               0               0               0               0      0.01310405    0.0006565015   4.2785289e-05   2.5096165e-07
    0.088288288      0.99444333               0  -9.2978939e-22               0               0               0      0.01359217   0.00065573261   4.2705036e-05   2.5032374e-07
     0.09039039      0.99344613               0   -4.296142e-21               0               0               0     0.014191014   0.00065224098    4.266731e-05   2.5124428e-07
    0.092492492      0.99249667               0   1.3016936e-17               0               0               0     0.015134532   0.00073166417   4.2554353e-05   2.4035411e-07
    0.094594595      0.99167309               0   6.0382203e-17               0               0               0     0.016986909    0.0010297221   4.2243023e-05   1.9832075e-07
    0.096696697      0.90377654               0   9.1821646e-17  -0.00068367158  -3.1334647e-06               0     0.018413785       5.8434265   3.8274147e-05   1.4786823e-07
    0.098798799      0.64400705               0   9.1825171e-17   -0.0027168396  -1.2452062e-05               0     0.019000765       23.217517   2.7085657e-05   8.0797175e-08
      0.1009009       0.3842838               0   7.1206669e-17   -0.0045448088  -1.7801726e-05  -1.6084311e-18     0.018226922       42.361663   1.6048047e-05   3.2934095e-08
       0.103003       0.1246222               0   2.3092131e-17   -0.0060991796  -1.7859478e-05  -5.3614369e-18     0.015638647       63.865882    5.211611e-06   1.0681645e-08
     0.10510511               0               0               0    -0.006535524  -1.3092054e-05  -5.8172496e-18     0.013387699       75.514735   1.1128304e-08   1.6659876e-12
     0.10720721               0               0               0   -0.0059400887  -3.8716779e-06   -3.230221e-18     0.011448054       78.068482   1.1830836e-08   1.4364731e-12
     0.10930931               0               0               0   -0.0055805563  -1.2192074e-07  -4.9838625e-19     0.010389913        77.25984   1.1573694e-08   1.3018704e-12
     0.11141141               0               0               0    -0.005380852  -7.8595377e-08    2.331557e-18    0.0099290049       74.173125   1.0666359e-08   1.2315718e-12
     0.11351351               0               0               0   -0.0052237362  -5.7693202e-08   1.6355363e-18    0.0096024359       71.354494   9.8731645e-09   1.1772807e-12
     0.11561562               0               0               0   -0.0050889389  -4.8541925e-08  -9.0826931e-19    0.0093462675       68.676351   9.1397853e-09   1.1313782e-12
     0.11771772               0               0               0    -0.004978244  -4.2225559e-08  -1.0798979e-18    0.0091061053        66.43515   8.5527463e-09   1.0942675e-12
     0.11981982               0               0               0   -0.0048779025  -3.7126963e-08  -2.3253017e-19    0.0088728188       64.381643   8.0285696e-09   1.0609336e-12
     0.12192192               0               0               0   -0.0047908616  -3.3566304e-08               0    0.0086750203       62.593872   7.5900594e-09    1.032404e-12
     0.12402402               0               0               0   -0.0047088509  -3.0587291e-08               0    0.0084906432       60.906601    7.183948e-09   1.0056915e-12
     0.12612613               0               0               0   -0.0046360173  -2.8198591e-08               0    0.0083391877       59.412856   6.8370439e-09   9.8224631e-13
     0.12822823               0               0               0   -0.0045665147  -2.6024153e-08               0    0.0081996815       57.989353   6.5116296e-09   9.5998702e-13
     0.13033033               0               0               0   -0.0045042715  -2.4161247e-08               0     0.008078669       56.722199   6.2309645e-09   9.4025668e-13
     0.13243243               0               0               0   -0.0044448072  -2.2417596e-08               0    0.0079647361       55.514896   5.9674297e-09   9.2149444e-13
     0.13453453               0               0               0   -0.0043909709  -2.0919222e-08  -3.7495899e-19    0.0078588594       54.429176   5.7367857e-09   9.0465646e-13
     0.13663664               0               0               0   -0.0043396244  -1.9529352e-08  -9.1579287e-19    0.0077565466       53.397242    5.520692e-09   8.8866973e-13
     0.13873874               0               0               0   -0.0042924316  -1.8323792e-08  -1.1086735e-18    0.0076609957       52.454989   5.3278015e-09   8.7408309e-13
     0.14084084               0               0               0   -0.0042475413    -1.72204e-08  -1.1086736e-18    0.0075691932       51.562449   5.1477732e-09   8.6027256e-13
     0.14294294               0               0               0   -0.0042056332  -1.6236648e-08  -1.0439508e-18    0.0074842497       50.733932   4.9836799e-09   8.4745478e-13
     0.14504505               0               0               0   -0.0041659509  -1.5342189e-08  -9.3092153e-19    0.0074044255       49.953199   4.8314799e-09   8.3537796e-13
     0.14714715               0               0               0   -0.0041283485  -1.4521008e-08   -6.946417e-19     0.007329837        49.21656   4.6898587e-09     8.23985e-13
     0.14924925               0               0               0   -0.0040929968  -1.3779116e-08  -3.2499913e-19    0.0072609137       48.527634   4.5596844e-09   8.1333203e-13
     0.15135135               0               0               0   -0.0040589809  -1.3083029e-08  -6.2111704e-20    0.0071941341       47.866675   4.4359951e-09   8.0311318e-13
     0.15345345               0               0               0   -0.0040272829  -1.2466424e-08   1.5528204e-20    0.0071310742       47.254245   4.3235588e-09   7.9364765e-13
     0.15555556               0               0               0   -0.0039962789  -1.1873831e-08  -6.8371678e-21    0.0070689012       46.656304   4.2143873e-09    7.844057e-13
     0.15765766               0               0               0   -0.0039676291  -1.1362677e-08  -3.6840138e-19     0.007009736       46.107512   4.1162892e-09   7.7592213e-13
     0.15975976               0               0               0   -0.0039391481  -1.0856771e-08  -6.6729311e-19    0.0069509638       45.562224   4.0189608e-09   7.6749247e-13
     0.16186186               0               0               0   -0.0039130641  -1.0425438e-08  -7.5610001e-20    0.0068977757       45.066742   3.9325707e-09   7.5982892e-13
     0.16396396               0               0               0   -0.0038869801  -9.9941052e-09    5.160731e-19    0.0068445876       44.571261   3.8461805e-09   7.5216537e-13
     0.16606607               0               0               0   -0.0038628475  -9.6169298e-09   5.8774679e-19      0.00679547       44.115833   3.7683653e-09   7.4512015e-13
     0.16816817               0               0               0   -0.0038389839   -9.247219e-09   5.8774685e-19    0.0067469134       43.665926    3.691732e-09   7.3816015e-13
     0.17027027               0               0               0   -0.0038164038  -8.9122424e-09   3.3876242e-19    0.0067003291       43.242208   3.6205734e-09   7.3160379e-13
     0.17237237               0               0               0    -0.003794467   -8.594674e-09  -3.5009471e-20    0.0066547334       42.831616   3.5521587e-09   7.2524974e-13
     0.17447447               0               0               0   -0.0037732454  -8.2953553e-09   -2.493201e-19    0.0066105783       42.435556   3.4867166e-09    7.191191e-13
     0.17657658               0               0               0   -0.0037529851  -8.0205635e-09  -2.4932013e-19    0.0065683592       42.059025   3.4252694e-09   7.1328873e-13
     0.17867868               0               0               0   -0.0037329602  -7.7513385e-09   -2.618455e-19    0.0065265914       41.687241    3.364773e-09   7.0753139e-13
     0.18078078               0               0               0    -0.003714177  -7.5114818e-09  -3.4044995e-19    0.0064872049       41.340491   3.3092926e-09   7.0215936e-13
     0.18288288               0               0               0   -0.0036953938  -7.2716251e-09   -4.190544e-19    0.0064478184       40.993742   3.2538122e-09   6.9678732e-13
     0.18498498               0               0               0   -0.0036777403   -7.057017e-09  -2.8097994e-19    0.0064105212       40.669636   3.2027799e-09   6.9176363e-13
     0.18708709               0               0               0   -0.0036602657  -6.8464076e-09  -1.0858992e-19     0.006373555       40.349116    3.152452e-09   6.8679511e-13
     0.18918919               0               0               0   -0.0036434185  -6.6490458e-09   6.9159665e-20    0.0063377802         40.0411   3.1045342e-09   6.8201891e-13
     0.19129129               0               0               0   -0.0036271115  -6.4630889e-09   2.5152324e-19    0.0063030311       39.743848    3.058691e-09   6.7740826e-13
     0.19339339               0               0               0   -0.0036109934  -6.2809374e-09   3.7066035e-19    0.0062686192        39.45034   3.0135567e-09   6.7285518e-13
      0.1954955               0               0               0   -0.0035957325  -6.1160587e-09   2.0281691e-19    0.0062357375       39.173828   2.9716401e-09    6.685634e-13
      0.1975976               0               0               0   -0.0035804717    -5.95118e-09   3.4973474e-20    0.0062028559       38.897316   2.9297234e-09   6.6427162e-13
      0.1996997               0               0               0   -0.0035659568  -5.8003403e-09               0    0.0061714605       38.635513   2.8905439e-09   6.6020596e-13
      0.2018018               0               0               0   -0.0035516382  -5.6531959e-09               0    0.0061404562       38.377581   2.8520849e-09   6.5619982e-13
      0.2039039               0               0               0   -0.0035376357  -5.5116854e-09  -4.6856785e-20    0.0061100221       38.125844   2.8147591e-09     6.52289e-13
     0.20600601               0               0               0   -0.0035241729  -5.3797898e-09   -1.736801e-19    0.0060805612       37.884677   2.7793673e-09   6.4854086e-13
     0.20810811               0               0               0     -0.00351071  -5.2478943e-09  -3.0050341e-19    0.0060511002       37.643511   2.7439756e-09   6.4479272e-13
     0.21021021               0               0               0   -0.0034979572  -5.1280893e-09  -3.1156075e-19    0.0060228561       37.416208   2.7110792e-09   6.4125759e-13
     0.21231231               0               0               0   -0.0034852723  -5.0094391e-09  -3.1156081e-19    0.0059947283       37.190229   2.6784211e-09   6.3774281e-13
     0.21441441               0               0               0   -0.0034728868  -4.8954686e-09  -2.5978096e-19    0.0059672323       36.970066   2.6467931e-09    6.343174e-13
     0.21651652               0               0               0   -0.0034609141  -4.7879502e-09  -1.3661109e-19    0.0059406072       36.757922   2.6165855e-09   6.3101522e-13
     0.21861862               0               0               0   -0.0034489415  -4.6804317e-09  -1.3441222e-20    0.0059139822       36.545778   2.5863778e-09   6.2771303e-13
     0.22072072               0               0               0   -0.0034375543  -4.5818573e-09               0    0.0058883984       36.344921   2.5581377e-09   6.2458465e-13
     0.22282282               0               0               0   -0.0034262387  -4.4843784e-09               0    0.0058629422       36.145447   2.5301387e-09   6.2147755e-13
     0.22492492               0               0               0   -0.0034151178  -4.3898902e-09               0    0.0058378159       35.949713   2.5027821e-09   6.1842796e-13
     0.22702703               0               0               0    -0.003404405  -4.3016744e-09               0    0.0058133816       35.761824    2.476773e-09   6.1549899e-13
     0.22912913               0               0               0   -0.0033936921  -4.2134585e-09               0    0.0057889473       35.573934    2.450764e-09   6.1257002e-13
     0.23123123               0               0               0   -0.0033833758  -4.1309176e-09  -6.3838123e-20    0.0057653591       35.393629     2.42604e-09   6.0975774e-13
     0.23333333               0               0               0   -0.0033732177  -4.0506398e-09  -1.5313461e-19    0.0057421083        35.21635   2.4018286e-09     6.06992e-13
     0.23543544               0               0               0   -0.0033630932  -3.9708247e-09  -2.3111418e-19    0.0057189201       35.039711    2.377724e-09   6.0423613e-13
     0.23753754               0               0               0   -0.0033534497  -3.8976133e-09  -1.4759933e-19    0.0056966246       34.872204   2.3551454e-09   6.0162114e-13
     0.23963964               0               0               0   -0.0033438061   -3.824402e-09  -6.4084488e-20    0.0056743292       34.704698   2.3325668e-09   5.9900615e-13
     0.24174174               0               0               0   -0.0033343401  -3.7536522e-09   2.0519589e-20     0.005652317       34.540552   2.3105422e-09   5.9644295e-13
     0.24384384               0               0               0   -0.0033251725  -3.6870394e-09   1.0695433e-19    0.0056307809       34.382052   2.2894487e-09   5.9396681e-13
     0.24594595               0               0               0   -0.0033160048  -3.6204267e-09   1.9338907e-19    0.0056092448       34.223552   2.2683552e-09   5.9149067e-13
     0.24804805               0               0               0   -0.0033071169   -3.557472e-09    1.734904e-19    0.0055882482       34.070334   2.2481219e-09   5.8909585e-13
     0.25015015               0               0               0   -0.0032983892  -3.4966117e-09   9.2708652e-20    0.0055675605       33.920141   2.2283811e-09   5.8674758e-13
     0.25225225               0               0               0   -0.0032896615  -3.4357514e-09   1.1926905e-20    0.0055468729       33.769947   2.2086403e-09   5.8439932e-13
     0.25435435               0               0               0   -0.0032812838  -3.3790491e-09               0    0.0055269234       33.626321   2.1899556e-09   5.8215238e-13
     0.25645646               0               0               0   -0.0032729667  -3.3230671e-09               0    0.0055071019       33.483834   2.1714539e-09   5.7992298e-13
     0.25855856               0               0               0   -0.0032646575  -3.2671782e-09   1.3263967e-21    0.0054872941       33.341494   2.1529756e-09   5.7769587e-13
     0.26066066               0               0               0   -0.0032567253  -3.2157184e-09   6.5730565e-20    0.0054681386       33.206187   2.1356138e-09   5.7557742e-13
     0.26276276               0               0               0   -0.0032487931  -3.1642585e-09   1.3013473e-19     0.005448983        33.07088    2.118252e-09   5.7345898e-13
     0.26486486               0               0               0   -0.0032409107  -3.1133869e-09   1.8560414e-19    0.0054299096       32.936501   2.1010356e-09   5.7135483e-13
     0.26696697               0               0               0   -0.0032333374  -3.0661672e-09   1.8560419e-19    0.0054113456       32.807877    2.084722e-09    5.693395e-13
     0.26906907               0               0               0   -0.0032257641  -3.0189474e-09   1.8560423e-19    0.0053927815       32.679253   2.0684085e-09   5.6732417e-13
     0.27117117               0               0               0   -0.0032182596  -2.9724738e-09    1.728843e-19    0.0053743607       32.551904   2.0522927e-09   5.6532852e-13
     0.27327327               0               0               0   -0.0032110221  -2.9288975e-09   1.1076984e-19    0.0053564957        32.42951   2.0369451e-09   5.6340927e-13
     0.27537538               0               0               0   -0.0032037845  -2.8853212e-09   4.8655392e-20    0.0053386307       32.307115   2.0215974e-09   5.6149003e-13
     0.27747748               0               0               0   -0.0031966156  -2.8424362e-09  -1.1543873e-20     0.005320906       32.185987   2.0064437e-09   5.5959035e-13
     0.27957958               0               0               0   -0.0031896948  -2.8020506e-09  -6.4819613e-20    0.0053036883       32.069434   1.9919908e-09   5.5776143e-13
     0.28168168               0               0               0   -0.0031827741  -2.7616649e-09  -1.1809535e-19    0.0052864707       31.952882    1.977538e-09   5.5593251e-13
     0.28378378               0               0               0   -0.0031759049  -2.7218093e-09  -1.6219422e-19    0.0052693385       31.837274   1.9632283e-09   5.5411822e-13
     0.28588589               0               0               0   -0.0031692832  -2.6845009e-09  -1.6219427e-19    0.0052526173       31.726209    1.949606e-09   5.5237423e-13
     0.28798799               0               0               0   -0.0031626615  -2.6471925e-09  -1.6219431e-19    0.0052358961       31.615143   1.9359838e-09   5.5063024e-13
     0.29009009               0               0               0   -0.0031560592  -2.6100848e-09  -1.5864631e-19    0.0052192081       31.504433   1.9224148e-09   5.4889174e-13
     0.29219219               0               0               0   -0.0031497181   -2.575676e-09  -1.0738457e-19    0.0052029666       31.398508   1.9095622e-09    5.472272e-13
     0.29429429               0               0               0   -0.0031433771  -2.5412672e-09  -5.6122826e-20    0.0051867251       31.292583   1.8967096e-09   5.4556267e-13
      0.2963964               0               0               0    -0.003137036  -2.5068585e-09  -4.8610842e-21    0.0051704836       31.186658    1.883857e-09   5.4389813e-13
      0.2984985               0               0               0   -0.0031309342  -2.4747207e-09               0    0.0051547493       31.085099   1.8716512e-09   5.4230108e-13
      0.3006006               0               0               0   -0.0031248574  -2.4428209e-09               0    0.0051390681       30.983997   1.8595131e-09    5.407111e-13
      0.3027027               0               0               0   -0.0031187806  -2.4109211e-09               0     0.005123387       30.882896    1.847375e-09   5.3912113e-13
      0.3048048               0               0               0   -0.0031128738  -2.3805186e-09   2.8137838e-20    0.0051080574       30.784877   1.8356886e-09   5.3757894e-13
     0.30690691               0               0               0   -0.0031070479  -2.3508285e-09   6.9663178e-20     0.005092895       30.688326   1.8242171e-09   5.3605948e-13
     0.30900901               0               0               0    -0.003101222  -2.3211384e-09   1.1118852e-19    0.0050777327       30.591775   1.8127455e-09   5.3454002e-13
     0.31111111               0               0               0   -0.0030954875  -2.2922683e-09   1.2928228e-19    0.0050627253       30.496875   1.8015131e-09   5.3304617e-13
     0.31321321               0               0               0   -0.0030898998  -2.2647141e-09   1.0976757e-19    0.0050479668       30.404625   1.7906646e-09   5.3159343e-13
     0.31531532               0               0               0    -0.003084312    -2.23716e-09   9.0252867e-20    0.0050332083       30.312374    1.779816e-09   5.3014069e-13
     0.31741742               0               0               0   -0.0030787291  -2.2096494e-09   7.1085198e-20    0.0050184577       30.220209   1.7689798e-09   5.2868928e-13
     0.31951952               0               0               0   -0.0030733663  -2.1841511e-09   6.7953789e-20    0.0050040733       30.132013   1.7587125e-09   5.2729938e-13
     0.32162162               0               0               0   -0.0030680036  -2.1586529e-09   6.4822379e-20    0.0049896889       30.043817   1.7484453e-09   5.2590947e-13
     0.32372372               0               0               0   -0.0030626408  -2.1331546e-09    6.169097e-20    0.0049753045       29.955621    1.738178e-09   5.2451957e-13
     0.32582583               0               0               0   -0.0030574028  -2.1087174e-09   7.1364839e-20    0.0049611757       29.869667   1.7282291e-09    5.231644e-13
     0.32792793               0               0               0   -0.0030522528  -2.0850279e-09   9.0062977e-20    0.0049472271       29.785293   1.7185046e-09   5.2183371e-13
     0.33003003               0               0               0   -0.0030471027  -2.0613385e-09   1.0876112e-19    0.0049332784       29.700919     1.70878e-09   5.2050302e-13
     0.33213213               0               0               0   -0.0030419682   -2.037769e-09   1.2331272e-19    0.0049193641       29.616825   1.6990947e-09   5.1917666e-13
     0.33423423               0               0               0   -0.0030370208  -2.0156358e-09   8.8188547e-20    0.0049058614       29.536074   1.6898791e-09   5.1790221e-13
     0.33633634               0               0               0   -0.0030320733  -1.9935026e-09   5.3064375e-20    0.0048923586       29.455323   1.6806636e-09   5.1662776e-13
     0.33843844               0               0               0   -0.0030271259  -1.9713694e-09   1.7940203e-20    0.0048788559       29.374573    1.671448e-09    5.153533e-13
     0.34054054               0               0               0   -0.0030222733  -1.9499628e-09  -2.2349211e-20    0.0048655247       29.295508   1.6624667e-09   5.1410507e-13
     0.34264264               0               0               0   -0.0030175197  -1.9293147e-09  -6.8031178e-20    0.0048523726       29.218203   1.6537301e-09   5.1288422e-13
     0.34474474               0               0               0   -0.0030127662  -1.9086666e-09  -1.1371314e-19    0.0048392204       29.140898   1.6449935e-09   5.1166337e-13
     0.34684685               0               0               0   -0.0030080126  -1.8880185e-09  -1.5939511e-19    0.0048260683       29.063594   1.6362568e-09   5.1044252e-13
     0.34894895               0               0               0   -0.0030034101  -1.8685933e-09  -1.6762978e-19    0.0048131511       28.988968   1.6278889e-09   5.0926332e-13
     0.35105105               0               0               0   -0.0029988409  -1.8494369e-09  -1.6762985e-19    0.0048002855       28.914933   1.6196021e-09   5.0809329e-13
     0.35315315               0               0               0   -0.0029942717  -1.8302806e-09  -1.6762991e-19    0.0047874199       28.840897   1.6113153e-09   5.0692325e-13