#             y      gradU_xx      gradU_xy      gradU_xz      gradU_yx      gradU_yy      gradU_yz      gradU_zx      gradU_zy      gradU_zz             U_x             U_y             U_z              kl              kt             nut           omega
   3.113662e-05    -0.030986222  -3.0685893e-06   1.3370876e-21       1781.3026     0.028544451  -3.5400177e-20  -1.7382114e-13  -2.2704485e-18    -8.77826e-36     0.056019885   5.6507882e-07   1.5417184e-23      0.10186148     0.000168868   1.9526375e-24       3237316.4
  5.3394177e-05    -0.053027429  -8.1483742e-06    9.338018e-22       1780.8476     0.052112585  -4.3843247e-19  -4.3698686e-14  -5.8392133e-19  -1.0721283e-35     0.095695566   1.4898434e-06   5.1606656e-24      0.10318014   9.6072599e-06   5.7980008e-24       222225.71
  7.7022295e-05    -0.076430635  -1.6494506e-05  -1.8305375e-21       1780.3778     0.075923903  -1.9173538e-19   3.2230238e-14   1.5481891e-18  -6.5859063e-36      0.13780361   3.0211502e-06  -4.9136473e-24      0.10458469   1.9810935e-06   1.6266172e-23       53821.318
  0.00010210537     -0.10127962  -2.8691995e-05   -1.798445e-21       1779.8734      0.10093026  -2.8901641e-19   1.7500313e-14   1.1796518e-18  -8.6947236e-36      0.18249231   5.2612443e-06  -3.1616233e-24      0.10608105   9.0604364e-07   7.4035896e-23       21804.714
  0.00012873299     -0.12766289  -4.5348881e-05   2.5975171e-21       1779.3295        0.127267  -7.3949705e-19   1.0504249e-13   8.9511215e-18  -5.7410396e-35      0.22991885   8.3220057e-06  -2.1953418e-23      0.10767559   8.3695904e-07   6.4084262e-22       11265.169
  0.00015700027     -0.15567371  -6.7207466e-05   1.3827956e-21       1778.7401      0.15522834   1.4963147e-19   2.0723671e-13   1.7969263e-17   6.3338787e-37      0.28024974   1.2340072e-05  -4.3829491e-23      0.10937526   1.2376413e-06   7.0230122e-21       6666.8319
  0.00018700818     -0.18541014   -9.512376e-05  -4.3591643e-21       1778.0979      0.18493227    1.324913e-18   4.4195587e-14   2.4259343e-18   6.6791993e-37      0.33366137    1.747291e-05  -6.9519091e-24      0.11118758    2.177246e-06   7.1990622e-20       4298.2611
  0.00021886389     -0.21697487  -0.00013007147   -3.009959e-21       1777.3942      0.21646781   8.6069323e-19  -1.4219405e-13  -1.7467965e-17  -3.7675686e-35      0.39034047   2.3899561e-05   3.8776033e-23       0.1131208   3.9211147e-06   6.3225707e-19       2938.5452
  0.00025268119     -0.25047497  -0.00017315831   9.4829286e-22       1776.6181      0.24993656  -2.7875878e-19  -1.5032493e-13  -2.0735364e-17   1.6222699e-35      0.45048467   3.1823634e-05   4.5135074e-23      0.11518397   6.8926781e-06   4.7324663e-18        2096.306
  0.00028858087      -0.2860214  -0.00022564456   2.8014081e-21       1775.7566      0.28544983  -8.5568384e-19  -5.2462269e-14  -7.8302528e-18  -2.3456864e-36      0.51430297    4.147674e-05    1.684358e-23      0.11738707   1.1702612e-05   3.0696343e-17       1544.4576
  0.00032669115     -0.32372824  -0.00028896266  -4.7126849e-22       1774.7935      0.32312249  -2.8614356e-19   4.7102429e-14   8.7396644e-18    3.579797e-36      0.58201622   5.3122098e-05  -1.8696106e-23      0.11974123   1.9205112e-05   1.7602161e-16       1166.9441
  0.00036714817     -0.36371157  -0.00036473898  -1.0117523e-21       1773.7095      0.36307042   4.2534264e-19    5.984071e-15   9.9360551e-19  -3.6318025e-36      0.65385763   6.7058417e-05  -2.0816701e-24      0.12225892   3.0576531e-05   9.0874235e-16       899.73446
  0.00041009642     -0.40608782  -0.00045481761   4.4812024e-21       1772.4806      0.40540952   1.8054429e-20  -3.5991905e-14  -7.9318449e-18  -1.6742932e-35      0.73007313   8.3624168e-05   1.7297793e-23      0.12495424   4.7419546e-05   4.2896365e-15       705.30906
  0.00045568931     -0.45097148  -0.00056128787   1.1243112e-21        1771.078      0.45025382  -3.9363472e-19   5.5185315e-15   1.1259491e-18   1.5349286e-35      0.81092176   0.00010320228  -2.3202676e-24      0.12784329   7.1899771e-05   1.8752913e-14       560.58803
  0.00050408968     -0.49847197   -0.0006865135   -1.721231e-21       1769.4667      0.49771236  -1.5352511e-19   3.0103984e-14    8.772301e-18  -3.4627805e-37      0.89667585    0.0001262252  -2.0120779e-23      0.13094466   0.00010692471   7.6733089e-14        450.7938
  0.00055547043     -0.54868932  -0.00083316766  -1.8641797e-21       1767.6041      0.54788481   2.1924012e-19   2.3909569e-14   7.4026163e-18  -1.1425795e-35      0.98762117   0.00015318026  -1.7078125e-23      0.13428004   0.00015637852    2.964673e-13       366.14161
  0.00061001506     -0.60170847   -0.0010042706   1.4270971e-21       1765.4388        0.600856   5.1722184e-19  -4.0245371e-15  -2.3156971e-18  -1.4947686e-35       1.0840568   0.00018461529   6.6231688e-24      0.13787504   0.00022543083   1.0895326e-12       299.96506
   0.0006679184     -0.65759167   -0.0012032311   1.0919049e-21       1762.9087      0.65668833    4.656901e-19  -4.5156735e-14  -1.6937159e-17   -1.525181e-35       1.1862946   0.00022114433   4.2339407e-23      0.14176024     0.000320945   3.8323388e-12       247.60948
  0.00072938728      -0.7163685   -0.0014338917  -3.9851269e-21       1759.9385      0.71541169  -1.2292729e-19  -5.6745311e-14  -2.2711198e-17   5.4852805e-37       1.2946589   0.00026345305   5.8135769e-23      0.14597257   0.00045202089   1.2970029e-11       205.75484
  0.00079464125     -0.77802318   -0.0017005795   6.8622918e-21       1756.4373      0.77701056  -5.5023571e-19   -2.037008e-14  -8.4572956e-18  -5.8267952e-36       1.4094847    0.0003123038   2.1531838e-23      0.15055715   0.00063072214   4.2427381e-11       171.98845
  0.00086391338     -0.84247896   -0.0020081605  -1.1812204e-21       1752.2927      0.84140776  -3.4765035e-20   1.0763488e-14   5.1058006e-18   -7.242213e-36       1.5311165   0.00036853942  -1.4024612e-23      0.15556971   0.00087305959   1.3467853e-10        144.5279
   0.0009374511     -0.90958146   -0.0023620908  -5.2250153e-21       1747.3607      0.90844945    -1.78303e-20  -1.3079649e-14  -7.3862546e-18   7.6545016e-36       1.6599045   0.00043308538   2.4299911e-23      0.16107967    0.0012003363   4.1630111e-10       122.03705
   0.0010155171     -0.97908778   -0.0027684536   9.6265598e-21       1741.4399      0.97789151  -8.5299189e-19   8.9322662e-15    6.615544e-18  -1.7761969e-35       1.7962003   0.00050694993  -2.6538439e-23      0.16717428     0.001641011   1.2569129e-09       103.50115
   0.0010983902      -1.0506865   -0.0032340106   -8.727804e-21       1734.2062       1.0493607   1.0135022e-19   5.5289273e-14   3.3218132e-17   7.0333518e-36       1.9403473    0.0005912215  -1.1681138e-22      0.17396365    0.0022333184   3.7162387e-09       88.140545
   0.0011863663       -1.124126   -0.0037664132  -2.8143247e-21         1725.04       1.1222743   9.9116217e-19   1.3457487e-15  -6.9552485e-19  -5.3900093e-36       2.0926598   0.00068705785   1.3576782e-23      0.18158629    0.0030290171   1.0774509e-08        75.34987
   0.0012797599      -1.1996813   -0.0043741839   2.9180437e-20       1712.5919       1.1962219  -3.5941284e-19  -1.9007956e-14  -1.2506495e-17   6.8581651e-36       2.2533726   0.00079566164   5.7299627e-23      0.19021295     0.004098852   3.0594545e-08       64.654593
   0.0013789043      -1.2795746   -0.0050621725  -9.3653153e-21       1693.7705       1.2740663   1.2798812e-19   1.3738212e-14   1.0460033e-17   1.9478361e-35       2.4225125   0.00091834207  -7.3762853e-23      0.20004047    0.0055406795   8.4701786e-08       55.679408
   0.0014841538      -1.3717558   -0.0058111069   -2.343048e-20       1661.7517       1.3694635   5.9488411e-19  -1.0645315e-14   -9.874016e-18  -9.3992884e-37       2.5995799    0.0010571936   1.0715979e-22      0.21125287    0.0074914926   2.2730171e-07       48.125486
   0.0015958843      -1.4963868   -0.0065571541  -1.4792125e-20       1604.8557       1.5050302  -1.0364521e-18  -1.2432515e-14  -9.2762472e-18  -9.6389781e-36       2.7828467    0.0012170747   3.1274241e-23      0.22389376      0.01012446    5.846169e-07       41.778513
   0.0017144948      -1.6758963   -0.0072480299  -5.1642232e-20       1513.5142       1.6878278   7.1817655e-19   6.0209799e-15   7.1717205e-18  -1.2446619e-35       2.9685346    0.0014063127  -1.4806731e-22      0.23755944     0.013488064   1.3470633e-06       36.612286
    0.001840409      -1.8965964   -0.0078959997   2.7930764e-20       1395.5577       1.8915578   6.1101885e-19  -1.0487048e-14  -1.5291165e-17   3.0518646e-35       3.1516183    0.0016330535   2.5905221e-22      0.25100079     0.017245214   2.5365038e-06        32.77273
   0.0019740768      -2.0955733   -0.0085421776   6.7328835e-20       1277.0765       2.0755739  -1.6248738e-18   1.6221951e-15    4.295197e-18    -2.80032e-35       3.3291295    0.0019008178  -3.5103814e-23      0.26218357     0.020852825     3.76371e-06       30.242477
   0.0021159754       -2.219145    -0.009241051   -8.605591e-21       1178.2836       2.2089149   7.1529026e-19   4.3887448e-15   5.1326615e-18  -7.1611382e-35       3.5020122    0.0022081148  -1.6636375e-22      0.26920607     0.024036593   4.6417321e-06       28.655971
   0.0022666117      -2.2752888    -0.010049665   1.0628998e-20       1097.9682       2.2795799   2.5194068e-19  -1.1662761e-14  -2.3592532e-17  -8.7046846e-36       3.6726075    0.0025492204   2.1073303e-22      0.27106515     0.026804275   5.2199813e-06       27.568751
   0.0024265239      -2.2983767    -0.010964024   6.3765686e-21       1025.7001       2.3026282  -2.1913796e-18   7.5919206e-15   1.8366521e-17  -3.3077214e-36        3.841914    0.0029172394  -1.6298963e-22      0.26747265     0.029191664   5.6802612e-06       26.705502
    0.002596283      -2.3019237    -0.011934108  -3.0945657e-20       955.45888       2.3022924  -7.2308145e-19   2.2402885e-14   5.4887118e-17   7.2569583e-36       4.0096603    0.0033089955  -5.1432037e-22       0.2585021     0.031201174   6.0772336e-06       25.938134
   0.0027764954      -2.2853851    -0.012930845  -7.6910119e-21       885.55179       2.2852761   1.4909861e-18   1.5249837e-14   3.8991856e-17  -1.5899731e-35       4.1751349    0.0037233818  -3.7347325e-22      0.24455918     0.032828827   6.4142939e-06       25.207705
   0.0029678048      -2.2470708     -0.01393893   2.0789824e-20       815.08146       2.2475382   1.5002154e-18  -4.1683194e-16  -3.4036147e-18  -2.6100538e-35       4.3374063     0.004158033   9.3563065e-23      0.22644687     0.034069511   6.6978396e-06       24.483996
   0.0031708945      -2.1840177    -0.014935678   1.7697627e-20       742.61038       2.1854047  -6.8347824e-20  -5.9425628e-15  -1.6797359e-17   1.0990054e-35       4.4952213    0.0046092807   1.8215476e-22      0.20538525     0.034917179   6.9635464e-06       23.745758
     0.00338649      -2.0921116    -0.015885296  -1.4947191e-20       666.23678       2.0943004   3.5924678e-20  -8.9380772e-16  -2.3868067e-18  -1.1547459e-35       4.6467618    0.0050717969   1.7558035e-23      0.18291466     0.035365649   7.3055399e-06         22.9708
   0.0036153613        -1.96691    -0.016732635  -1.9077895e-20       584.80875       1.9695869   6.8891749e-19  -2.9252361e-15  -1.0733925e-17  -9.7160761e-36       4.7895235    0.0055379575   2.4679456e-22      0.16067464     0.035407062   7.8488062e-06       22.140126
   0.0038583258      -1.8061459    -0.017403747   9.6365163e-21       499.12334       1.8091871  -4.8676046e-19  -4.3899188e-15   -1.570691e-17   2.3210115e-36       4.9205888    0.0059977857    3.368606e-22      0.14017381     0.035037003   8.7212525e-06       21.244527
   0.0041162514      -1.6123204    -0.017826081   2.0768406e-20       412.07768        1.615631  -8.7798483e-19  -9.4791215e-17   3.6071332e-19   3.2212112e-37       5.0371627    0.0064395209  -5.4729753e-23      0.12257454     0.034269473   1.0061247e-05       20.284355
   0.0043900594      -1.3940223    -0.017954685   1.0275676e-20       328.04507       1.3973864   2.2378034e-19   9.9853129e-16   3.8639157e-18  -2.1757543e-36       5.1371753    0.0068509368  -9.6958941e-23       0.1085242     0.033149037   1.2009247e-05       19.269071
   0.0046807278      -1.1650425    -0.017786834   1.3574658e-20       251.72778       1.1682136  -1.1243301e-19  -5.0130182e-16  -2.4349085e-18    8.326802e-38       5.2197988    0.0072213272   1.0451164e-22     0.098117216     0.031752986   1.4680125e-05       18.217492
   0.0049892948     -0.94096829    -0.017364613   -2.089789e-21       186.74037      0.94381893  -5.1956854e-19   6.8342181e-16   3.7237983e-18   9.1836068e-39       5.2856439    0.0075433845  -2.1497665e-22     0.091000631     0.030183052   1.8142318e-05       17.155521
   0.0053168625     -0.73517188    -0.016763142  -4.1550533e-20        134.6617      0.73769248   5.1988809e-19   6.8448955e-16   3.7046848e-18   -2.610126e-36       5.3365122    0.0078140624  -2.0796225e-22     0.086559691      0.02854912   2.2415505e-05       16.111856
   0.0056646009     -0.55639083    -0.016071597  -1.9814169e-20       95.042915      0.55860826   5.8086307e-19  -3.1980034e-16   -1.973831e-18  -2.1664264e-37       5.3748674    0.0080342888   1.7747127e-22     0.084100379     0.026951879   2.7481439e-05       15.113372
   0.0060337521     -0.40836881     -0.01537403   1.2837139e-20       66.114513      0.41028694  -2.4720421e-19  -3.3402411e-16  -2.0841436e-18   -1.383323e-36       5.4032992    0.0082079909   1.7768451e-22     0.082980317     0.025470678   3.3291404e-05       14.181754
   0.0064256347     -0.29073342    -0.014734135  -1.3990243e-21       45.614085      0.29232794  -4.0768929e-19  -2.3572275e-17  -1.1040097e-19  -3.7220429e-36       5.4241591    0.0083409139  -4.2127395e-23     0.082673013     0.024158672   3.9766103e-05       13.331964
   0.0068416484     -0.20031324    -0.014187795   3.4678225e-22        31.36954      0.20156853   3.3833467e-21   1.3940673e-16   9.0187995e-19   -9.034795e-37       5.4393918    0.0084395054  -1.3592803e-22     0.082790307     0.023043809   4.6790743e-05       12.572233
    0.007283279     -0.13250557    -0.013745436  -6.5117808e-21       21.578759      0.13345105   2.5066368e-19   2.2059486e-17   1.5264142e-19   4.4882741e-38       5.4505084    0.0085100357   -1.098038e-23     0.083085489     0.022133087   5.4212285e-05       11.904961
   0.0077521041     -0.08245408    -0.013400484  -6.3467781e-21       14.873277     0.083141908   4.8174036e-20  -3.7056321e-17  -2.1412958e-19  -6.2895163e-38       5.4586353    0.0085580393   8.5304439e-23     0.083421388     0.021417937   6.1852838e-05       11.327998
   0.0082497982    -0.045803475    -0.013138238   8.5964922e-21       10.271621     0.046308245  -2.9315122e-20  -6.3480681e-18  -2.8380171e-20    4.065378e-37       5.4645908    0.0085880689    2.188556e-23     0.083730584     0.020879511   6.9528411e-05       10.835989
    0.008778139    -0.019016525    -0.012941974  -9.4426424e-21       7.0957841     0.019401222    6.733616e-20   -7.255718e-18   1.2220258e-20  -1.3956545e-36       5.4689604    0.0086037381   6.6716343e-23     0.083989507     0.020493233   7.7060465e-05       10.421606
   0.0093390136    0.0006003488    -0.012795616  -9.9539238e-21       4.8876313  -0.00033576827  -1.3240213e-19   -1.912162e-17  -7.7556885e-20  -4.7176674e-37       5.4721621    0.0086077759   8.3621049e-23     0.084196282     0.020232384   8.4284748e-05       10.076562
   0.0099344254     0.015022906    -0.012687846   4.2998931e-21       3.3403918    -0.014845652  -1.1708984e-19   7.1904611e-18  -7.7189515e-20   1.0342609e-37        5.474495      0.00860222  -1.0819117e-22     0.084357327     0.020070665   9.1058352e-05       9.7923785
    0.010566501      0.02567356    -0.012608697      4.1842e-21        2.248778    -0.025528683   2.1040271e-19   6.3865537e-18    2.079129e-20  -1.3373241e-36       5.4761749    0.0085886561  -2.2393203e-23     0.084480832     0.019983857   9.7264268e-05       9.5608946
    0.011237498     0.033564163    -0.012550023   1.0255889e-20       1.4748276     -0.03345305    9.399274e-20  -5.5257568e-18   1.6457478e-19   9.4652075e-38       5.4773594    0.0085682322     1.82828e-22     0.084574327     0.019950757   0.00010281359       9.3745543
    0.011949813     0.039414363    -0.012507634   1.4939483e-20      0.92490028    -0.039337264  -1.8963973e-19  -2.6399108e-18   6.6272024e-20   4.0328346e-37       5.4781652     0.008541791    7.255065e-23     0.084644135     0.019953585   0.00010764667       9.2265245
    0.012705991     0.043740677    -0.012476933   9.3086938e-21      0.53454676    -0.043697582  -1.3810067e-19   9.0204762e-19   -1.095826e-19  -5.4479291e-37       5.4786798    0.0085099835  -1.0685972e-22     0.084695455     0.019978048   0.00011172809       9.1106997
    0.013508733      0.04691869    -0.012456008  -1.2555324e-21      0.25877666    -0.046882877   4.9384162e-20   8.4262011e-19  -1.3051396e-19   8.6259008e-38       5.4789699    0.0084732693  -1.2665591e-22     0.084732553     0.020013197   0.00011499972        9.021646
    0.014360904     0.049222326     -0.01244305  -4.9197319e-21     0.065403042    -0.049166619   7.7686276e-20   1.2274792e-19  -8.0858219e-21   1.3530079e-37       5.4790865    0.0084320695  -1.2176563e-23     0.084758907     0.020051145   0.00011724785       8.9545278
    0.015265551     0.050868656    -0.012433772   8.6317197e-22    -0.069412333    -0.050846083  -3.1947664e-20  -1.1422324e-19   4.9529045e-21  -1.2196044e-37       5.4790686    0.0083866173  -8.9804598e-25     0.084777315       0.0200867    0.0001183967       8.9050456
    0.016225903     0.052029038     -0.01242964  -1.8970105e-21     -0.16291037    -0.052038782   3.0338606e-21  -2.6970733e-19  -8.1195608e-20   -2.436336e-38       5.4789449    0.0083369984  -8.0243978e-23     0.084789984     0.020116937   0.00011887826       8.8694011
    0.017245391     0.052814378    -0.012429679  -1.0659293e-20     -0.22693271    -0.052807725   9.3793637e-20   2.4823529e-19   3.2444643e-20  -1.8052235e-38        5.478737    0.0082833872   2.5908571e-23     0.084798602     0.020140706   0.00011914853       8.8442919
    0.018327656     0.053315397    -0.012431164   1.5659609e-21     -0.27032213       -0.053305  -2.5048521e-20   6.2753108e-19   1.2346121e-19  -7.2983142e-38       5.4784612     0.008225836   1.1578629e-22     0.084804422     0.020158128   0.00011933734       8.8269248
    0.019476565     0.053621181    -0.012434588   4.9222216e-21      -0.3001685    -0.053617885  -9.6807418e-20  -3.8648319e-19  -5.4840166e-20     3.17934e-37       5.4781287    0.0081642957  -6.2267658e-23     0.084808338     0.020170087   0.00011946267       8.8150282
     0.02069622     0.053802263    -0.012438148   -1.107059e-20     -0.32167968    -0.053799648   7.3287564e-20   -5.763235e-19  -1.0000875e-19    2.514785e-38       5.4777462    0.0080986927  -9.9140049e-23      0.08481096     0.020177797   0.00011953531       8.8068451
    0.021990978     0.053909726    -0.012441044  -5.9492642e-21     -0.33828987    -0.053907656   1.0742973e-19   9.7559141e-19   1.4635174e-19  -5.7991953e-37       5.4773164      0.00802888   1.5956464e-22     0.084812693     0.020182472   0.00011956738       8.8010927
    0.023365464     0.053976947    -0.012442434   1.2642875e-20     -0.35202282    -0.053975339  -8.9997667e-20   9.7547576e-19   1.5489801e-19   5.7823068e-38         5.47684    0.0079546584   1.5675638e-22     0.084813794     0.020185125   0.00011957113       8.7968903
    0.024824587     0.054023294    -0.012441552    8.339274e-21      -0.3639041    -0.054022074  -1.0069041e-19  -8.6836357e-19  -1.2480454e-19  -1.2618177e-37       5.4763159    0.0078757894   -1.284467e-22     0.084814425     0.020186498    0.0001195573       8.7936681
    0.026373559     0.054058555    -0.012437688  -2.2698145e-21      -0.3743341    -0.054057714   4.5184249e-20  -8.6081235e-19  -1.2911962e-19   -4.155831e-37       5.4757424    0.0077920032  -1.0870204e-22     0.084814687     0.020187076   0.00011953436       8.7910738
    0.028017912     0.054086753    -0.012430147  -1.8838587e-21     -0.38336961    -0.054086223   6.1674513e-20   1.9295894e-19   2.6866493e-20  -3.2702209e-38       5.4751176    0.0077030064   2.9378108e-23     0.084814648     0.020187146    0.0001195086        8.788895
     0.02976352     0.054108895    -0.012418208  -1.1400708e-20     -0.39090648    -0.054108543   2.7376181e-20   5.1706711e-19   6.9354802e-20    8.117611e-39         5.47444    0.0076084857   8.8743468e-23     0.084814355     0.020186868   0.00011948464       8.7870018
    0.031616619     0.054124585    -0.012401088   2.8552851e-21     -0.39678421    -0.054124318  -3.1442411e-20   4.7111594e-19   5.9466782e-20  -2.3554589e-38       5.4737082      0.00750811   1.2519957e-22      0.08481384     0.020186328   0.00011946586       8.7853113
    0.033583826     0.054132811    -0.012377889   1.4606557e-20     -0.40083843    -0.054132506  -5.5099962e-20  -5.5062088e-19  -7.5202665e-20   -1.342529e-37       5.4729217    0.0074015301  -5.4054588e-23     0.084813131     0.020185574   0.00011945482       8.7837668
    0.035672168     0.054132526    -0.012347619  -5.3092518e-21     -0.40291997    -0.054132301   2.6895891e-20  -6.9868975e-19  -9.5166307e-20  -7.2737428e-38       5.4720804    0.0072883802  -8.1863627e-23     0.084812248     0.020184635   0.00011945352       8.7823276
    0.037889105     0.054122703    -0.012309138  -9.6554436e-22     -0.40290348    -0.054122508   3.2289323e-20   3.6318377e-19   4.5825723e-20   4.4743702e-39       5.4711852    0.0071682739   8.4065525e-23      0.08481121     0.020183534   0.00011946352       8.7809636
    0.040242556     0.054102357    -0.012261151   1.1167512e-20     -0.40071047    -0.054102325  -3.1627883e-20   3.2255952e-19   4.2994141e-20  -1.9017732e-38       5.4702376    0.0070408096    4.416407e-23     0.084810034     0.020182286   0.00011948591       8.7796523
    0.042740925     0.054070772    -0.012202146  -4.6659436e-21     -0.39632361    -0.054070777  -1.2167296e-20  -3.6719309e-19  -4.7691615e-20  -7.2341771e-39       5.4692402    0.0069055605  -8.0714502e-23     0.084808733     0.020180907   0.00011952124       8.7783771
    0.045393137     0.054027344    -0.012130459  -1.7795931e-20     -0.38977174    -0.054027606   3.5075678e-20  -6.2351709e-20  -8.2727185e-21  -3.4301176e-38       5.4681962     0.006762087    1.714577e-24     0.084807323     0.020179412   0.00011956967        8.777126
    0.048208665     0.053971513    -0.012044144  -2.7516415e-22     -0.38111959    -0.053971866  -8.1968792e-21   5.3483671e-19   7.2249928e-20  -3.1206592e-38       5.4671097     0.006609916   1.1605722e-22     0.084805816     0.020177814   0.00011963105       8.7758908
    0.051197566     0.053902833    -0.011941104   1.4951918e-20     -0.37047405    -0.053903374  -5.7448222e-20  -3.3219952e-19  -4.9727238e-20  -4.9041409e-38       5.4659854    0.0064485683  -7.8056858e-23     0.084804227     0.020176129   0.00011970489       8.7746665
    0.054370516     0.053821038    -0.011818864  -2.5394409e-20     -0.35798365    -0.053821724   2.8520441e-20  -9.0452893e-19  -1.2503419e-19  -2.6627607e-38       5.4648291    0.0062775195  -2.3564711e-22     0.084802568     0.020174371   0.00011979038       8.7734505
    0.057738847     0.053725988    -0.011674819  -3.4463105e-20     -0.34383268    -0.053726757    6.788817e-20   5.0354074e-19   7.6754261e-20  -2.2898446e-38       5.4636469    0.0060962471    1.656281e-22     0.084800855     0.020172555   0.00011988642       8.7722425
    0.061314592      0.05361774     -0.01150587   2.5613714e-20     -0.32823112    -0.053618877  -3.4329021e-20   7.5087063e-19    1.106272e-19  -1.3199585e-38       5.4624456    0.0059041697   2.0139763e-22       0.0847991     0.020170698   0.00011999169       8.7710438
     0.06511052     0.053496451    -0.011308837   1.3999255e-20     -0.31140682    -0.053497465  -2.9112726e-20  -3.2035865e-19  -5.1738688e-20   3.2018079e-38       5.4612323    0.0057007134  -1.2422845e-22     0.084797318     0.020168815   0.00012010472       8.7698571
    0.069140193     0.053362494    -0.011079913  -2.7245586e-20     -0.29359509    -0.053364246   3.4997926e-20  -2.3663439e-19  -4.5222556e-20   3.3533046e-39       5.4600146    0.0054852386   1.9741132e-23     0.084795522     0.020166922   0.00012022394       8.7686859
    0.073418001     0.053216353    -0.010815295  -1.1628969e-20     -0.27503031    -0.053217602   5.4241129e-21   1.7836853e-19   2.2681394e-20   5.6874557e-39       5.4588002    0.0052571036     1.64384e-22     0.084793726     0.020165035   0.00012034774       8.7675347
    0.077959226     0.053058792    -0.010510439   3.5765283e-21     -0.25593513    -0.053061199  -1.6523685e-20   5.1148695e-20   6.4520447e-21   1.0123985e-38       5.4575969    0.0050156174   4.0604488e-23     0.084791945     0.020163167   0.00012047453       8.7664086
    0.082780087     0.052890714    -0.010160916   -4.784577e-21     -0.23651339    -0.052892092   3.2205767e-21  -4.9910814e-20  -1.3612118e-20   4.9798794e-39       5.4564127    0.0047600373   2.0987883e-23     0.084790191     0.020161334   0.00012060282       8.7653127
    0.087897803     0.052713396    -0.009761509   5.0719458e-21     -0.21694455    -0.052716378  -2.1711659e-21   1.4481741e-20  -4.0865495e-21   5.2002078e-39       5.4552558    0.0044896417   8.4395434e-23     0.084788478      0.02015955   0.00012073119       8.7642528
    0.093330656     0.052528341   -0.0093072357  -1.3248294e-21     -0.19737898    -0.052529808   2.3033353e-21   1.5971262e-20   6.8028056e-21   1.4331106e-39       5.4541342    0.0042035284  -1.8259487e-23     0.084786819     0.020157828   0.00012085835       8.7632348
