#             y             U_x             U_y             U_z              kl              kt             nut           omega
   3.113662e-05      0.13295758   5.8721377e-07  -1.9282184e-23     0.097758047   0.00017060821   1.4420977e-23       3237316.4
  5.3394177e-05      0.22710778   1.5451894e-06  -1.0618322e-23     0.096178547   1.8486331e-05   2.6151025e-21       222225.71
  7.7022295e-05      0.32703834   3.1297388e-06   2.0079845e-23     0.094508837   4.0296852e-05   3.7664936e-19       53821.321
  0.00010210537      0.43310275   5.4460528e-06   1.3751561e-23     0.092744295   0.00013086772    2.099493e-17       21804.724
  0.00012873299      0.54567576   8.6093267e-06  -3.4431085e-23     0.090880131   0.00035959611   5.8983465e-16       11265.194
  0.00015700027       0.6651546   1.2760137e-05  -5.3804302e-23     0.088911383   0.00084952197   1.0289575e-14       6666.8937
  0.00018700818      0.79196014   1.8060437e-05  -3.5855748e-23     0.086832926    0.0017913852   1.2707491e-13        4298.397
  0.00021886389      0.92653817   2.4694485e-05  -1.3073269e-23     0.084639465    0.0034683626   1.2091827e-12       2938.8204
  0.00025268119       1.0693606   3.2871715e-05   1.4194846e-23     0.082325542    0.0062890999   9.3881587e-12       2096.8276
  0.00028858087       1.2209266   4.2827836e-05    2.820512e-23     0.079885523     0.010831186    6.192026e-11        1545.395
  0.00032669115       1.3817618   5.4824327e-05   2.2566068e-23      0.07731353      0.01789808   4.4868892e-10       1168.5595
  0.00036714817       1.5523553   6.9162972e-05   1.0394044e-22     0.074603007     0.028577041    1.226801e-08       902.57951
  0.00041009642       1.7324923   8.6188091e-05   1.2275473e-22      0.07174448     0.044085703   1.4351894e-07       711.23921
  0.00045568931       1.9192393   0.00010615148  -8.9758721e-23     0.068717587     0.064799893   7.2884794e-07       574.07615
  0.00050408968       2.1053899   0.00012899351   -1.658279e-22     0.065555988     0.088869094   2.2120613e-06       477.62415
  0.00055547043       2.2818524    0.0001543896    2.964519e-22      0.06240105      0.11277141   4.8330075e-06       409.79463
  0.00061001506       2.4422656   0.00018206544   3.2979771e-22      0.05938907      0.13375564   8.5782302e-06        360.1287
   0.0006679184       2.5848207   0.00021189738  -5.4986407e-22     0.056576547      0.15094657   1.3312838e-05       321.56926
  0.00072938728       2.7110991   0.00024386356  -6.6539473e-22     0.053985423      0.16460468    1.872157e-05       290.10086
  0.00079464125       2.8242294   0.00027806508   7.3806599e-23     0.051631125      0.17532978   2.4492576e-05       263.53591
  0.00086391338       2.9271548   0.00031460585   3.4303376e-22     0.049526337      0.18372434   3.0636591e-05       240.62614
   0.0009374511       3.0218896   0.00035355161   1.2783076e-22     0.047682089      0.19027758   3.7258191e-05       220.58188
   0.0010155171       3.1098324   0.00039502972  -2.5504313e-23     0.046108943      0.19536194    4.436263e-05       202.85527
   0.0010983902       3.1920899   0.00043921269  -4.8316543e-23      0.04481723      0.19926662   5.1941313e-05       187.04873
   0.0011863663       3.2695587    0.0004862744  -4.3145393e-23     0.043816864      0.20221728   5.9987324e-05       172.86206
   0.0012797599       3.3429689   0.00053638855  -7.1895716e-23     0.043117144       0.2043906   6.8498127e-05       160.06145
   0.0013789043       3.4129172   0.00058973235  -1.5912549e-22     0.042726492      0.20592542   7.7475536e-05       148.46025
   0.0014841538       3.4798942   0.00064648754  -2.1305105e-23     0.042652057      0.20693129   8.6924976e-05       137.90651
   0.0015958843        3.544305   0.00070684023  -9.9974712e-24     0.042899071      0.20749492   9.6854555e-05       128.27457
   0.0017144948       3.6064868   0.00077098103  -1.0609988e-22     0.043469907      0.20768511    0.0001072741        119.4591
    0.001840409       3.6667224   0.00083910557   5.6028175e-23     0.044362781       0.2075565   0.00011819419       111.37084
   0.0019740768       3.7252505   0.00091141525   6.6270898e-23     0.045570076      0.20715239   0.00012962524       103.93345
   0.0021159754       3.7822747   0.00098811838   4.4617717e-23     0.047076333      0.20650695   0.00014157657        97.08106
   0.0022666117         3.83797     0.001069432    9.317748e-23     0.048855997      0.20564685   0.00015405541       90.756419
   0.0024265239       3.8924882    0.0011555853  -1.3704541e-23     0.050871134      0.20459259   0.00016706588       84.909457
    0.002596283       3.9459626    0.0012468253  -1.1535747e-22     0.053069446      0.20335943   0.00018060763         79.4961
   0.0027764954       3.9985114    0.0013434175  -8.5662089e-23     0.055383042      0.20195819   0.00019467407        74.47734
   0.0029678048       4.0502415     0.001445633  -3.5179488e-23     0.057728535      0.20039571   0.00020924768       69.818464
   0.0031708945       4.1012531     0.001553773    3.020711e-24     0.060009109      0.19867529   0.00022428147       65.488406
     0.00338649       4.1516526     0.001668523   1.2207061e-22     0.062119112      0.19679639   0.00023961194       61.459144
   0.0036153613       4.2016065    0.0017919043   2.1025499e-22     0.063951514       0.1947527   0.00025453453       57.704907
   0.0038583258        4.251389    0.0019274602   6.1295785e-23     0.065408078      0.19252982   0.00026813398       54.201479
   0.0041162514       4.3012687     0.002079355  -1.2582241e-22      0.06641146       0.1901063   0.00028078123       50.926084
   0.0043900594       4.3513256     0.002250885   4.0321504e-23     0.066917708      0.18745653    0.0002937392       47.857587
   0.0046807278       4.4014533    0.0024433237  -7.4471939e-23     0.066926832      0.18455579   0.00030769822       44.976942
   0.0049892948       4.4514798    0.0026565135   -4.276563e-22     0.066488845      0.18138588   0.00032275716       42.267676
   0.0053168625        4.501247     0.002889911    -5.38528e-23     0.065702982      0.17793679   0.00033871563       39.715817
   0.0056646009       4.5506461    0.0031430105   2.4080152e-22     0.064708844      0.17420526   0.00035514007       37.309462
   0.0060337521       4.5996358    0.0034154963   1.5773435e-22     0.063669922      0.17019216   0.00037138921       35.038258
   0.0064256347       4.6482503    0.0037073628    2.517172e-22     0.062751878      0.16589938   0.00038665872       32.892884
   0.0068416484       4.6965961    0.0040190245    3.406148e-23     0.062099531      0.16132667   0.00040006148       30.864588
    0.007283279       4.7448404    0.0043513942  -3.1942964e-22     0.061817089      0.15646885   0.00041073705       28.944813
   0.0077521041       4.7931922    0.0047059154  -1.5567145e-22     0.061955582      0.15131376   0.00041796743       27.124928
   0.0082497982       4.8418784    0.0050845478   1.2025208e-22     0.062509938      0.14584129   0.00042126893       25.396079
    0.008778139       4.8911172    0.0054897037   1.4653296e-23     0.063425967      0.14002357   0.00042043526       23.749165
   0.0093390136       4.9410888    0.0059241247  -1.2755973e-22     0.064615295      0.13382672   0.00041552507        22.17493
   0.0099344254       4.9919062    0.0063906739  -4.2844999e-23     0.065974354      0.12721407    0.0004068091       20.664173
    0.010566501       5.0435815    0.0068919917   1.2268771e-22      0.06740265       0.1201511   0.00039470663       19.208093
    0.011237498        5.095988     0.007429929    1.273665e-22     0.068816158      0.11261219   0.00037973979       17.798756
    0.011949813       5.1488139    0.0080046481  -5.2861604e-23     0.070153682       0.1045893   0.00036251616       16.429724
    0.012705991        5.201511    0.0086133003   5.6064898e-23     0.071376647      0.09610211   0.00034372538       15.096837
    0.013508733       5.2532482    0.0092483343   1.7747344e-22     0.072464674      0.08720875   0.00032411815       13.799113
    0.014360904       5.3028984    0.0098957926  -8.2542297e-23     0.073409865     0.078014696   0.00030443758       12.539636
    0.015265551       5.3490965     0.010534373  -1.1485245e-22     0.074211972      0.06867667   0.00028529329       11.326236
    0.016225903       5.3903991     0.011136337   4.2943587e-24     0.074875337     0.059398363    0.0002669993       10.171683
    0.017245391       5.4255393     0.011671065  -1.6696971e-23     0.075407437     0.050417449   0.00024944506       9.0932673
    0.018327656        5.453702     0.012110708  -1.1744158e-23     0.075818445     0.041988167   0.00023209841       8.1118391
    0.019476565       5.4747122     0.012435853  -1.2045574e-22     0.076121176     0.034367412   0.00021421911       7.2505919
     0.02069622       5.4890682     0.012640088  -1.3350719e-22      0.07633109     0.027808247    0.0001953238        6.533345
    0.021990978       5.4978321     0.012730415    2.020552e-22     0.076466051     0.022545336     0.000175874       5.9803401
    0.023365464       5.5024162     0.012725714   2.4034938e-22     0.076545428     0.018731959   0.00015774027       5.5985524
    0.024824587       5.5042925     0.012654468  -4.6542526e-23     0.076588036     0.016325719   0.00014274256       5.3702138
    0.026373559       5.5046933     0.012543306  -6.0611858e-23     0.076609357     0.015039759   0.00013093194       5.2537806
    0.028017912       5.5044209     0.012409132  -7.6430113e-24     0.076619793     0.014462795   0.00012264264       5.2021574
     0.02976352        5.503873     0.012261485  -7.7259685e-23      0.07662504     0.014244187   0.00011857135       5.1808195
    0.031616619       5.5032057     0.012103734  -9.9477328e-23     0.076627757     0.014174447   0.00011730931        5.171551
    0.033583826       5.5024676     0.011935937  -3.4024258e-23     0.076629103     0.014155981   0.00011700432       5.1667772
    0.035672168       5.5016697     0.011757713   5.1316208e-23     0.076629599     0.014152022   0.00011695983       5.1637627
    0.037889105       5.5008152     0.011568471   6.2533464e-23     0.076629509     0.014151471    0.0001169844       5.1615458
    0.040242556       5.4999062     0.011367563   2.1233476e-23     0.076628981     0.014151338   0.00011703236       5.1597533
    0.042740925       5.4989454     0.011154299   6.8928397e-23     0.076628111     0.014151011   0.00011709657       5.1582146
    0.045393137       5.4979362     0.010927945   1.3047136e-22     0.076626963     0.014150442   0.00011717761         5.15684
    0.048208665       5.4968828     0.010687723    7.894524e-24     0.076625586     0.014149678   0.00011727653       5.1555787
    0.051197566       5.4957901     0.010432811    -8.10702e-23     0.076624021     0.014148762   0.00011739361          5.1544
    0.054370516       5.4946641     0.010162339    1.150678e-22     0.076622301     0.014147729   0.00011752815       5.1532842
    0.057738847       5.4935113    0.0098753815   1.6687382e-22     0.076620457     0.014146605   0.00011767863       5.1522187
    0.061314592       5.4923387    0.0095709682  -1.0551495e-23     0.076618516     0.014145413   0.00011784293       5.1511952
     0.06511052        5.491154     0.009248052   5.4814962e-23     0.076616503     0.014144173   0.00011801843       5.1502085
    0.069140193        5.489965    0.0089055512   1.7059235e-22     0.076614442     0.014142903   0.00011820226        5.149256
    0.073418001       5.4887799     0.008542271   3.5688362e-23     0.076612357     0.014141619   0.00011839143       5.1483366
    0.077959226       5.4876067    0.0081570106  -1.7859704e-22     0.076610267     0.014140337   0.00011858283       5.1474505
    0.082780087       5.4864539    0.0077484064  -2.0096363e-22     0.076608194     0.014139072   0.00011877342       5.1465989
    0.087897803       5.4853295    0.0073151038    8.195347e-23     0.076606156     0.014137835   0.00011896034       5.1457839
    0.093330656       5.4842417    0.0068555975   2.0593624e-22     0.076604173     0.014136639   0.00011914091       5.1450077
