#             x      gradU_xx      gradU_xy      gradU_xz      gradU_yx      gradU_yy      gradU_yz      gradU_zx      gradU_zy      gradU_zz             U_x             U_y             U_z              kl              kt             nut           omega
   -0.046805254     0.010631073      0.16320315   1.5184153e-21  -0.00043588185    -0.014287692  -1.4379341e-20   1.7499683e-22  -2.6726369e-20  -1.5642548e-38       5.4000316   0.00048592257   3.7277845e-23      0.09983785     0.047159073   0.00017140517       23.746291
   -0.040820451      0.02583235      0.16194433   4.3431867e-20   -0.0016528576     -0.02732395    7.860372e-22    3.172644e-21  -2.4186722e-20   9.5629458e-39       5.4001347    0.0014485039   3.5810705e-22     0.099531362     0.046270252   0.00016976881       23.270056
   -0.035593767     0.043710908      0.15969613   1.0228999e-20   -0.0039043646    -0.043292796   3.5306819e-21   1.0006012e-21  -3.3609885e-20  -4.2070086e-38       5.4003131    0.0022974112   6.6340863e-22     0.099263456     0.045506355   0.00016833646       22.860212
   -0.031029167     0.057875777      0.15683263  -3.5538312e-20   -0.0068156628    -0.057059604  -4.8812496e-21  -8.9536053e-21  -4.9271437e-20  -6.2163422e-38       5.4005439    0.0030269253   5.8418237e-22     0.099033855     0.044862946   0.00016711274       22.514539
   -0.027042782      0.06932628      0.15365221  -2.1900751e-20    -0.010043347    -0.068884263  -1.6894252e-20   1.9434577e-20   1.4740068e-20   8.0339357e-38       5.4007965     0.003651778   3.8777361e-22     0.098836621     0.044318599   0.00016606632       22.221737
   -0.023561368      0.07916445      0.15034872  -3.2082731e-20    -0.013384433    -0.079010615  -2.9560675e-20   8.1373791e-20   1.3360225e-19  -1.7482888e-37       5.4010543    0.0041860284   3.6164532e-22     0.098666816     0.043856092   0.00016516884       21.972698
   -0.020520958     0.087772671       0.1470473  -1.0702804e-19     -0.01671441    -0.087662612  -3.4431011e-20     4.20213e-20   7.5836435e-20    2.262839e-38       5.4013079    0.0046424095   2.3358716e-22     0.098520339     0.043461645   0.00016439729       21.760115
   -0.017865688     0.095176139      0.14384142  -8.8408829e-20    -0.019940989    -0.095043718  -2.5182795e-20  -1.2143364e-19  -1.7495561e-19   7.2850733e-37       5.4015512    0.0050321957  -1.5183879e-22     0.098393774     0.043124155   0.00016373318       21.578088
   -0.015546772      0.10144977      0.14079869   7.5884937e-20    -0.022997915     -0.10133613  -3.6380144e-21  -1.6258895e-19  -2.4383879e-19  -4.8937385e-37       5.4017798     0.005365236  -2.9835774e-22     0.098284256     0.042834595   0.00016316092       21.421807
   -0.013521602      0.10676636      0.13796069   1.0706092e-19    -0.025845176      -0.1067003   8.1812177e-21    3.586479e-20   2.0828222e-20   -1.353909e-36       5.4019913    0.0056500308   1.7867134e-23     0.098189372     0.042585569   0.00016266707       21.287325
   -0.011752967      0.11129958      0.13534771   -4.630658e-20    -0.028463854     -0.11127552   -8.301496e-22   9.9471006e-20   1.2270668e-19   1.1243822e-37       5.4021849    0.0058938458   1.5876155e-22      0.09810708     0.042370963   0.00016224025       21.171373
   -0.010208373      0.11517733      0.13296554  -5.1345829e-20    -0.030849212     -0.11518139  -2.9295052e-20  -4.7825528e-20  -3.8218291e-20  -1.8843278e-37       5.4023606    0.0061028513  -2.2927503e-23     0.098035642     0.042185694   0.00016187088       21.071228
  -0.0088594378      0.11849447      0.13081066   2.5050208e-20    -0.033005547     -0.11851983   -2.331329e-20  -1.5411769e-20  -4.0298387e-21   -1.025583e-36       5.4025189    0.0062822679  -2.4334597e-23     0.097973579      0.04202551   0.00016155091       20.984609
  -0.0076813777      0.12133225      0.12887351  -9.1628313e-20    -0.034942952     -0.12137721    2.431005e-20   2.2910415e-20    3.088333e-20   -5.103283e-37       5.4026609    0.0064365049   1.8215028e-23     0.097919623     0.041886831   0.00016127347       20.909594
   -0.006652547      0.12376346      0.12714082  -6.5824846e-20    -0.036675118     -0.12382649   1.3602583e-20   -2.438906e-19  -2.4588718e-19  -5.9635238e-37       5.4027876    0.0065692834  -1.7413401e-22     0.097872687     0.041766634   0.00016103271       20.844558
  -0.0057540422       0.1258506      0.12559725   3.0693594e-19    -0.038217674     -0.12592914  -3.2589218e-20  -2.1054496e-19  -2.1270952e-19   2.8229836e-37       5.4029004    0.0066837448   -1.607174e-22     0.097831837     0.041662353    0.0001608236        20.78812
  -0.0049693545      0.12764551      0.12422665    2.298612e-19     -0.03958698     -0.12773694   -1.944151e-20   4.5992661e-19   4.3402067e-19   -9.129384e-37       5.4030004    0.0067825438   2.3098842e-22     0.097796269     0.041571803   0.00016064188       20.739103
  -0.0042840662      0.12919121      0.12301288  -3.5943866e-19    -0.040799315      -0.1292935   3.2849758e-20   4.7829696e-19   4.5330351e-19  -1.1032842e-36       5.4030889    0.0068679265   2.5703371e-22     0.097765287     0.041493118   0.00016048385       20.696501
   -0.003685586        0.130524      0.12194035  -1.6101847e-19    -0.041870364     -0.13063561   3.9905168e-20  -3.1680681e-19  -3.0326037e-19  -6.7824854e-37       5.4031671    0.0069417975  -1.2008971e-22     0.097738291       0.0414247   0.00016034636        20.65945
  -0.0031629175      0.13167469      0.12099435   3.3759449e-19     -0.04281491     -0.13179432  -3.9568849e-21  -1.5403995e-21  -2.9498505e-20  -5.9072658e-36        5.403236    0.0070057742  -3.8341222e-23     0.097714761     0.041365174   0.00016022667       20.627212
  -0.0027064575      0.13266941      0.12016119  -2.8299708e-19    -0.043646665      -0.1327959  -1.4459199e-21   5.4477668e-19   4.9574884e-19   -7.904901e-37       5.4032967    0.0070612336   1.8237003e-22     0.097694247     0.041313361   0.00016012246       20.599146
  -0.0023078191      0.13353027      0.11942834  -7.3719826e-19    -0.044378197     -0.13366262   2.0199302e-20  -6.2420478e-19  -5.2856726e-19   2.8391893e-36       5.4033501    0.0071093502  -1.2881685e-22     0.097676359     0.041268242   0.00016003167       20.574704
  -0.0019596776      0.13427603      0.11878439     1.23275e-19    -0.045020919      -0.1344134  -1.6986558e-20  -1.5835292e-18  -1.3851305e-18  -3.4759774e-36        5.403397    0.0071511279  -3.7622062e-22     0.097660757     0.041228937   0.00015995256       20.553409
  -0.0016556366      0.13492267      0.11821907   9.8660436e-19    -0.045585123     -0.13506435    -4.84283e-20  -7.1455115e-19  -6.0250969e-19   1.5331229e-37       5.4034382    0.0071874264   -1.644349e-22     0.097647147     0.041194687    0.0001598836       20.534852
  -0.0013901097      0.13548382      0.11772313   5.1945375e-19    -0.046080039     -0.13562921  -3.3767441e-20   9.3857009e-19   8.5342227e-19  -1.7737611e-35       5.4034743    0.0072189834   1.5585849e-22     0.097635273     0.041164832   0.00015982348       20.518675
   -0.001158218      0.13597115      0.11728835  -4.6363358e-19    -0.046513906     -0.13611974   7.7888197e-21   9.7849248e-19   8.5353274e-19  -2.6182116e-35        5.403506    0.0072464332   1.6711733e-22     0.097624912     0.041138803   0.00015977105        20.50457
   -0.000955701      0.13639466      0.11690738  -8.7433213e-20    -0.046894056     -0.13654599   2.5981856e-20  -1.1499314e-19   -1.360586e-19  -5.1466556e-36       5.4035337    0.0072703218  -1.8213719e-23      0.09761587     0.041116104   0.00015972532       20.492268
 -0.00077883757      0.13676292      0.11657373   3.5465293e-19    -0.047226988      -0.1369166   1.2647977e-20   8.2743517e-19   6.6997811e-19  -1.2257992e-35        5.403558    0.0072911201   5.7449405e-23     0.097607979     0.041096306   0.00015968544       20.481539
 -0.00062437811      0.13708332      0.11628164  -7.9550997e-19    -0.047518457     -0.13723902   1.8725995e-20    1.207769e-18   1.0095053e-18  -2.9571307e-36       5.4035793    0.0073092346    1.156923e-22     0.097601092     0.041079035   0.00015965063       20.472178
 -0.00048948463      0.13736219      0.11602603  -1.0205567e-18    -0.047773543     -0.13751964   2.0875332e-20  -1.5843009e-18  -1.3655485e-18   6.8288693e-36        5.403598    0.0073250168  -9.7846175e-23      0.09759508     0.041063966   0.00015962027       20.464011
 -0.00037167862      0.13760503      0.11580244   5.1901864e-19    -0.047996725     -0.13776398  -1.0941055e-20  -2.6842229e-18  -2.2799238e-18  -2.0414183e-35       5.4036143    0.0073387712  -1.7350401e-22     0.097589832     0.041050817   0.00015959377       20.456884
 -0.00026879555      0.13781655      0.11560693   3.7128292e-19    -0.048191945     -0.13797681  -2.4625544e-20  -4.7370523e-19  -3.6077299e-19  -5.5069319e-35       5.4036285    0.0073507613   -3.094416e-23      0.09758525     0.041039342   0.00015957064       20.450665
 -0.00017894507      0.13800077      0.11543591  -8.3913511e-19    -0.048362673     -0.13816225    5.757258e-21  -1.8490315e-18   -1.498209e-18  -3.5238616e-35        5.403641    0.0073612158  -5.7907087e-23      0.09758125     0.041029328   0.00015955045       20.445236
  -0.0001004763      0.13816105      0.11528606   4.8654607e-19    -0.048511952     -0.13832387   1.5065524e-20  -4.5900702e-18  -3.8360853e-18  -2.7751259e-36       5.4036519    0.0073703332   -1.602913e-22     0.097577758     0.041020586   0.00015953283       20.440498
 -3.1947465e-05      0.13830143      0.11515371   2.2657784e-18    -0.048643393      -0.1384658   6.2214985e-21  -9.4530907e-19  -8.2858368e-19   1.9701891e-35       5.4036615    0.0073783437   -4.402207e-23     0.097574686     0.041012898   0.00015951734       20.436331
  2.9991242e-05      0.13842857      0.11503333   1.5478195e-18    -0.048763043     -0.13859476   8.7172886e-21    4.584536e-18   3.7461439e-18   4.1356587e-36       5.4036703    0.0073856238   1.1968788e-22     0.097571889       0.0410059   0.00015950323       20.432537
  9.0286504e-05      0.13855084      0.11491807  -4.5563716e-19    -0.048878239     -0.13871872  -3.8445172e-21   5.8267658e-18   4.8215545e-18  -1.6035746e-36       5.4036787    0.0073926227   1.5387058e-22     0.097569195      0.04099916   0.00015948965       20.428883
  0.00015121058      0.13867378      0.11480315  -1.0203836e-18    -0.048993589      -0.1388426  -1.3824724e-20   2.3900886e-18    2.032467e-18   9.9000178e-35       5.4036871    0.0073996193   6.3248185e-23     0.097566498     0.040992416   0.00015947606       20.425228
  0.00021277004      0.13879851      0.11468707   -9.856513e-20     -0.04911024     -0.13896758    1.029634e-21   1.0760255e-18   9.0665904e-19  -1.9542496e-35       5.4036957    0.0074066818   3.0108008e-23     0.097563774     0.040985605   0.00015946232       20.421535
   0.0002749715      0.13892453      0.11456969  -7.1527127e-19    -0.049228205     -0.13909368   1.9650183e-20   1.8901278e-18   1.5432141e-18  -5.7767668e-35       5.4037043    0.0074138106   5.1977854e-23     0.097561022     0.040978725   0.00015944845       20.417806
  0.00033782165      0.13905159      0.11445094  -1.6026282e-18      -0.0493475      -0.1392209   6.2202595e-21  -2.1599546e-18  -1.7882071e-18   1.6499244e-34        5.403713    0.0074210064  -6.2649247e-23     0.097558242     0.040971777   0.00015943443       20.414039
  0.00040132727      0.13917976      0.11433083    2.301145e-19    -0.049468142     -0.13934926  -2.7070386e-20  -5.2520208e-18   -4.273452e-18   5.5750743e-35       5.4037219    0.0074282696  -1.5058399e-22     0.097555434     0.040964758   0.00015942028       20.410234
  0.00046549519      0.13930907      0.11420933   2.1471527e-18    -0.049590145     -0.13947876  -4.0079586e-20  -1.0373437e-18  -7.1305916e-19  -5.1208243e-35       5.4037308    0.0074356008  -2.9164952e-23     0.097552597      0.04095767   0.00015940598       20.406391
  0.00053033231      0.13943954      0.11408643   6.8992771e-19    -0.049713526      -0.1396094  -2.1388661e-20    4.324603e-18   3.6810373e-18     1.86796e-35       5.4037398    0.0074430006    1.274005e-22     0.097549731     0.040950511   0.00015939154        20.40251
  0.00059584562      0.13957117      0.11396211  -1.3095165e-18    -0.049838301      -0.1397412   6.9815513e-21   1.9538401e-18   1.6359022e-18  -1.1673647e-34        5.403749    0.0074504694   5.6776034e-23     0.097546836      0.04094328   0.00015937696        20.39859
  0.00066204216      0.13970396      0.11383637   -7.822432e-19    -0.049964487     -0.13987417   1.3448869e-20   -1.499299e-18  -1.2371891e-18  -1.0160388e-34       5.4037582    0.0074580079  -4.5401713e-23     0.097543911     0.040935977   0.00015936223        20.39463
  0.00072892907      0.13983792      0.11370918  -2.8857137e-19      -0.0500921      -0.1400083   7.3540291e-21  -1.4649768e-18  -1.2025996e-18   5.9376687e-35       5.4037676    0.0074656165  -4.5190871e-23     0.097540956     0.040928601   0.00015934735       20.390631
  0.00079651354      0.13997306      0.11358053   -2.427752e-19    -0.050221157      -0.1401436   2.1051254e-21  -2.6982979e-18  -2.2347028e-18   1.1994848e-34        5.403777    0.0074732958  -8.5151666e-23     0.097537971     0.040921151   0.00015933232       20.386592
  0.00086480285      0.14010937      0.11345041   5.7033263e-19    -0.050351675     -0.14028009  -3.4006715e-21  -2.4539162e-18  -2.0901918e-18   1.3557195e-35       5.4037866    0.0074810464   -7.697103e-23     0.097534956     0.040913627   0.00015931714       20.382513
  0.00093380434      0.14024688       0.1133188   1.0057984e-18    -0.050483672     -0.14041778   8.5756003e-22  -1.8921455e-19  -2.2531002e-19  -9.4035015e-35       5.4037963    0.0074888688  -5.0331112e-24      0.09753191     0.040906028   0.00015930181       20.378393
   0.0010035254      0.14038559      0.11318569   1.1146774e-18    -0.050617165     -0.14055666   7.6718868e-21   1.8803555e-18   1.5305919e-18  -1.3086278e-35        5.403806    0.0074967635   6.1970732e-23     0.097528833     0.040898353   0.00015928633       20.374231
   0.0010739737      0.14052551      0.11305105   3.9366851e-19    -0.050752172     -0.14069675   1.6331865e-20   4.5084503e-18   3.6030414e-18   1.0547944e-34       5.4038159    0.0075047312   1.5179714e-22     0.097525725     0.040890602   0.00015927069       20.370028
   0.0011451566      0.14066663      0.11291487  -1.6984302e-18     -0.05088871     -0.14083805   4.1432856e-20   3.4345298e-18   2.6531386e-18  -1.7703259e-35       5.4038259    0.0075127723   1.1640904e-22     0.097522585     0.040882773   0.00015925489       20.365784
   0.0012170819      0.14080897      0.11277714  -2.0602072e-18    -0.051026798     -0.14098057   2.3676958e-20  -2.7312774e-18  -2.2487512e-18  -6.1735979e-35       5.4038361    0.0075208874  -9.5015679e-23     0.097519413     0.040874867   0.00015923894       20.361496
   0.0012897573      0.14095255      0.11263784   7.0302771e-20    -0.051166454     -0.14112431  -4.0256596e-20  -5.1635658e-18  -4.0464542e-18   1.9034546e-34       5.4038463    0.0075290771  -1.8103806e-22     0.097516209     0.040866881   0.00015922283       20.357166
   0.0013631906      0.14109735      0.11249694   1.2999123e-18    -0.051307697      -0.1412693  -5.0711259e-20  -2.3045003e-18  -1.6602648e-18  -3.4017044e-35       5.4038567    0.0075373419  -8.2838552e-23     0.097512972     0.040858817   0.00015920655       20.352793
   0.0014373898      0.14124339      0.11235444   7.2939758e-19    -0.051450545     -0.14141552  -9.0020638e-21   3.2166981e-19   3.5000391e-19  -1.5837552e-34       5.4038671    0.0075456823    1.139367e-23     0.097509703     0.040850672   0.00015919012       20.348377
   0.0015123628      0.14139068       0.1122103   -1.573936e-19    -0.051595018     -0.14156299   1.4010916e-20   7.0651131e-19   5.0715941e-19   1.2323485e-35       5.4038777    0.0075540991   2.6507695e-23       0.0975064     0.040842446   0.00015917351       20.343916
   0.0015881177      0.14153923      0.11206453  -9.2862979e-19    -0.051741135     -0.14171171   9.2804149e-21  -3.4559337e-19  -3.3837945e-19  -5.8150458e-36       5.4038884    0.0075625926   -1.267373e-23     0.097503063     0.040834139   0.00015915675       20.339411
   0.0016646626      0.14168903      0.11191709  -8.4176224e-19    -0.051888914      -0.1418617   4.7272623e-21   -3.077626e-18  -2.4392916e-18  -4.9170153e-36       5.4038993    0.0075711635  -1.1664076e-22     0.097499692     0.040825749   0.00015913982       20.334862
   0.0017420058       0.1418401      0.11176796   1.0237255e-18    -0.052038376     -0.14201296    6.570965e-21  -3.7079683e-18  -2.9558015e-18   3.9127211e-36       5.4039102    0.0075798123  -1.4107068e-22     0.097496288     0.040817276   0.00015912271       20.330267
   0.0018201557      0.14199244      0.11161713   2.7903597e-18    -0.052189541     -0.14216549  -1.5554143e-21   1.1503645e-18   8.4764739e-19   4.6230178e-35       5.4039213    0.0075885395   4.6640631e-23     0.097492848     0.040808719   0.00015910544       20.325626
   0.0018991205      0.14214607      0.11146458   1.3178475e-18    -0.052342429      -0.1423193  -1.2603974e-20   7.5397534e-18   5.9202299e-18  -2.3417993e-35       5.4039325    0.0075973458   2.9889246e-22     0.097489374     0.040800077     0.000159088       20.320939
   0.0019789089      0.14230098      0.11131029   -2.242578e-18    -0.052497061      -0.1424744   1.3935315e-22   6.3019756e-18   4.9537969e-18  -3.6986743e-35       5.4039439    0.0076062318   2.5018911e-22     0.097485864     0.040791349   0.00015907038       20.316206
   0.0020595294      0.14245718      0.11115424  -2.3289731e-18    -0.052653455     -0.14263079   6.5116669e-21  -1.5841762e-18  -1.2766999e-18  -1.3771237e-35       5.4039554    0.0076151979  -6.6365332e-23     0.097482319     0.040782535   0.00015905258       20.311426
   0.0021409906      0.14261468       0.1109964   2.3552915e-19    -0.052811635     -0.14278849  -5.4093471e-21  -3.0016409e-18  -2.3324501e-18  -1.0401473e-35        5.403967    0.0076242447  -1.2287248e-22     0.097478738     0.040773634   0.00015903461       20.306598
   0.0022233015      0.14277349      0.11083676   7.6062958e-19    -0.052971621     -0.14294749   1.8839927e-23  -5.8942613e-19  -3.8346385e-19   5.0414517e-35       5.4039787    0.0076333728  -2.4962701e-23      0.09747512     0.040764645   0.00015901647       20.301723
   0.0023064707      0.14293362       0.1106753   1.6516232e-20    -0.053133433     -0.14310781   1.0414138e-20   3.9939061e-20   4.6434616e-20   3.2200608e-35       5.4039906    0.0076425827   1.8013965e-24     0.097471466     0.040755567   0.00015899814       20.296799
   0.0023905073      0.14309505      0.11051199  -8.5270059e-19    -0.053297095     -0.14326944   1.4613836e-20  -5.2308671e-19  -4.4629267e-19   2.1591642e-35       5.4040026     0.007651875   -2.245351e-23     0.097467775     0.040746399   0.00015897963       20.291827
   0.0024754204      0.14325781      0.11034681  -2.4907554e-19    -0.053462627      -0.1434324   9.8533583e-21  -3.2721835e-18  -2.5566628e-18  -6.6201726e-36       5.4040148    0.0076612504  -1.4398957e-22     0.097464046     0.040737141   0.00015896093       20.286805
   0.0025612189      0.14342191      0.11017975    1.800626e-18    -0.053630052     -0.14359669   -9.121018e-21  -1.4283674e-18  -1.1010303e-18  -2.4662553e-35       5.4040271    0.0076707092  -6.2030521e-23     0.097460279     0.040727791   0.00015894205       20.281734
   0.0026479123      0.14358734      0.11001077   1.5023728e-18    -0.053799392     -0.14376231  -2.8689616e-21   3.7372236e-18   2.8643589e-18    2.589679e-35       5.4040395    0.0076802521   1.6968621e-22     0.097456474      0.04071835   0.00015892298       20.276612
   0.0027355098      0.14375411      0.10983986  -7.7325821e-19    -0.053970669     -0.14392928   1.3183189e-20   4.3034263e-18   3.2597103e-18  -9.7106945e-37       5.4040521    0.0076898797   1.9669848e-22     0.097452631     0.040708815   0.00015890373        20.27144
   0.0028240209      0.14392223        0.109667  -2.3351775e-18    -0.054143907     -0.14409759   4.4422026e-21     6.67468e-19   5.0031321e-19   2.9651833e-36       5.4040648    0.0076995924   2.9637239e-23     0.097448749     0.040699186   0.00015888428       20.266217
    0.002913455      0.14409171      0.10949216  -1.0547525e-18    -0.054319129     -0.14426726   4.2892858e-22  -4.6514107e-18   -3.496655e-18  -2.1361979e-35       5.4040777    0.0077093909  -2.2094574e-22     0.097444827     0.040689462   0.00015886464       20.260943
   0.0030038219      0.14426255      0.10931532   1.8449106e-18    -0.054496358     -0.14443828  -2.7051326e-21  -3.2702173e-18  -2.4651394e-18  -1.0834052e-35       5.4040907    0.0077192758  -1.5456718e-22     0.097440866     0.040679643   0.00015884481       20.255616
   0.0030951311      0.14443475      0.10913645   1.6509962e-18    -0.054675618     -0.14461067  -1.2960216e-20   2.4158867e-18   1.7894923e-18   2.0799369e-35       5.4041039    0.0077292474   1.1891529e-22     0.097436865     0.040669727   0.00015882478       20.250237
   0.0031873927      0.14460832      0.10895554  -2.7577333e-19    -0.054856932     -0.14478442   -2.018175e-20   2.9431298e-18   2.2215757e-18   -1.069239e-36       5.4041172    0.0077393065   1.4435001e-22     0.097432823     0.040659714   0.00015880456       20.244805
   0.0032806164      0.14478326      0.10877256  -9.6817825e-19    -0.055040325     -0.14495955  -1.3415699e-20   1.3185864e-18   1.0415919e-18    1.157674e-35       5.4041307    0.0077494535    6.458015e-23     0.097428741     0.040649603   0.00015878413       20.239319
   0.0033748124      0.14495958      0.10858748  -3.3522139e-19    -0.055225822     -0.14513605   5.8612982e-21   -7.232859e-19     -5.2696e-19   -1.478881e-35       5.4041444     0.007759689  -3.7557102e-23     0.097424617     0.040639392    0.0001587635        20.23378
   0.0034699907      0.14513729      0.10840028   1.0509069e-18    -0.055413447     -0.14531393   1.3037722e-20   5.8653876e-20     2.77589e-20   2.1685537e-35       5.4041582    0.0077700135   4.6646081e-24     0.097420451     0.040629081   0.00015874267       20.228186
   0.0035661616      0.14531639      0.10821093   5.0189171e-19    -0.055603225      -0.1454932   1.1502546e-20   3.1610251e-18   2.3428228e-18   1.1558137e-36       5.4041721    0.0077804276   1.6645406e-22     0.097416243     0.040618669   0.00015872164       20.222537
   0.0036633356      0.14549688      0.10801942  -1.8491934e-18    -0.055795181     -0.14567386    1.641594e-20   1.8597927e-18   1.3592224e-18   6.7841944e-36       5.4041863    0.0077909318   9.7240655e-23     0.097411993     0.040608155   0.00015870039       20.216832
   0.0037615229      0.14567876      0.10782571  -1.8892106e-18    -0.055989342     -0.14585591   1.5587809e-20  -3.6760009e-18  -2.7444336e-18   2.7482112e-35       5.4042006    0.0078015267    -2.00285e-22       0.0974077     0.040597538   0.00015867894       20.211072
   0.0038607342      0.14586205      0.10762978   1.1748348e-18    -0.056185732     -0.14603935  -1.4696301e-20  -5.0056081e-18    -3.67548e-18  -4.8357994e-35        5.404215    0.0078122127  -2.7178334e-22     0.097403364     0.040586817   0.00015865728       20.205255
   0.0039609802      0.14604674      0.10743161   1.8449433e-18    -0.056384379     -0.14622419  -2.4659702e-20   7.1382884e-19   5.7518256e-19  -1.5816998e-35       5.4042297    0.0078229904   4.1609588e-23     0.097398984     0.040575992    0.0001586354       20.199381
   0.0040622717      0.14623283      0.10723116  -6.5088017e-19    -0.056585308     -0.14641044   9.1781757e-21   1.7348605e-18   1.2900534e-18   1.0688923e-35       5.4042445    0.0078338603   9.4973195e-23     0.097394559     0.040565061   0.00015861331        20.19345
   0.0041646195      0.14642032      0.10702841  -7.6193529e-19    -0.056788547     -0.14659809   1.7849837e-20  -1.6701081e-18  -1.2671503e-18   2.0874802e-37       5.4042594     0.007844823  -9.4995477e-23      0.09739009     0.040554023   0.00015859101        20.18746
   0.0042680347      0.14660923      0.10682334   9.4594432e-19    -0.056994122     -0.14678715  -4.2502064e-21  -1.0109525e-18  -7.6674278e-19   6.3582902e-35       5.4042746    0.0078558789  -5.6127006e-23     0.097385577     0.040542877   0.00015856848       20.181412
   0.0043725284      0.14679955      0.10661591   1.0488592e-18     -0.05720206     -0.14697762  -2.6587589e-20   1.7567539e-18    1.331749e-18   1.3162779e-35       5.4042899    0.0078670286   1.0284074e-22     0.097381017     0.040531622   0.00015854573       20.175305
   0.0044781119      0.14699129       0.1064061   -6.332653e-19     -0.05741239      -0.1471695  -1.0915061e-20    2.726014e-18   2.0235397e-18  -2.2690693e-35       5.4043054    0.0078782725   1.6037681e-22     0.097376412     0.040520258   0.00015852276       20.169138
   0.0045847965      0.14718444      0.10619389  -2.0375591e-18    -0.057625139      -0.1473628   2.8310778e-20  -5.5882581e-19  -4.2846887e-19   1.0398479e-35       5.4043211    0.0078896112  -3.5318877e-23      0.09737176     0.040508784   0.00015849957       20.162911
   0.0046925938      0.14737901      0.10597924  -7.2093004e-19    -0.057840335     -0.14755751   1.7333208e-20  -4.5148381e-18  -3.2848924e-18  -1.0665018e-35        5.404337    0.0079010451  -2.7550973e-22     0.097367062     0.040497198   0.00015847615       20.156623
   0.0048015152      0.14757499      0.10576212   1.7051309e-18    -0.058058007     -0.14775364  -1.7681909e-20  -3.0216612e-18  -2.1701848e-18  -1.4265311e-35        5.404353    0.0079125747  -1.8557895e-22     0.097362316     0.040485499    0.0001584525       20.150274
   0.0049115726       0.1477724      0.10554252   1.8489188e-18    -0.058278182     -0.14795119  -1.9350975e-20   1.5786937e-18   1.1371628e-18    1.898513e-35       5.4043693    0.0079242006   9.9851933e-23     0.097357522     0.040473686   0.00015842862       20.143863
   0.0050227778      0.14797122      0.10532039   4.5447893e-19    -0.058500892     -0.14815016  -2.2719041e-21   3.4510511e-18   2.4395217e-18   1.9268864e-35       5.4043857    0.0079359232   2.2079908e-22      0.09735268     0.040461759   0.00015840451        20.13739
   0.0051351427      0.14817146      0.10509571   -7.089157e-19    -0.058726164     -0.14835055   9.8612917e-21    3.080656e-18   2.1687435e-18   1.3504131e-35       5.4044024    0.0079477429   2.0012272e-22      0.09734779     0.040449716   0.00015838016       20.130854
   0.0052486795      0.14837312      0.10486845  -1.6219573e-18    -0.058954028     -0.14855236   5.5951884e-21   9.0550026e-19   6.6628458e-19   1.9116843e-35       5.4044192    0.0079596602   5.7879637e-23     0.097342851     0.040437557   0.00015835558       20.124254
   0.0053634003      0.14857619      0.10463857   -1.454897e-18    -0.059184514     -0.14875558  -1.3863907e-20  -2.5660824e-18  -1.7651407e-18  -4.2942382e-36       5.4044362    0.0079716756  -1.7318966e-22     0.097337862     0.040425279   0.00015833075        20.11759
   0.0054793176      0.14878069      0.10440606   2.5661237e-19    -0.059417653     -0.14896023  -1.5671085e-20  -4.0694274e-18   -2.824221e-18  -1.7271285e-35       5.4044535    0.0079837896  -2.7582626e-22     0.097332822     0.040412883   0.00015830569       20.110861
   0.0055964437       0.1489866      0.10417088   1.4672966e-18    -0.059653474      -0.1491663  -9.9755627e-21  -1.5962216e-18  -1.0983712e-18  -4.2743843e-35       5.4044709    0.0079960024  -1.0747534e-22     0.097327733     0.040400367   0.00015828038       20.104068
   0.0057147914      0.14919394        0.103933   4.1393755e-19    -0.059892008     -0.14937378  -1.4538206e-21   1.0158538e-18    7.179492e-19  -5.3690272e-36       5.4044885    0.0080083147   7.0383924e-23     0.097322592      0.04038773   0.00015825482       20.097208
   0.0058343733      0.14940269      0.10369238   -2.152501e-19    -0.060133287     -0.14958268   1.0527322e-20   -1.802127e-19  -1.3328595e-19   3.0063657e-35       5.4045064    0.0080207267  -1.4302439e-23       0.0973174     0.040374971   0.00015822902       20.090282
   0.0059552024      0.14961285        0.103449   8.9794528e-19    -0.060377342     -0.14979299   8.2133462e-21   2.7191682e-19   1.6891413e-19   1.0756901e-35       5.4045245     0.008033239   2.1400227e-23     0.097312155     0.040362089   0.00015820297       20.083289
   0.0060772915      0.14982442      0.10320282   5.7166016e-19    -0.060624203     -0.15000472   1.8008955e-20   2.8433695e-18    1.945499e-18   7.7352752e-35       5.4045427    0.0080458519   2.0815522e-22     0.097306858     0.040349083   0.00015817666       20.076228
    0.006200654       0.1500374      0.10295382  -1.1885288e-18    -0.060873904     -0.15021785   2.6703334e-20   2.1468276e-18   1.4556647e-18  -3.7661036e-36       5.4045612    0.0080585658   1.5785624e-22     0.097301508     0.040335951    0.0001581501       20.069099
   0.0063253029      0.15025179      0.10270196  -1.1419351e-18    -0.061126477     -0.15043239   5.5183316e-21  -1.2062155e-18  -8.3810906e-19  -6.4343089e-35       5.4045799     0.008071381  -9.1719759e-23     0.097296105     0.040322694   0.00015812329       20.061901
   0.0064512519      0.15046757       0.1024472   9.8045051e-19    -0.061381954     -0.15064833  -3.2964237e-20  -1.6702896e-18  -1.1386632e-18   6.7579076e-35       5.4045989     0.008084298  -1.2643764e-22     0.097290647     0.040309308   0.00015809621       20.054634
   0.0065785143      0.15068475      0.10218952   1.4612293e-18    -0.061640367     -0.15086567  -2.7939267e-20   2.0991296e-18   1.4102604e-18   5.0509423e-36        5.404618    0.0080973171   1.6284442e-22     0.097285135     0.040295794   0.00015806888       20.047297