-0.046805 0.00072915
-0.040820 0.00177177
-0.035594 0.00299800
-0.031029 0.00396953
-0.027043 0.00475489
-0.023561 0.00542966
-0.020521 0.00602007
-0.017866 0.00652786
-0.015547 0.00695815
-0.013522 0.00732280
-0.011753 0.00763372
-0.010208 0.00789968
-0.008859 0.00812719
-0.007681 0.00832183
-0.006653 0.00848858
-0.005754 0.00863173
-0.004969 0.00875484
-0.004284 0.00886085
-0.003686 0.00895226
-0.003163 0.00903119
-0.002706 0.00909941
-0.002308 0.00915845
-0.001960 0.00920960
-0.001656 0.00925396
-0.001390 0.00929244
-0.001158 0.00932587
-0.000956 0.00935491
-0.000779 0.00938017
-0.000624 0.00940215
-0.000489 0.00942128
-0.000372 0.00943793
-0.000269 0.00945244
-0.000179 0.00946507
-0.000100 0.00947607
-0.000032 0.00948569
0.000030 0.00949441
0.000090 0.00950280
0.000151 0.00951123
0.000213 0.00951979
0.000275 0.00952843
0.000338 0.00953715
0.000401 0.00954594
0.000465 0.00955481
0.000530 0.00956375
0.000596 0.00957278
0.000662 0.00958189
0.000729 0.00959108
0.000797 0.00960035
0.000865 0.00960970
0.000934 0.00961913
0.001004 0.00962864
0.001074 0.00963824
0.001145 0.00964792
0.001217 0.00965768
0.001290 0.00966753
0.001363 0.00967746
0.001437 0.00968748
0.001512 0.00969758
0.001588 0.00970777
0.001665 0.00971804
0.001742 0.00972840
0.001820 0.00973885
0.001899 0.00974939
0.001979 0.00976001
0.002060 0.00977073
0.002141 0.00978153
0.002223 0.00979242
0.002306 0.00980340
0.002391 0.00981448
0.002475 0.00982564
0.002561 0.00983689
0.002648 0.00984824
0.002736 0.00985968
0.002824 0.00987121
0.002913 0.00988283
0.003004 0.00989455
0.003095 0.00990636
0.003187 0.00991827
0.003281 0.00993026
0.003375 0.00994236
0.003470 0.00995455
0.003566 0.00996683
0.003663 0.00997921
0.003762 0.00999168
0.003861 0.01000426
0.003961 0.01001692
0.004062 0.01002969
0.004165 0.01004255
0.004268 0.01005550
0.004373 0.01006856
0.004478 0.01008171
0.004585 0.01009495
0.004693 0.01010830
0.004802 0.01012174
0.004912 0.01013528
0.005023 0.01014892
0.005135 0.01016265
0.005249 0.01017648
0.005363 0.01019041
0.005479 0.01020444
0.005596 0.01021856
0.005715 0.01023278
0.005834 0.01024710
0.005955 0.01026151
0.006077 0.01027602
0.006201 0.01029063
0.006325 0.01030534
0.006451 0.01032014
0.006579 0.01033503
0.006707 0.01035002
0.006837 0.01036511
0.006968 0.01038029
0.007101 0.01039557
0.007235 0.01041094
0.007370 0.01042640
0.007507 0.01044195
0.007646 0.01045760
0.007785 0.01047334
0.007926 0.01048917
0.008069 0.01050509
0.008213 0.01052110
0.008359 0.01053720
0.008506 0.01055339
0.008655 0.01056966
0.008805 0.01058602
0.008957 0.01060247
0.009110 0.01061900
0.009265 0.01063562
0.009422 0.01065232
0.009580 0.01066910
0.009740 0.01068596
0.009901 0.01070290
0.010065 0.01071992
0.010230 0.01073702
0.010396 0.01075419
0.010565 0.01077143
0.010735 0.01078875
0.010907 0.01080614
0.011081 0.01082360
0.011256 0.01084113
0.011433 0.01085872
0.011613 0.01087637
0.011794 0.01089409
0.011977 0.01091186
0.012162 0.01092970
0.012348 0.01094759
0.012537 0.01096553
0.012728 0.01098352
0.012921 0.01100156
0.013115 0.01101964
0.013312 0.01103777
0.013511 0.01105594
0.013712 0.01107416
0.013915 0.01109241
0.014120 0.01111071
0.014327 0.01112902
0.014537 0.01114736
0.014748 0.01116572
0.014962 0.01118410
0.015178 0.01120248
0.015396 0.01122088
0.015617 0.01123932
0.015840 0.01125777
0.016065 0.01127621
0.016292 0.01129465
0.016522 0.01131306
0.016755 0.01133147
0.016989 0.01134985
0.017226 0.01136822
0.017466 0.01138657
0.017708 0.01140489
0.017953 0.01142319
0.018200 0.01144144
0.018450 0.01145966
0.018702 0.01147783
0.018957 0.01149596
0.019215 0.01151402
0.019475 0.01153203
0.019738 0.01154997
0.020004 0.01156784
0.020273 0.01158563
0.020544 0.01160333
0.020819 0.01162095
0.021096 0.01163846
0.021376 0.01165588
0.021659 0.01167318
0.021944 0.01169037
0.022233 0.01170744
0.022525 0.01172437
0.022820 0.01174117
0.023118 0.01175783
0.023419 0.01177434
0.023723 0.01179069
0.024031 0.01180687
0.024341 0.01182288
0.024655 0.01183871
0.024972 0.01185435
0.025293 0.01186980
0.025616 0.01188504
0.025944 0.01190007
0.026274 0.01191488
0.026608 0.01192946
0.026946 0.01194381
0.027287 0.01195790
0.027631 0.01197174
0.027979 0.01198532
0.028331 0.01199863
0.028686 0.01201165
0.029046 0.01202438
0.029409 0.01203682
0.029775 0.01204894
0.030146 0.01206074
0.030520 0.01207222
0.030898 0.01208335
0.031281 0.01209414
0.031667 0.01210456
0.032057 0.01211463
0.032451 0.01212431
0.032850 0.01213361
0.033252 0.01214250
0.033659 0.01215099
0.034070 0.01215906
0.034485 0.01216670
0.034905 0.01217390
0.035329 0.01218065
0.035757 0.01218694
0.036190 0.01219276
0.036628 0.01219811
0.037070 0.01220296
0.037516 0.01220731
0.037968 0.01221115
0.038424 0.01221447
0.038884 0.01221725
0.039350 0.01221949
0.039820 0.01222119
0.040295 0.01222232
0.040776 0.01222288
0.041261 0.01222286
0.041751 0.01222225
0.042246 0.01222103
0.042747 0.01221921
0.043253 0.01221676
0.043764 0.01221369
0.044280 0.01220998
0.044802 0.01220563
0.045329 0.01220062
0.045862 0.01219494
0.046400 0.01218860
0.046944 0.01218157
0.047494 0.01217386
0.048049 0.01216545
0.048610 0.01215634
0.049177 0.01214652
0.049750 0.01213598
0.050329 0.01212472
0.050914 0.01211274
0.051505 0.01210002
0.052102 0.01208656
0.052705 0.01207236
0.053315 0.01205740
0.053931 0.01204169
0.054553 0.01202522
0.055182 0.01200799
0.055817 0.01199000
0.056460 0.01197124
0.057108 0.01195171
0.057764 0.01193141
0.058426 0.01191034
0.059096 0.01188848
0.059772 0.01186586
0.060455 0.01184245
0.061146 0.01181828
0.061843 0.01179333
0.062548 0.01176760
0.063261 0.01174111
0.063980 0.01171385
0.064708 0.01168582
0.065442 0.01165702
0.066185 0.01162746
0.066935 0.01159715
0.067693 0.01156609
0.068459 0.01153428
0.069233 0.01150173
0.070015 0.01146845
0.070805 0.01143445
0.071604 0.01139972
0.072410 0.01136427
0.073226 0.01132812
0.074049 0.01129127
0.074881 0.01125374
0.075722 0.01121553
0.076572 0.01117666
0.077431 0.01113713
0.078298 0.01109695
0.079175 0.01105613
0.080060 0.01101469
0.080955 0.01097263
0.081860 0.01092998
0.082773 0.01088674
0.083697 0.01084293
0.084629 0.01079855
0.085572 0.01075363
0.086524 0.01070818
0.087487 0.01066221
0.088459 0.01061573
0.089442 0.01056876
0.090434 0.01052132
0.091437 0.01047342
0.092451 0.01042508
0.093475 0.01037631
0.094510 0.01032713
0.095556 0.01027756
0.096612 0.01022760
0.097680 0.01017729
0.098758 0.01012662
0.099848 0.01007562
0.100950 0.01002431
0.102062 0.00997270
0.103187 0.00992081
0.104323 0.00986866
0.105471 0.00981626
0.106631 0.00976363
0.107803 0.00971078
0.108987 0.00965773
0.110184 0.00960449
0.111393 0.00955109
0.112615 0.00949753
0.113849 0.00944384
0.115096 0.00939003
0.116357 0.00933611
0.117630 0.00928209
0.118917 0.00922801
0.120217 0.00917386
0.121531 0.00911967
0.122858 0.00906544
0.124199 0.00901119
0.125555 0.00895694
0.126924 0.00890270
0.128308 0.00884847
0.129706 0.00879428
0.131118 0.00874014
0.132546 0.00868605
0.133988 0.00863203
0.135446 0.00857809
0.136918 0.00852425
0.138406 0.00847050
0.139909 0.00841687
0.141428 0.00836335
0.142963 0.00830997
0.144514 0.00825673
0.146081 0.00820364
0.147665 0.00815071
0.149265 0.00809794
0.150882 0.00804534
0.152515 0.00799293
0.154166 0.00794070
0.155833 0.00788867
0.157519 0.00783684
0.159221 0.00778521
0.160942 0.00773380
0.162680 0.00768261
0.164437 0.00763164
0.166212 0.00758090
0.168005 0.00753039
0.169817 0.00748011
0.171648 0.00743008
0.173498 0.00738029
0.175368 0.00733074
0.177257 0.00728145
0.179165 0.00723241
0.181094 0.00718362
0.183042 0.00713509
0.185011 0.00708681
0.187001 0.00703880
0.189011 0.00699105
0.191042 0.00694356
0.193094 0.00689634
0.195168 0.00684938
0.197264 0.00680269
0.199381 0.00675626
0.201520 0.00671010
0.203682 0.00666421
0.205866 0.00661858
0.208073 0.00657321
0.210303 0.00652811
0.212556 0.00648328
0.214833 0.00643871
0.217133 0.00639440
0.219458 0.00635036
0.221806 0.00630657
0.224180 0.00626305
0.226578 0.00621978
0.229001 0.00617677
0.231449 0.00613402
0.233923 0.00609152
0.236422 0.00604927
0.238948 0.00600727
0.241500 0.00596552
0.244078 0.00592402
0.246684 0.00588276
0.249316 0.00584174
0.251977 0.00580097
0.254664 0.00576043
0.257380 0.00572013
0.260124 0.00568006
0.262897 0.00564023
0.265699 0.00560062
0.268530 0.00556125
0.271390 0.00552209
0.274281 0.00548316
0.277201 0.00544445
0.280152 0.00540596
0.283134 0.00536769
0.286147 0.00532963
0.289191 0.00529177
0.292267 0.00525413
0.295375 0.00521670
0.298515 0.00517946
0.301688 0.00514243
0.304895 0.00510560
0.308134 0.00506897
0.311408 0.00503253
0.314715 0.00499629
0.318058 0.00496024
0.321435 0.00492437
0.324847 0.00488870
0.328295 0.00485321
0.331778 0.00481791
0.335298 0.00478279
0.338855 0.00474785
0.342449 0.00471309
0.346081 0.00467851
0.349750 0.00464411
0.353457 0.00460989
0.357204 0.00457585
0.360989 0.00454199
0.364813 0.00450831
0.368678 0.00447481
0.372583 0.00444148
0.376529 0.00440834
0.380515 0.00437537
0.384544 0.00434259
0.388614 0.00430999
0.392727 0.00427756
0.396883 0.00424532
0.401082 0.00421326
0.405325 0.00418137
0.409612 0.00414966
0.413944 0.00411811
0.418321 0.00408673
0.422743 0.00405550
0.427212 0.00402441
0.431727 0.00399345
0.436290 0.00396260
0.440900 0.00393184
0.445558 0.00390115
0.450265 0.00387050
0.455020 0.00383985
0.459826 0.00380916
0.464681 0.00377839
0.469587 0.00374748
0.474545 0.00371637
0.479554 0.00368500
0.484615 0.00365329
0.489729 0.00362114
0.494896 0.00358846
0.500118 0.00355514
0.505393 0.00352104
0.510724 0.00348601
0.516110 0.00344991
0.521553 0.00341252
0.527052 0.00337365
0.532609 0.00333305
0.538223 0.00329044
0.543896 0.00324549
0.549629 0.00319785
0.555421 0.00314710
0.561273 0.00309277
0.567187 0.00303429
0.573162 0.00297105
0.579199 0.00290233
0.585300 0.00282732
0.591464 0.00274510
0.597692 0.00265462
0.603985 0.00255471
0.610344 0.00244410
0.616770 0.00232134
0.623262 0.00218492
0.629822 0.00203321
0.636450 0.00186452
0.643148 0.00167717
0.649915 0.00146960
0.656753 0.00124044
0.663662 0.00098873
0.670643 0.00071409
0.677698 0.00041704
0.684825 0.00009932
0.692027 -0.00023596
0.699304 -0.00058377
0.706657 -0.00093626
0.714087 -0.00128316
0.721594 -0.00161260
0.729180 -0.00191103
0.736844 -0.00216336
0.744589 -0.00235410
0.752414 -0.00246882
0.760321 -0.00249573
0.768310 -0.00242711
0.776383 -0.00226036
0.784540 -0.00199856
0.792782 -0.00165014
0.801110 -0.00122812
0.809525 -0.00074860
0.818027 -0.00022925
0.826618 0.00031221
0.835299 0.00085926
0.844070 0.00139739
0.852933 0.00191477
0.861888 0.00240240
0.870937 0.00285412
0.880080 0.00326636
0.889318 0.00363772
0.898653 0.00396853
0.908085 0.00426039
0.917615 0.00451575
0.927245 0.00473754
0.936975 0.00492894
0.946807 0.00509314
0.956741 0.00523321
0.966779 0.00535203
0.976921 0.00545221
0.987170 0.00553614
0.997525 0.00560592
1.007988 0.00566343
1.018560 0.00571033
1.029243 0.00574806
1.040037 0.00577789
1.050943 0.00580092
1.061963 0.00581810
1.073098 0.00583024
1.084350 0.00583810
1.095719 0.00584232
1.107206 0.00584340
1.118813 0.00584166
1.130541 0.00583741
1.142391 0.00583111
1.154365 0.00582307
1.166464 0.00581347
1.178689 0.00580256
1.191041 0.00579049
1.203523 0.00577744
1.216134 0.00576355
1.228877 0.00574894
1.241753 0.00573371
1.254763 0.00571794
1.267909 0.00570168
1.281192 0.00568501
1.294614 0.00566797
1.308175 0.00565061
1.321878 0.00563296
1.335724 0.00561501
1.349714 0.00559681
1.363850 0.00557840
1.378134 0.00555982
1.392566 0.00554106
1.407149 0.00552210
1.421884 0.00550295
1.436773 0.00548365
1.451817 0.00546429
1.467018 0.00544489
1.482378 0.00542546
1.497898 0.00540595
1.513579 0.00538639
1.529424 0.00536682
1.545434 0.00534733
1.561612 0.00532795
1.577958 0.00530865
1.594474 0.00528938
1.611163 0.00527013
1.628026 0.00525097
1.645064 0.00523199
1.662281 0.00521322
1.679676 0.00519461
1.697254 0.00517604
1.715014 0.00515749
1.732960 0.00513904
1.751093 0.00512080
1.769415 0.00510283
1.787928 0.00508507
1.806635 0.00506738
1.825536 0.00504969
1.844634 0.00503205
1.863932 0.00501458
1.883431 0.00499736
1.903133 0.00498041
1.923041 0.00496364
1.943156 0.00494685
1.963481 0.00492998
1.984018 0.00491314
2.004770 0.00489650
2.025737 0.00488016
2.046924 0.00486404
2.068331 0.00484787
2.089962 0.00483151
2.111818 0.00481509
2.133902 0.00479880
2.156216 0.00478279
2.178763 0.00476718
2.201546 0.00475179
2.224566 0.00473619
2.247825 0.00472029
2.271328 0.00470438
2.295075 0.00468876
2.319071 0.00467359
2.343316 0.00465885
2.367815 0.00464414
2.392569 0.00462909
2.417581 0.00461388
2.442854 0.00459885
2.468390 0.00458436
2.494193 0.00457078
2.520265 0.00455775
2.546608 0.00454458
2.573227 0.00453122
2.600123 0.00451901
2.627300 0.00450763
2.654760 0.00450035
2.682506 0.00449371
2.710542 0.00449767
2.738870 0.00449601
2.767494 0.00452776
2.796416 0.00452746
2.825639 0.00465180
2.855168 0.00438210
2.885004 0.00322621
