#             y      gradU_xx      gradU_xy      gradU_xz      gradU_yx      gradU_yy      gradU_yz      gradU_zx      gradU_zy      gradU_zz             U_x             U_y             U_z               k             nut           omega
   3.113662e-05    -0.035055043  -1.3900124e-06               0       4648.3667     0.034889289               0               0               0               0      0.14624571   6.3020335e-07               0    2.570499e-05   3.5395271e-11       4021243.3
  5.3394177e-05    -0.059878396  -3.6996604e-06               0         4647.39     0.059534972               0               0               0               0      0.24978939   1.6846199e-06               0   0.00012317569   3.5368101e-10       863166.12
  7.7022295e-05    -0.086217183  -7.4845826e-06               0       4645.7203     0.086136235               0               0               0               0      0.35968173   3.4177246e-06               0   0.00040467579      2.1012e-09       332218.54
  0.00010210537      -0.1141414   -1.299306e-05               0       4642.0057      0.11414087               0               0               0               0      0.47628447   5.9437081e-06               0    0.0010444833   8.9309586e-09       167515.43
  0.00012873299     -0.14367908  -2.0506622e-05               0       4633.0932      0.14365339               0               0               0               0      0.59992439   9.3917744e-06               0     0.002291185   3.0046584e-08       98149.119
  0.00015700027     -0.17475465   -3.034813e-05               0       4612.7489      0.17470332               0               0               0               0       0.7308126   1.3911038e-05               0    0.0044747043   8.4937066e-08       63355.387
  0.00018700818     -0.20708742  -4.2868277e-05               0       4570.5162      0.20702815               0               0               0               0      0.86889817   1.9664575e-05               0    0.0079972748   2.0919594e-07        43866.95
  0.00021886389     -0.24007742  -5.8417861e-05               0       4491.9103      0.24003195               0               0               0               0        1.013655   2.6820814e-05               0     0.013287785   4.5903161e-07       32096.658
  0.00025268119     -0.27276157   -7.732211e-05               0       4361.4448      0.27274958               0               0               0               0       1.1638587    3.553944e-05               0     0.020701898   9.1026275e-07       24575.762
  0.00028858087     -0.30394553  -9.9843965e-05               0        4168.651      0.30397411               0               0               0               0       1.3174889   4.5953407e-05               0      0.03038031   1.6483311e-06       19536.278
  0.00032669115     -0.33253543  -0.00012615384               0       3914.2602       0.3325999               0               0               0               0       1.4719035   5.8155977e-05               0     0.042130602   2.7511175e-06       16004.611
  0.00036714817     -0.35790689  -0.00015636452               0       3612.0179       0.3580005               0               0               0               0       1.6242949   7.2202752e-05               0     0.055421222   4.2728763e-06       13418.371
  0.00041009642      -0.3800484  -0.00019058588               0       3284.2299      0.38012463               0               0               0               0       1.7722305   8.8129431e-05               0     0.069515175   6.2380448e-06       11445.238
  0.00045568931      -0.3994216  -0.00022892952               0        2954.589       0.3994334               0               0               0               0       1.9140158    0.0001059699               0     0.083669405   8.6463056e-06       9886.8814
  0.00050408968     -0.41689233  -0.00027159122               0       2642.7911       0.4168665               0               0               0               0       2.0488212   0.00012578205               0     0.097292799   1.1458915e-05       8622.8446
  0.00055547043     -0.43346415  -0.00031894916               0       2360.6204      0.43342165               0               0               0               0       2.1766172   0.00014767635               0      0.11001449   1.4605964e-05       7576.4854
  0.00061001506     -0.44956343   -0.0003714577               0       2110.1119        0.449536               0               0               0               0       2.2978342   0.00017180963               0      0.12166148   1.8076454e-05       6696.0239
   0.0006679184      -0.4650762  -0.00042956566               0       1887.4079      0.46509963               0               0               0               0       2.4129217   0.00019834962               0      0.13217682   2.1935952e-05       5945.5213
  0.00072938728     -0.48001482    -0.000493764               0       1688.7296      0.48004419               0               0               0               0       2.5222166   0.00022745904               0      0.14155749   2.6236487e-05       5299.8205
  0.00079464125     -0.49458409  -0.00056460408               0       1512.0063      0.49458901               0               0               0               0       2.6260504   0.00025931808               0      0.14984001   3.0995107e-05        4740.682
  0.00086391338     -0.50898944  -0.00064270417               0       1355.6018      0.50898693               0               0               0               0       2.7248018   0.00029413865               0      0.15709253   3.6219466e-05       4254.2128
   0.0009374511     -0.52341329  -0.00072876916               0       1217.6913      0.52341205               0               0               0               0       2.8188787   0.00033216126               0      0.16340037   4.1912916e-05       3829.4048
   0.0010155171     -0.53801391  -0.00082360057               0       1096.3423      0.53801296               0               0               0               0       2.9086965   0.00037365683               0      0.16885461   4.8076326e-05       3457.2825
   0.0010983902     -0.55292483  -0.00092810566               0       989.64959      0.55292201               0               0               0               0       2.9946622   0.00041892959               0      0.17354452   5.4707572e-05       3130.3889
   0.0011863663     -0.56826112   -0.0010433119               0       895.82712      0.56825804               0               0               0               0       3.0771646   0.00046832035               0      0.17755316   6.1800925e-05       2842.4544
   0.0012797599     -0.58412936   -0.0011703786               0       813.24988      0.58412803               0               0               0               0       3.1565699   0.00052221004               0      0.18095509   6.9347163e-05       2588.1687
   0.0013789043     -0.60063052   -0.0013106109               0       740.46686      0.60063108               0               0               0               0        3.233219   0.00058102377               0      0.18381561   7.7333337e-05       2363.0146
   0.0014841538     -0.61786263   -0.0014654796               0       676.20078      0.61786213               0               0               0               0       3.3074273   0.00064523568               0      0.18619063   8.5742424e-05       2163.1398
   0.0015958843     -0.63591622   -0.0016366428               0       619.33834      0.63591379               0               0               0               0       3.3794859   0.00071537452               0      0.18812718   9.4552917e-05       1985.2522
   0.0017144948     -0.65487941   -0.0018259653               0       568.91502      0.65487752               0               0               0               0       3.4496625   0.00079202992               0      0.18966407   0.00010373839       1826.5327
    0.001840409     -0.67484518   -0.0020355413               0       524.09847      0.67484496               0               0               0               0       3.5182043   0.00087585951               0      0.19083257     0.000113267        1684.563
   0.0019740768     -0.69590679   -0.0022677241               0       484.17181      0.69590849               0               0               0               0       3.5853395   0.00096759696               0      0.19165718   0.00012310101       1557.2658
   0.0021159754     -0.71815964    -0.002525149               0       448.51777      0.71816105               0               0               0               0       3.6512799    0.0010680609               0      0.19215622   0.00013319635       1442.8525
   0.0022666117     -0.74169597   -0.0028107664               0        416.6045      0.74169577               0               0               0               0       3.7162224     0.001178165               0       0.1923424   0.00014350211       1339.7783
   0.0024265239     -0.76660305   -0.0031278846               0       387.97327        0.766605               0               0               0               0       3.7803512    0.0012989286               0      0.19222325   0.00015396018       1246.7053
    0.002596283     -0.79297445    -0.003480198               0       362.22742      0.79297859               0               0               0               0       3.8438396    0.0014314888               0      0.19180138   0.00016450476       1162.4703
   0.0027764954       -0.820899   -0.0038718138               0       339.02264      0.82090184               0               0               0               0       3.9068507    0.0015771129               0       0.1910748   0.00017506225       1086.0579
   0.0029678048     -0.85044844   -0.0043072821               0       318.05887      0.85045279               0               0               0               0       3.9695394    0.0017372122               0      0.19003713   0.00018555129       1016.5776
   0.0031708945     -0.88169067    -0.004791605               0       299.07331      0.88169933               0               0               0               0       4.0320525    0.0019133562               0      0.18867765   0.00019588276       953.24419
     0.00338649     -0.91468596   -0.0053302119               0       281.83456      0.91469492               0               0               0               0       4.0945294    0.0021072865               0      0.18698129    0.0002059597       895.36022
   0.0036153613      -0.9494668   -0.0059289368               0       266.13794      0.94947261               0               0               0               0       4.1571027    0.0023209318               0      0.18492858    0.0002156774       842.30157
   0.0038583258     -0.98603373   -0.0065940011               0        251.8015      0.98603821               0               0               0               0       4.2198976    0.0025564207               0      0.18249565   0.00022492325       793.50396
   0.0041162514      -1.0243582   -0.0073320082               0       238.66273       1.0243647               0               0               0               0       4.2830319    0.0028160935               0      0.17965406   0.00023357616       748.45091
   0.0043900594      -1.0643782   -0.0081499584               0       226.57629       1.0643888               0               0               0               0       4.3466154    0.0031025114               0       0.1763707    0.0002415051       706.66232
   0.0046807278      -1.1059957   -0.0090552213               0       215.41259       1.1060093               0               0               0               0       4.4107489    0.0034184648               0      0.17260747   0.00024856644        667.6831
   0.0049892948      -1.1490712    -0.010055388               0       205.05622       1.1490849               0               0               0               0       4.4755243     0.003766978               0      0.16832095   0.00025460031       631.07136
   0.0053168625      -1.1934134    -0.011157884               0        195.4037       1.1934278               0               0               0               0       4.5410232    0.0041513119               0      0.16346173   0.00025942711       596.38542
   0.0056646009      -1.2387497    -0.012369251               0       186.35767       1.2387688               0               0               0               0       4.6073161    0.0045749577               0       0.1579736   0.00026284806       563.16915
   0.0060337521      -1.2846098    -0.013693985               0       177.81271       1.2846401               0               0               0               0       4.6744576     0.005041604               0      0.15179268   0.00026465921       530.93638
   0.0064256347      -1.3299888    -0.015132491               0       169.62433       1.3300519               0               0               0               0       4.7424734    0.0055550185               0      0.14484762   0.00026469709       499.15745
   0.0068416484      -1.3725448    -0.016675547               0       161.54686       1.3726553               0               0               0               0        4.811326    0.0061186919               0      0.13706379   0.00026295039       467.25884
    0.007283279      -1.4069886    -0.018279786               0       153.13169       1.4070593               0               0               0               0       4.8808341    0.0067348269               0      0.12838685   0.00025979745       434.77209
   0.0077521041        -1.42325    -0.019812143               0         143.658       1.4232471               0               0               0               0       4.9505123    0.0074020097               0      0.11887108   0.00025639826       401.96189
   0.0082497982      -1.4077777    -0.021015533               0       132.30971       1.4079084               0               0               0               0        5.019362     0.008111763               0      0.10877616   0.00025486155       369.89741
    0.008778139      -1.3507394     -0.02161359               0       118.73011       1.3500837               0               0               0               0       5.0858129    0.0088462138               0     0.098514137    0.0002575439       339.17238
   0.0093390136      -1.2548141     -0.02158664               0        103.7038       1.2537635               0               0               0               0       5.1480837    0.0095796068               0     0.088509513   0.00026532716       309.44726
   0.0099344254      -1.1401844    -0.021275879               0       88.987748       1.1412478               0               0               0               0       5.2050375     0.010291426               0     0.079079409   0.00027427723       280.18752
    0.010566501       -1.028055    -0.021018234               0       75.726936       1.0292733               0               0               0               0       5.2566434     0.010975497               0      0.07037678   0.00027936799        250.8178
    0.011237498     -0.91315257    -0.020607366               0       63.509392      0.91233374               0               0               0               0       5.3030789     0.011627386               0     0.062516242    0.0002834524       220.85757
    0.011949813     -0.77880076    -0.019548477               0       51.613943      0.77816526               0               0               0               0       5.3438355     0.012231012               0     0.055699442   0.00029345792        190.5408
    0.012705991     -0.62805527    -0.017832673               0       40.220726      0.62825347               0               0               0               0       5.3781673     0.012761606               0     0.050129715   0.00031374616       160.96905
    0.013508733     -0.47783289     -0.01581039               0       30.044875      0.47799214               0               0               0               0       5.4058309      0.01320051               0     0.045874925   0.00034736513       133.57675
    0.014360904     -0.34236195    -0.013765418               0       21.620094      0.34222726               0               0               0               0       5.4272429      0.01354261               0     0.042828865   0.00039781015       109.33447
    0.015265551     -0.22899881    -0.011896949               0       15.089949      0.22878482               0               0               0               0       5.4432647     0.013792442               0     0.040766368    0.0004715733       88.248085
    0.016225903     -0.14089991    -0.010349846               0       10.331781      0.14099991               0               0               0               0        5.454948     0.013961303               0     0.039441009   0.00057419485       70.322944
    0.017245391    -0.078077529   -0.0091879984               0       7.0782733     0.078254177               0               0               0               0       5.4633939     0.014065302               0     0.038641877   0.00069900082        56.37459
    0.018327656    -0.035734559   -0.0083673114               0       4.9529167     0.035763759               0               0               0               0       5.4695975     0.014121174               0     0.038191938   0.00083157391       46.558614
    0.019476565   -0.0069587239    -0.007788662               0       3.5648785    0.0069530621               0               0               0               0       5.4742898     0.014141801               0     0.037954637   0.00096353573       39.770458
     0.02069622      0.01345443   -0.0073570766               0       2.6245862     -0.01344329               0               0               0               0       5.4779321     0.014135176               0     0.037843669    0.0010919711       34.893006
    0.021990978     0.028564064    -0.007018644               0       1.9601554    -0.028553044               0               0               0               0       5.4808088     0.014106048               0     0.037808601    0.0012146775       31.278059
    0.023365464     0.040162067   -0.0067431427               0       1.4737417    -0.040156285               0               0               0               0       5.4831029     0.014057348               0     0.037818542    0.0013298369       28.537195
    0.024824587     0.049339672   -0.0065083958               0        1.106942    -0.049335262               0               0               0               0       5.4849363     0.013990877               0     0.037853722    0.0014359674       26.425886
    0.026373559     0.056787518   -0.0063018384               0      0.82333545    -0.056781396               0               0               0               0       5.4863931     0.013907717               0     0.037900906    0.0015319075       24.783413
    0.028017912     0.062960518   -0.0061149185               0      0.59935994    -0.062956495               0               0               0               0       5.4875324     0.013808439               0      0.03795095    0.0016168303       23.499961
     0.02976352     0.068173629   -0.0059416614               0      0.41929521    -0.068171652               0               0               0               0       5.4883967     0.013693257               0     0.037997537    0.0016902676       22.497716
    0.031616619     0.072644351   -0.0057777155               0       0.2724485    -0.072642007               0               0               0               0       5.4890169     0.013562122               0     0.038036383    0.0017521273       21.719536
    0.033583826     0.076520233   -0.0056205243               0      0.15145337    -0.076514118               0               0               0               0        5.489416     0.013414791               0     0.038064781    0.0018026997       21.121894
    0.035672168     0.079906255   -0.0054672973               0     0.051171495    -0.079898197               0               0               0               0       5.4896119     0.013250889               0      0.03808136    0.0018426438       20.670356
    0.037889106      0.08287919   -0.0053157254               0    -0.032010394    -0.082876703               0               0               0               0        5.489619     0.013069894               0     0.038085943    0.0018729506       20.336673
    0.040242556     0.085490616   -0.0051658335               0     -0.10060906    -0.085491083               0               0               0               0       5.4894501     0.012871205               0     0.038079397    0.0018948752       20.096945
    0.042740925     0.087769136   -0.0050165596               0     -0.15633523    -0.087768002               0               0               0               0       5.4891171     0.012654212               0     0.038063454    0.0019098432       19.930568
    0.045393137     0.089732362   -0.0048672679               0     -0.20041101    -0.089732753               0               0               0               0       5.4886328     0.012418262               0     0.038040561    0.0019193435       19.819732
    0.048208665     0.091395227   -0.0047184562               0     -0.23386064    -0.091396734               0               0               0               0        5.488011       0.0121627               0     0.038013556    0.0019248121       19.749281
    0.051197566     0.092769923   -0.0045700143               0     -0.25765922    -0.092770125               0               0               0               0       5.4872669     0.011886895               0     0.037985264    0.0019275276        19.70674
    0.054370516     0.093870885   -0.0044219911               0     -0.27280612    -0.093870208               0               0               0               0       5.4864167      0.01159022               0     0.037958157    0.0019285388       19.682339
    0.057738847     0.094720729   -0.0042741139               0     -0.28037738    -0.094719923               0               0               0               0       5.4854776     0.011272038               0     0.037934063    0.0019286317       19.668896
    0.061314592     0.095350685   -0.0041256748               0     -0.28151769    -0.095349151               0               0               0               0       5.4844668      0.01093167               0     0.037914022    0.0019283383       19.661496
     0.06511052      0.09579586   -0.0039755566               0     -0.27738233     -0.09579317               0               0               0               0       5.4834011      0.01056836               0     0.037898306    0.0019279791       19.657007
    0.069140193     0.096091358   -0.0038222382               0     -0.26906998    -0.096089717               0               0               0               0       5.4822965     0.010181242               0     0.037886595    0.0019277252       19.653522
    0.073418001     0.096274413   -0.0036640163               0     -0.25755613    -0.096274656               0               0               0               0       5.4811676    0.0097693059               0      0.03787825    0.0019276645       19.649811
    0.077959226     0.096379838     -0.00349915               0     -0.24364919    -0.096378604               0               0               0               0       5.4800282    0.0093313893               0     0.037872572    0.0019278607       19.644867
    0.082780087     0.096428249   -0.0033260146               0       -0.227993    -0.096425786               0               0               0               0       5.4788908    0.0088661759               0     0.037869006    0.0019283952       19.637574
    0.087897803      0.09643527   -0.0031431934               0     -0.21109423    -0.096434234               0               0               0               0       5.4777675    0.0083721989               0     0.037867215    0.0019293832       19.626593
    0.093330656       0.0964181   -0.0029494458               0     -0.19335501    -0.096416898               0               0               0               0       5.4766699    0.0078478474               0     0.037867045      0.00193095       19.610585
