-0.046805 0.00095065
-0.040820 0.00173804
-0.035594 0.00278859
-0.031029 0.00372364
-0.027043 0.00449137
-0.023561 0.00513811
-0.020521 0.00569894
-0.017866 0.00618214
-0.015547 0.00659294
-0.013522 0.00694196
-0.011753 0.00723983
-0.010208 0.00749531
-0.008859 0.00771443
-0.007681 0.00790090
-0.006653 0.00806034
-0.005754 0.00819900
-0.004969 0.00831893
-0.004284 0.00841992
-0.003686 0.00850687
-0.003163 0.00858440
-0.002706 0.00865132
-0.002308 0.00870778
-0.001960 0.00875670
-0.001656 0.00879855
-0.001390 0.00883251
-0.001158 0.00886308
-0.000956 0.00889194
-0.000779 0.00891703
-0.000624 0.00893715
-0.000489 0.00895099
-0.000372 0.00896853
-0.000269 0.00898993
-0.000179 0.00899743
-0.000100 0.00899514
-0.000032 0.00900459
0.000030 0.00902443
0.000090 0.00903284
0.000151 0.00903140
0.000213 0.00903784
0.000275 0.00905214
0.000338 0.00906060
0.000401 0.00906110
0.000465 0.00906062
0.000530 0.00906375
0.000596 0.00907685
0.000662 0.00908634
0.000729 0.00909634
0.000797 0.00911420
0.000865 0.00911831
0.000934 0.00911501
0.001004 0.00911513
0.001074 0.00912377
0.001145 0.00914518
0.001217 0.00915598
0.001290 0.00915184
0.001363 0.00915995
0.001437 0.00918036
0.001512 0.00918817
0.001588 0.00918341
0.001665 0.00918549
0.001742 0.00919213
0.001820 0.00920623
0.001899 0.00922471
0.001979 0.00922958
0.002060 0.00923311
0.002141 0.00924767
0.002223 0.00925960
0.002306 0.00925995
0.002391 0.00926923
0.002475 0.00928266
0.002561 0.00928481
0.002648 0.00929553
0.002736 0.00931643
0.002824 0.00932643
0.002913 0.00932554
0.003004 0.00932557
0.003095 0.00933566
0.003187 0.00935343
0.003281 0.00936492
0.003375 0.00937686
0.003470 0.00938507
0.003566 0.00938310
0.003663 0.00939441
0.003762 0.00941906
0.003861 0.00943249
0.003961 0.00943468
0.004062 0.00943705
0.004165 0.00944664
0.004268 0.00946334
0.004373 0.00947994
0.004478 0.00949401
0.004585 0.00949885
0.004693 0.00950239
0.004802 0.00951160
0.004912 0.00952341
0.005023 0.00954276
0.005135 0.00955825
0.005249 0.00956737
0.005363 0.00957900
0.005479 0.00958581
0.005596 0.00959380
0.005715 0.00961253
0.005834 0.00962651
0.005955 0.00963440
0.006077 0.00964910
0.006201 0.00966263
0.006325 0.00967370
0.006451 0.00968559
0.006579 0.00969621
0.006707 0.00970920
0.006837 0.00972740
0.006968 0.00974624
0.007101 0.00975189
0.007235 0.00975736
0.007370 0.00977747
0.007507 0.00979814
0.007646 0.00981027
0.007785 0.00981707
0.007926 0.00982863
0.008069 0.00984290
0.008213 0.00985580
0.008359 0.00987233
0.008506 0.00988756
0.008655 0.00990134
0.008805 0.00992028
0.008957 0.00993791
0.009110 0.00994770
0.009265 0.00995886
0.009422 0.00997505
0.009580 0.00999254
0.009740 0.01000787
0.009901 0.01001914
0.010065 0.01003425
0.010230 0.01005399
0.010396 0.01007230
0.010565 0.01008514
0.010735 0.01009406
0.010907 0.01011053
0.011081 0.01013553
0.011256 0.01015347
0.011433 0.01016501
0.011613 0.01018068
0.011794 0.01019738
0.011977 0.01021124
0.012162 0.01022370
0.012348 0.01024067
0.012537 0.01026306
0.012728 0.01028042
0.012921 0.01029398
0.013115 0.01030969
0.013312 0.01032403
0.013511 0.01034413
0.013712 0.01036712
0.013915 0.01038139
0.014120 0.01039622
0.014327 0.01041324
0.014537 0.01042674
0.014748 0.01044223
0.014962 0.01046169
0.015178 0.01048279
0.015396 0.01050354
0.015617 0.01051972
0.015840 0.01053321
0.016065 0.01055206
0.016292 0.01057066
0.016522 0.01058602
0.016755 0.01060485
0.016989 0.01062386
0.017226 0.01064081
0.017466 0.01065750
0.017708 0.01067499
0.017953 0.01069275
0.018200 0.01071071
0.018450 0.01072889
0.018702 0.01074506
0.018957 0.01076253
0.019215 0.01078120
0.019475 0.01079881
0.019738 0.01081766
0.020004 0.01083343
0.020273 0.01084717
0.020544 0.01086682
0.020819 0.01088748
0.021096 0.01090546
0.021376 0.01092253
0.021659 0.01093658
0.021944 0.01095253
0.022233 0.01097294
0.022525 0.01099036
0.022820 0.01100575
0.023118 0.01102253
0.023419 0.01103823
0.023723 0.01105616
0.024031 0.01107305
0.024341 0.01108699
0.024655 0.01110539
0.024972 0.01112314
0.025293 0.01113703
0.025616 0.01115389
0.025944 0.01117060
0.026274 0.01118355
0.026608 0.01119844
0.026946 0.01121603
0.027287 0.01123247
0.027631 0.01124541
0.027979 0.01125889
0.028331 0.01127409
0.028686 0.01128696
0.029046 0.01130116
0.029409 0.01131544
0.029775 0.01132934
0.030146 0.01134488
0.030520 0.01135734
0.030898 0.01136795
0.031281 0.01137980
0.031667 0.01139382
0.032057 0.01140814
0.032451 0.01141773
0.032850 0.01142657
0.033252 0.01143964
0.033659 0.01145202
0.034070 0.01146124
0.034485 0.01147066
0.034905 0.01148132
0.035329 0.01149196
0.035757 0.01150087
0.036190 0.01150796
0.036628 0.01151562
0.037070 0.01152450
0.037516 0.01153201
0.037968 0.01153903
0.038424 0.01154685
0.038884 0.01155238
0.039350 0.01155807
0.039820 0.01156569
0.040295 0.01157196
0.040776 0.01157544
0.041261 0.01157846
0.041751 0.01158306
0.042246 0.01158603
0.042747 0.01158800
0.043253 0.01159073
0.043764 0.01159210
0.044280 0.01159383
0.044802 0.01159571
0.045329 0.01159598
0.045862 0.01159636
0.046400 0.01159530
0.046944 0.01159321
0.047494 0.01159303
0.048049 0.01159243
0.048610 0.01158909
0.049177 0.01158455
0.049750 0.01158036
0.050329 0.01157578
0.050914 0.01157170
0.051505 0.01156837
0.052102 0.01156228
0.052705 0.01155439
0.053315 0.01154822
0.053931 0.01154025
0.054553 0.01153047
0.055182 0.01152332
0.055817 0.01151487
0.056460 0.01150467
0.057108 0.01149542
0.057764 0.01148407
0.058426 0.01147175
0.059096 0.01146120
0.059772 0.01144900
0.060455 0.01143461
0.061146 0.01142174
0.061843 0.01140810
0.062548 0.01139193
0.063261 0.01137730
0.063980 0.01136392
0.064708 0.01134723
0.065442 0.01132830
0.066185 0.01131106
0.066935 0.01129471
0.067693 0.01127710
0.068459 0.01125825
0.069233 0.01123897
0.070015 0.01121906
0.070805 0.01119852
0.071604 0.01117885
0.072410 0.01115859
0.073226 0.01113592
0.074049 0.01111324
0.074881 0.01109123
0.075722 0.01106900
0.076572 0.01104570
0.077431 0.01102199
0.078298 0.01099926
0.079175 0.01097523
0.080060 0.01094981
0.080955 0.01092438
0.081860 0.01089850
0.082773 0.01087323
0.083697 0.01084854
0.084629 0.01082275
0.085572 0.01079575
0.086524 0.01076872
0.087487 0.01074168
0.088459 0.01071393
0.089442 0.01068589
0.090434 0.01065816
0.091437 0.01063000
0.092451 0.01060127
0.093475 0.01057271
0.094510 0.01054427
0.095556 0.01051651
0.096612 0.01048839
0.097680 0.01045824
0.098758 0.01042797
0.099848 0.01039906
0.100950 0.01037052
0.102062 0.01034084
0.103187 0.01031015
0.104323 0.01028063
0.105471 0.01025150
0.106631 0.01022136
0.107803 0.01019099
0.108987 0.01016018
0.110184 0.01012960
0.111393 0.01010024
0.112615 0.01007112
0.113849 0.01004084
0.115096 0.01001019
0.116357 0.00998056
0.117630 0.00995096
0.118917 0.00992080
0.120217 0.00989040
0.121531 0.00986044
0.122858 0.00983060
0.124199 0.00980020
0.125555 0.00977031
0.126924 0.00974106
0.128308 0.00971138
0.129706 0.00968136
0.131118 0.00965212
0.132546 0.00962366
0.133988 0.00959448
0.135446 0.00956457
0.136918 0.00953560
0.138406 0.00950729
0.139909 0.00947807
0.141428 0.00944871
0.142963 0.00942033
0.144514 0.00939225
0.146081 0.00936421
0.147665 0.00933586
0.149265 0.00930728
0.150882 0.00927942
0.152515 0.00925210
0.154166 0.00922453
0.155833 0.00919672
0.157519 0.00916926
0.159221 0.00914222
0.160942 0.00911550
0.162680 0.00908853
0.164437 0.00906132
0.166212 0.00903489
0.168005 0.00900891
0.169817 0.00898267
0.171648 0.00895617
0.173498 0.00893002
0.175368 0.00890437
0.177257 0.00887830
0.179165 0.00885219
0.181094 0.00882694
0.183042 0.00880221
0.185011 0.00877718
0.187001 0.00875188
0.189011 0.00872724
0.191042 0.00870274
0.193094 0.00867787
0.195168 0.00865328
0.197264 0.00862875
0.199381 0.00860420
0.201520 0.00858003
0.203682 0.00855644
0.205866 0.00853295
0.208073 0.00850922
0.210303 0.00848533
0.212556 0.00846139
0.214833 0.00843806
0.217133 0.00841510
0.219458 0.00839197
0.221806 0.00836890
0.224180 0.00834600
0.226578 0.00832322
0.229001 0.00830050
0.231449 0.00827783
0.233923 0.00825526
0.236422 0.00823272
0.238948 0.00821039
0.241500 0.00818810
0.244078 0.00816593
0.246684 0.00814401
0.249316 0.00812199
0.251977 0.00810020
0.254664 0.00807863
0.257380 0.00805722
0.260124 0.00803575
0.262897 0.00801377
0.265699 0.00799204
0.268530 0.00797111
0.271390 0.00795011
0.274281 0.00792895
0.277201 0.00790810
0.280152 0.00788708
0.283134 0.00786616
0.286147 0.00784566
0.289191 0.00782492
0.292267 0.00780424
0.295375 0.00778370
0.298515 0.00776329
0.301688 0.00774327
0.304895 0.00772316
0.308134 0.00770300
0.311408 0.00768302
0.314715 0.00766303
0.318058 0.00764319
0.321435 0.00762353
0.324847 0.00760396
0.328295 0.00758444
0.331778 0.00756479
0.335298 0.00754539
0.338855 0.00752643
0.342449 0.00750728
0.346081 0.00748781
0.349750 0.00746876
0.353457 0.00745018
0.357204 0.00743130
0.360989 0.00741236
0.364813 0.00739395
0.368678 0.00737557
0.372583 0.00735692
0.376529 0.00733834
0.380515 0.00731987
0.384544 0.00730155
0.388614 0.00728350
0.392727 0.00726566
0.396883 0.00724790
0.401082 0.00722990
0.405325 0.00721174
0.409612 0.00719397
0.413944 0.00717652
0.418321 0.00715889
0.422743 0.00714128
0.427212 0.00712391
0.431727 0.00710662
0.436290 0.00708934
0.440900 0.00707217
0.445558 0.00705508
0.450265 0.00703796
0.455020 0.00702088
0.459826 0.00700403
0.464681 0.00698716
0.469587 0.00697038
0.474545 0.00695390
0.479554 0.00693721
0.484615 0.00692043
0.489729 0.00690418
0.494896 0.00688797
0.500118 0.00687147
0.505393 0.00685516
0.510724 0.00683901
0.516110 0.00682287
0.521553 0.00680678
0.527052 0.00679080
0.532609 0.00677490
0.538223 0.00675890
0.543896 0.00674313
0.549629 0.00672750
0.555421 0.00671162
0.561273 0.00669592
0.567187 0.00668058
0.573162 0.00666526
0.579199 0.00664979
0.585300 0.00663423
0.591464 0.00661885
0.597692 0.00660369
0.603985 0.00658854
0.610344 0.00657329
0.616770 0.00655814
0.623262 0.00654322
0.629822 0.00652826
0.636450 0.00651329
0.643148 0.00649851
0.649915 0.00648381
0.656753 0.00646904
0.663662 0.00645434
0.670643 0.00643976
0.677698 0.00642523
0.684825 0.00641077
0.692027 0.00639631
0.699304 0.00638190
0.706657 0.00636759
0.714087 0.00635325
0.721594 0.00633896
0.729180 0.00632473
0.736844 0.00631047
0.744589 0.00629623
0.752414 0.00628211
0.760321 0.00626811
0.768310 0.00625407
0.776383 0.00623997
0.784540 0.00622596
0.792782 0.00621192
0.801110 0.00619778
0.809525 0.00618376
0.818027 0.00616991
0.826618 0.00615599
0.835299 0.00614199
0.844070 0.00612799
0.852933 0.00611411
0.861888 0.00610030
0.870937 0.00608646
0.880080 0.00607271
0.889318 0.00605894
0.898653 0.00604505
0.908085 0.00603123
0.917615 0.00601749
0.927245 0.00600375
0.936975 0.00599003
0.946807 0.00597638
0.956741 0.00596278
0.966779 0.00594916
0.976921 0.00593550
0.987170 0.00592183
0.997525 0.00590814
1.007988 0.00589449
1.018560 0.00588095
1.029243 0.00586748
1.040037 0.00585387
1.050943 0.00584025
1.061963 0.00582675
1.073098 0.00581318
1.084350 0.00579965
1.095719 0.00578612
1.107206 0.00577254
1.118813 0.00575907
1.130541 0.00574563
1.142391 0.00573208
1.154365 0.00571863
1.166464 0.00570523
1.178689 0.00569170
1.191041 0.00567817
1.203523 0.00566478
1.216134 0.00565139
1.228877 0.00563791
1.241753 0.00562439
1.254763 0.00561093
1.267909 0.00559752
1.281192 0.00558409
1.294614 0.00557058
1.308175 0.00555704
1.321878 0.00554360
1.335724 0.00553019
1.349714 0.00551667
1.363850 0.00550307
1.378134 0.00548954
1.392566 0.00547609
1.407149 0.00546257
1.421884 0.00544895
1.436773 0.00543534
1.451817 0.00542178
1.467018 0.00540819
1.482378 0.00539453
1.497898 0.00538077
1.513579 0.00536700
1.529424 0.00535332
1.545434 0.00533964
1.561612 0.00532588
1.577958 0.00531204
1.594474 0.00529818
1.611163 0.00528432
1.628026 0.00527037
1.645064 0.00525639
1.662281 0.00524244
1.679676 0.00522846
1.697254 0.00521443
1.715014 0.00520030
1.732960 0.00518608
1.751093 0.00517187
1.769415 0.00515762
1.787928 0.00514334
1.806635 0.00512902
1.825536 0.00511460
1.844634 0.00510012
1.863932 0.00508565
1.883431 0.00507112
1.903133 0.00505649
1.923041 0.00504179
1.943156 0.00502702
1.963481 0.00501215
1.984018 0.00499724
2.004770 0.00498229
2.025737 0.00496733
2.046924 0.00495231
2.068331 0.00493713
2.089962 0.00492182
2.111818 0.00490641
2.133902 0.00489092
2.156216 0.00487541
2.178763 0.00485992
2.201546 0.00484435
2.224566 0.00482859
2.247825 0.00481266
2.271328 0.00479664
2.295075 0.00478056
2.319071 0.00476442
2.343316 0.00474824
2.367815 0.00473202
2.392569 0.00471567
2.417581 0.00469916
2.442854 0.00468250
2.468390 0.00466578
2.494193 0.00464911
2.520265 0.00463258
2.546608 0.00461615
2.573227 0.00459968
2.600123 0.00458415
2.627300 0.00456864
2.654760 0.00455585
2.682506 0.00454174
2.710542 0.00453661
2.738870 0.00452374
2.767494 0.00453854
2.796416 0.00451515
2.825639 0.00457945
2.855168 0.00451395
2.885004 0.00391816
