#             x      gradU_xx      gradU_xy      gradU_xz      gradU_yx      gradU_yy      gradU_yz      gradU_zx      gradU_zy      gradU_zz             U_x             U_y             U_z               k             nut           omega
   -0.046805254     0.013860526       0.1578615               0  -0.00042956056    -0.013526274               0               0               0               0       5.4000302   0.00047045294               0     0.047574591    0.0020010587       23.774705
   -0.040820451     0.025340606      0.15685787               0   -0.0015241248    -0.025874176               0               0               0               0       5.4001291    0.0014018983               0      0.04746378    0.0020004253       23.726837
   -0.035593767     0.040657681      0.15497401               0   -0.0035312305    -0.041000327               0               0               0               0       5.4002977    0.0022243738               0     0.047365528    0.0019998496       23.684541
   -0.031029167     0.054290677      0.15247746               0   -0.0061384716    -0.054048258               0               0               0               0       5.4005147    0.0029324303               0     0.047280037     0.001999339        23.64783
   -0.027042782     0.065484183      0.14965351               0   -0.0090484091    -0.065261237               0               0               0               0       5.4007541    0.0035399469               0     0.047205616    0.0019988881       23.615934
   -0.023561368     0.074913698      0.14670284               0    -0.012064388    -0.074868946               0               0               0               0       5.4009991    0.0040602812               0     0.047140806    0.0019984911       23.588197
   -0.020520958     0.083090483      0.14375046               0    -0.015068111    -0.083082869               0               0               0               0         5.40124    0.0045055862               0     0.047084346    0.0019981424       23.564058
   -0.017865688     0.090135645       0.1408839               0    -0.017974191    -0.090095253               0               0               0               0       5.4014709     0.004886634               0     0.047035145    0.0019978365       23.543039
   -0.015546772     0.096125072      0.13816437               0    -0.020723605    -0.096078115               0               0               0               0       5.4016879    0.0052128349               0     0.046992259    0.0019975686       23.524728
   -0.013521602      0.10121384       0.1356292               0    -0.023283471     -0.10118277               0               0               0               0       5.4018887    0.0054923135               0     0.046954867    0.0019973341       23.508769
   -0.011752967      0.10555674      0.13329698               0    -0.025636405     -0.10554049               0               0               0               0       5.4020725    0.0057320219               0      0.04692226     0.001997129       23.494856
   -0.010208373      0.10928164      0.13117349               0    -0.027778305     -0.10926399               0               0               0               0       5.4022393    0.0059378748               0      0.04689382    0.0019969498       23.482724
  -0.0088594378      0.11247645      0.12925612               0    -0.029714228     -0.11244936               0               0               0               0       5.4023897    0.0061148873               0      0.04686901    0.0019967931       23.472141
  -0.0076813777      0.11519509      0.12753689               0    -0.031450579     -0.11517806               0               0               0               0       5.4025246    0.0062673047               0     0.046847364    0.0019966562       23.462909
   -0.006652547       0.1175198      0.12600454               0    -0.033002256     -0.11751892               0               0               0               0        5.402645    0.0063987186               0     0.046828476    0.0019965367       23.454854
  -0.0057540422      0.11954137      0.12464621               0    -0.034385048     -0.11953001               0               0               0               0       5.4027521     0.006512169               0     0.046811993    0.0019964323       23.447824
  -0.0049693545      0.12129001      0.12344854               0    -0.035612798     -0.12126026               0               0               0               0       5.4028472    0.0066102312               0     0.046797607    0.0019963411       23.441689
  -0.0042840662      0.12276238      0.12239818               0    -0.036697711     -0.12275094               0               0               0               0       5.4029313    0.0066950902               0     0.046785051    0.0019962615       23.436335
   -0.003685586      0.12403014      0.12148163               0    -0.037653999     -0.12403686               0               0               0               0       5.4030056     0.006768603               0     0.046774091    0.0019961919       23.431661
  -0.0031629175       0.1251606      0.12068367               0     -0.03849926     -0.12514744               0               0               0               0       5.4030712    0.0068323496               0     0.046764523    0.0019961312        23.42758
  -0.0027064575      0.12613627       0.1199848               0    -0.039244796     -0.12610752               0               0               0               0       5.4031289    0.0068876761               0      0.04675617    0.0019960782       23.424018
  -0.0023078191      0.12695938      0.11935702               0    -0.039899725     -0.12693814               0               0               0               0       5.4031796    0.0069357287               0     0.046748879    0.0019960319       23.420908
  -0.0019596776      0.12767271      0.11875903               0    -0.040474609     -0.12765707               0               0               0               0       5.4032242    0.0069774826               0     0.046742512    0.0019959914       23.418193
  -0.0016556366      0.12828289      0.11813041               0    -0.040977967     -0.12827929               0               0               0               0       5.4032634    0.0070137652               0     0.046736954    0.0019959561       23.415823
  -0.0013901097      0.12877794      0.11739201               0    -0.041418326     -0.12881735               0               0               0               0       5.4032977    0.0070452763               0       0.0467321    0.0019959253       23.413753
   -0.001158218      0.12922368      0.11645915               0    -0.041805862     -0.12928198               0               0               0               0       5.4033278    0.0070726083               0     0.046727862    0.0019958983       23.411946
   -0.000955701      0.12964447      0.11525665               0    -0.042147796     -0.12968245               0               0               0               0       5.4033542    0.0070962673               0     0.046724162    0.0019958748       23.410367
 -0.00077883757      0.13001035      0.11373168               0      -0.0424466     -0.13002679               0               0               0               0       5.4033773     0.007116692               0     0.046720931    0.0019958543       23.408989
 -0.00062437811      0.13030366      0.11186851               0    -0.042706152     -0.13032209               0               0               0               0       5.4033976    0.0071342691               0     0.046718109    0.0019958363       23.407786
 -0.00048948463      0.13050539      0.10969931               0    -0.042932514     -0.13057471               0               0               0               0       5.4034153    0.0071493467               0     0.046715645    0.0019958207       23.406735
 -0.00037167862      0.13076119      0.10730654               0    -0.043131698     -0.13079041               0               0               0               0       5.4034307    0.0071622425               0     0.046713493     0.001995807       23.405817
 -0.00026879555      0.13107311      0.10481821               0    -0.043306155     -0.13097444               0               0               0               0       5.4034443    0.0071732487               0     0.046711614     0.001995795       23.405016
 -0.00017894507      0.13118248      0.10239684               0    -0.043457389     -0.13113156               0               0               0               0       5.4034562    0.0071826343               0     0.046709973    0.0019957846       23.404316
  -0.0001004763      0.13114912      0.10022169               0    -0.043590592     -0.13126601               0               0               0               0       5.4034665    0.0071906445               0      0.04670854    0.0019957755       23.403705
 -3.1947465e-05      0.13128689     0.098430881               0    -0.043708343     -0.13138242               0               0               0               0       5.4034756    0.0071975489               0     0.046707279    0.0019957674       23.403167
  2.9991242e-05      0.13157625     0.097021121               0    -0.043814815     -0.13148721               0               0               0               0       5.4034839    0.0072037275               0     0.046706131    0.0019957601       23.402677
  9.0286504e-05      0.13169875     0.095850496               0    -0.043916741     -0.13158739               0               0               0               0        5.403492    0.0072095959               0     0.046705024    0.0019957531       23.402206
  0.00015121058      0.13167786     0.094783213               0     -0.04401887      -0.1316871               0               0               0               0          5.4035    0.0072154008               0     0.046703917    0.0019957461       23.401733
  0.00021277004       0.1317717     0.093770047               0    -0.044124372     -0.13178736               0               0               0               0       5.4035081    0.0072212024               0     0.046702798     0.001995739       23.401256
   0.0002749715      0.13198023     0.092804997               0    -0.044231044      -0.1318882               0               0               0               0       5.4035163     0.007227003               0     0.046701667    0.0019957318       23.400774
  0.00033782165      0.13210353     0.091886125               0    -0.044338385     -0.13198962               0               0               0               0       5.4035246     0.007232805               0     0.046700525    0.0019957245       23.400287
  0.00040132727       0.1321108     0.091012039               0    -0.044446023     -0.13209166               0               0               0               0        5.403533    0.0072386106               0     0.046699371    0.0019957172       23.399794
  0.00046549519      0.13210385     0.090182324               0    -0.044553498     -0.13219434               0               0               0               0       5.4035415    0.0072444221               0     0.046698205    0.0019957098       23.399297
  0.00053033231      0.13214943     0.089395886               0    -0.044662723     -0.13229769               0               0               0               0         5.40355    0.0072502419               0     0.046697026    0.0019957023       23.398794
  0.00059584562      0.13234051      0.08865107               0    -0.044775323     -0.13240173               0               0               0               0       5.4035587    0.0072560722               0     0.046695836    0.0019956947       23.398286
  0.00066204216      0.13247883      0.08794655               0    -0.044888971     -0.13250649               0               0               0               0       5.4035674    0.0072619154               0     0.046694633    0.0019956871       23.397773
  0.00072892907      0.13262465      0.08728109               0    -0.045001581     -0.13261198               0               0               0               0       5.4035763    0.0072677737               0     0.046693418    0.0019956793       23.397255
  0.00079651354      0.13288497      0.08665386               0    -0.045116233     -0.13271823               0               0               0               0       5.4035853    0.0072736495               0      0.04669219    0.0019956715       23.396731
  0.00086480285      0.13294502     0.086063979               0    -0.045231258     -0.13282527               0               0               0               0       5.4035944    0.0072795451               0     0.046690949    0.0019956636       23.396202
  0.00093380434      0.13289685     0.085509966               0    -0.045349636     -0.13293312               0               0               0               0       5.4036035    0.0072854627               0     0.046689696    0.0019956557       23.395667
   0.0010035254       0.1328986     0.084990418               0    -0.045470424     -0.13304179               0               0               0               0       5.4036128    0.0072914047               0     0.046688429    0.0019956476       23.395127
   0.0010739737      0.13302453     0.084504147               0    -0.045591167     -0.13315132               0               0               0               0       5.4036222    0.0072973732               0     0.046687149    0.0019956395       23.394581
   0.0011451566      0.13333677     0.084050251               0    -0.045712636     -0.13326173               0               0               0               0       5.4036316    0.0073033705               0     0.046685856    0.0019956313        23.39403
   0.0012170819      0.13349413      0.08362782               0    -0.045834679     -0.13337304               0               0               0               0       5.4036412    0.0073093989               0      0.04668455     0.001995623       23.393472
   0.0012897573       0.1334339     0.083235414               0    -0.045959801     -0.13348528               0               0               0               0       5.4036509    0.0073154606               0      0.04668323    0.0019956146       23.392909
   0.0013631906      0.13355207     0.082871953               0    -0.046087055     -0.13359845               0               0               0               0       5.4036607    0.0073215578               0     0.046681896    0.0019956061        23.39234
   0.0014373898      0.13384963     0.082536436               0     -0.04621511     -0.13371259               0               0               0               0       5.4036706    0.0073276926               0     0.046680549    0.0019955975       23.391765
   0.0015123628      0.13396354     0.082227762               0    -0.046343165     -0.13382772               0               0               0               0       5.4036807    0.0073338674               0     0.046679188    0.0019955889       23.391185
   0.0015881177      0.13389413     0.081945124               0    -0.046472181     -0.13394386               0               0               0               0       5.4036908    0.0073400841               0     0.046677812    0.0019955801       23.390598
   0.0016646626      0.13392442     0.081687268               0    -0.046604458     -0.13406103               0               0               0               0       5.4037011    0.0073463451               0     0.046676422    0.0019955713       23.390005
   0.0017420058       0.1340213     0.081452803               0    -0.046739611     -0.13417924               0               0               0               0       5.4037114    0.0073526523               0     0.046675018    0.0019955623       23.389406
   0.0018201557      0.13422685     0.081240969               0    -0.046875721     -0.13429852               0               0               0               0       5.4037219    0.0073590079               0     0.046673599    0.0019955533       23.388801
   0.0018991205      0.13449625     0.081051132               0    -0.047012125      -0.1344189               0               0               0               0       5.4037325     0.007365414               0     0.046672166    0.0019955442       23.388189
   0.0019789089      0.13456723     0.080882072               0    -0.047149613     -0.13454039               0               0               0               0       5.4037433    0.0073718726               0     0.046670717     0.001995535       23.387572
   0.0020595294      0.13461872     0.080732519               0    -0.047289901     -0.13466301               0               0               0               0       5.4037541    0.0073783857               0     0.046669254    0.0019955257       23.386947
   0.0021409906      0.13483102      0.08060186               0    -0.047431281     -0.13478677               0               0               0               0       5.4037651    0.0073849553               0     0.046667776    0.0019955163       23.386317
   0.0022233015       0.1350049     0.080489421               0    -0.047574704      -0.1349117               0               0               0               0       5.4037762    0.0073915835               0     0.046666282    0.0019955068       23.385679
   0.0023064707      0.13501007     0.080394187               0    -0.047719457     -0.13503782               0               0               0               0       5.4037874    0.0073982722               0     0.046664772    0.0019954972       23.385036
   0.0023905073      0.13514534     0.080315234               0    -0.047865137     -0.13516514               0               0               0               0       5.4037988    0.0074050234               0     0.046663247    0.0019954875       23.384385
   0.0024754204      0.13534117     0.080251631               0    -0.048014438     -0.13529368               0               0               0               0       5.4038103     0.007411839               0     0.046661706    0.0019954777       23.383728
   0.0025612189      0.13537254     0.080202621               0     -0.04816474     -0.13542346               0               0               0               0       5.4038219    0.0074187208               0      0.04666015    0.0019954678       23.383064
   0.0026479123      0.13552887     0.080167352               0    -0.048316432      -0.1355545               0               0               0               0       5.4038336    0.0074256708               0     0.046658577    0.0019954578       23.382393
   0.0027355098      0.13583362     0.080145056               0    -0.048470711     -0.13568681               0               0               0               0       5.4038455    0.0074326907               0     0.046656988    0.0019954477       23.381715
   0.0028240209      0.13597932     0.080135237               0    -0.048624109     -0.13582041               0               0               0               0       5.4038575    0.0074397825               0     0.046655382    0.0019954374        23.38103
    0.002913455      0.13596636     0.080136918               0    -0.048779774     -0.13595531               0               0               0               0       5.4038697    0.0074469478               0      0.04665376    0.0019954271       23.380338
   0.0030038219      0.13596674     0.080149266               0    -0.048938857     -0.13609154               0               0               0               0        5.403882    0.0074541886               0      0.04665212    0.0019954167       23.379638
   0.0030951311      0.13611389     0.080171775               0    -0.049100553      -0.1362291               0               0               0               0       5.4038944    0.0074615065               0     0.046650464    0.0019954062       23.378932
   0.0031873927        0.136373     0.080203716               0    -0.049265376     -0.13636801               0               0               0               0       5.4039069    0.0074689033               0     0.046648791    0.0019953955       23.378218
   0.0032806164      0.13654057     0.080244396               0    -0.049428671     -0.13650829               0               0               0               0       5.4039197    0.0074763805               0     0.046647101    0.0019953848       23.377497
   0.0033748124       0.1367146     0.080293048               0    -0.049593611     -0.13664995               0               0               0               0       5.4039325      0.00748394               0     0.046645393    0.0019953739       23.376768
   0.0034699907      0.13683426     0.080349191               0    -0.049762588     -0.13679301               0               0               0               0       5.4039456    0.0074915834               0     0.046643667    0.0019953629       23.376032
   0.0035661616      0.13680557     0.080412364               0    -0.049932511     -0.13693747               0               0               0               0       5.4039587    0.0074993122               0     0.046641924    0.0019953518       23.375288
   0.0036633356      0.13697052     0.080481726               0    -0.050104781     -0.13708336               0               0               0               0        5.403972    0.0075071281               0     0.046640162    0.0019953406       23.374537
   0.0037615229      0.13732994     0.080556682               0    -0.050279775     -0.13723067               0               0               0               0       5.4039855    0.0075150326               0     0.046638382    0.0019953293       23.373777
   0.0038607342       0.1375257     0.080636822               0    -0.050455636     -0.13737943               0               0               0               0       5.4039991    0.0075230272               0     0.046636584    0.0019953178        23.37301
   0.0039609802      0.13755768     0.080721646               0    -0.050634416     -0.13752965               0               0               0               0       5.4040129    0.0075311135               0     0.046634767    0.0019953063       23.372235
   0.0040622717      0.13759224      0.08081063               0    -0.050815996     -0.13768133               0               0               0               0       5.4040268    0.0075392929               0     0.046632932    0.0019952946       23.371452
   0.0041646195      0.13773208     0.080903245               0    -0.050998953     -0.13783449               0               0               0               0       5.4040409     0.007547567               0     0.046631077    0.0019952828       23.370661
   0.0042680347      0.13797547     0.080998841               0    -0.051184706     -0.13798915               0               0               0               0       5.4040552    0.0075559371               0     0.046629203    0.0019952709       23.369862
   0.0043725284      0.13821752     0.081097008               0    -0.051370756      -0.1381453               0               0               0               0       5.4040696    0.0075644046               0      0.04662731    0.0019952588       23.369054
   0.0044781119       0.1384227     0.081197482               0    -0.051559647     -0.13830296               0               0               0               0       5.4040842    0.0075729709               0     0.046625397    0.0019952467       23.368237
   0.0045847965       0.1384932     0.081299742               0    -0.051750669     -0.13846214               0               0               0               0        5.404099    0.0075816374               0     0.046623464    0.0019952344       23.367413
   0.0046925938      0.13854488     0.081403311               0    -0.051942776     -0.13862285               0               0               0               0       5.4041139    0.0075904054               0     0.046621512    0.0019952219        23.36658
   0.0048015152      0.13867907     0.081507796               0    -0.052138763     -0.13878509               0               0               0               0        5.404129    0.0075992762               0     0.046619539    0.0019952094       23.365738
   0.0049115726      0.13885135     0.081612832               0    -0.052337965     -0.13894888               0               0               0               0       5.4041443     0.007608251               0     0.046617546    0.0019951967       23.364888
   0.0050227778      0.13913343     0.081718167               0    -0.052539166     -0.13911422               0               0               0               0       5.4041597    0.0076173312               0     0.046615532    0.0019951839       23.364029
   0.0051351427      0.13935922     0.081823362               0    -0.052740659     -0.13928111               0               0               0               0       5.4041754    0.0076265179               0     0.046613498    0.0019951709       23.363161
   0.0052486795      0.13949225     0.081927874               0    -0.052944991     -0.13944957               0               0               0               0       5.4041912    0.0076358123               0     0.046611442    0.0019951578       23.362283
   0.0053634003      0.13966178     0.082031543               0     -0.05315338      -0.1396196               0               0               0               0       5.4042072    0.0076452155               0     0.046609365    0.0019951446       23.361397
   0.0054793176      0.13976105     0.082134132               0     -0.05336344      -0.1397912               0               0               0               0       5.4042234    0.0076547289               0     0.046607267    0.0019951313       23.360502
   0.0055964437      0.13987766     0.082235141               0    -0.053575459     -0.13996439               0               0               0               0       5.4042398    0.0076643533               0     0.046605147    0.0019951178       23.359597
   0.0057147914      0.14015072     0.082334291               0    -0.053790783     -0.14013916               0               0               0               0       5.4042563      0.00767409               0     0.046603005    0.0019951041       23.358683
   0.0058343733      0.14035453     0.082431375               0    -0.054007645     -0.14031552               0               0               0               0       5.4042731      0.00768394               0     0.046600841    0.0019950904        23.35776
   0.0059552024      0.14046949      0.08252614               0    -0.054227721     -0.14049347               0               0               0               0       5.4042901    0.0076939043               0     0.046598654    0.0019950764       23.356827
   0.0060772915      0.14068382     0.082618403               0    -0.054451394     -0.14067301               0               0               0               0       5.4043072     0.007703984               0     0.046596445    0.0019950624       23.355884
    0.006200654      0.14088118     0.082707857               0    -0.054675644     -0.14085416               0               0               0               0       5.4043246    0.0077141799               0     0.046594214    0.0019950482       23.354932
   0.0063253029      0.14104255     0.082794132               0    -0.054903774     -0.14103691               0               0               0               0       5.4043422    0.0077244932               0     0.046591959    0.0019950338        23.35397
   0.0064512519      0.14121589      0.08287701               0    -0.055133917     -0.14122126               0               0               0               0       5.4043599    0.0077349247               0     0.046589681    0.0019950193       23.352998
   0.0065785143      0.14137077     0.082956345               0    -0.055365197     -0.14140721               0               0               0               0       5.4043779    0.0077454753               0     0.046587379    0.0019950046       23.352016
    0.006707104      0.14156018     0.083032032               0    -0.055601438     -0.14159476               0               0               0               0       5.4043961     0.007756146               0     0.046585053    0.0019949898       23.351023
   0.0068370347      0.14182554     0.083103764               0    -0.055841133     -0.14178392               0               0               0               0       5.4044145    0.0077669375               0     0.046582704    0.0019949749       23.350021
   0.0069683205      0.14210021     0.083171201               0    -0.056083627     -0.14197467               0               0               0               0       5.4044332    0.0077778507               0      0.04658033    0.0019949598       23.349008
   0.0071009754      0.14218255     0.083234363               0    -0.056327374     -0.14216703               0               0               0               0        5.404452    0.0077888863               0     0.046577932    0.0019949445       23.347985
   0.0072350138      0.14226232      0.08329313               0    -0.056574379     -0.14236099               0               0               0               0       5.4044711    0.0078000453               0     0.046575509    0.0019949291       23.346951
   0.0073704501      0.14255545     0.083347096               0    -0.056826023     -0.14255655               0               0               0               0       5.4044904    0.0078113282               0     0.046573061    0.0019949135       23.345906
   0.0075072989      0.14285682      0.08339622               0    -0.057078921     -0.14275369               0               0               0               0       5.4045099    0.0078227359               0     0.046570588    0.0019948977        23.34485