#             x             U_x             U_y             U_z               k             nut           omega
   -0.046805254       5.4000302   0.00047045294               0     0.047574591    0.0020010586       23.774705
   -0.040820451       5.4001291    0.0014018983               0      0.04746378    0.0020004253       23.726837
   -0.035593767       5.4002977    0.0022243738               0     0.047365528    0.0019998496       23.684541
   -0.031029167       5.4005147    0.0029324303               0     0.047280037     0.001999339        23.64783
   -0.027042782       5.4007541    0.0035399469               0     0.047205616    0.0019988881       23.615934
   -0.023561368       5.4009991    0.0040602812               0     0.047140806    0.0019984911       23.588197
   -0.020520958         5.40124    0.0045055862               0     0.047084346    0.0019981423       23.564058
   -0.017865688       5.4014709     0.004886634               0     0.047035145    0.0019978365       23.543039
   -0.015546772       5.4016879    0.0052128349               0     0.046992259    0.0019975685       23.524728
   -0.013521602       5.4018887    0.0054923135               0     0.046954867    0.0019973341       23.508769
   -0.011752967       5.4020725    0.0057320219               0      0.04692226     0.001997129       23.494856
   -0.010208373       5.4022393    0.0059378748               0      0.04689382    0.0019969498       23.482724
  -0.0088594378       5.4023897    0.0061148873               0      0.04686901    0.0019967931       23.472141
  -0.0076813777       5.4025246    0.0062673047               0     0.046847364    0.0019966563       23.462909
   -0.006652547        5.402645    0.0063987186               0     0.046828476    0.0019965367       23.454854
  -0.0057540422       5.4027521     0.006512169               0     0.046811993    0.0019964323       23.447824
  -0.0049693545       5.4028472    0.0066102312               0     0.046797607    0.0019963411       23.441689
  -0.0042840662       5.4029313    0.0066950902               0     0.046785051    0.0019962614       23.436335
   -0.003685586       5.4030056     0.006768603               0     0.046774091    0.0019961919       23.431661
  -0.0031629175       5.4030712    0.0068323496               0     0.046764523    0.0019961312        23.42758
  -0.0027064575       5.4031289    0.0068876761               0      0.04675617    0.0019960781       23.424018
  -0.0023078191       5.4031796    0.0069357287               0     0.046748879    0.0019960318       23.420908
  -0.0019596776       5.4032242    0.0069774826               0     0.046742512    0.0019959914       23.418193
  -0.0016556366       5.4032634    0.0070137652               0     0.046736954    0.0019959561       23.415823
  -0.0013901097       5.4032977    0.0070452763               0       0.0467321    0.0019959252       23.413753
   -0.001158218       5.4033278    0.0070726083               0     0.046727862    0.0019958983       23.411946
   -0.000955701       5.4033542    0.0070962673               0     0.046724162    0.0019958748       23.410367
 -0.00077883757       5.4033773     0.007116692               0     0.046720931    0.0019958543       23.408989
 -0.00062437811       5.4033976    0.0071342691               0     0.046718109    0.0019958363       23.407786
 -0.00048948463       5.4034153    0.0071493467               0     0.046715645    0.0019958207       23.406735
 -0.00037167862       5.4034307    0.0071622425               0     0.046713493     0.001995807       23.405817
 -0.00026879555       5.4034443    0.0071732487               0     0.046711614     0.001995795       23.405016
 -0.00017894507       5.4034562    0.0071826343               0     0.046709973    0.0019957846       23.404316
  -0.0001004763       5.4034665    0.0071906445               0      0.04670854    0.0019957755       23.403705
 -3.1947465e-05       5.4034756    0.0071975489               0     0.046707279    0.0019957675       23.403167
  2.9991242e-05       5.4034839    0.0072037275               0     0.046706131    0.0019957602       23.402677
  9.0286504e-05        5.403492    0.0072095959               0     0.046705024    0.0019957531       23.402206
  0.00015121058          5.4035    0.0072154008               0     0.046703917    0.0019957461       23.401733
  0.00021277004       5.4035081    0.0072212024               0     0.046702798     0.001995739       23.401256
   0.0002749715       5.4035163     0.007227003               0     0.046701667    0.0019957318       23.400774
  0.00033782165       5.4035246     0.007232805               0     0.046700525    0.0019957245       23.400287
  0.00040132727        5.403533    0.0072386106               0     0.046699371    0.0019957172       23.399794
  0.00046549519       5.4035415    0.0072444221               0     0.046698205    0.0019957098       23.399297
  0.00053033231         5.40355    0.0072502419               0     0.046697026    0.0019957023       23.398794
  0.00059584562       5.4035587    0.0072560722               0     0.046695836    0.0019956947       23.398286
  0.00066204216       5.4035674    0.0072619154               0     0.046694633    0.0019956871       23.397773
  0.00072892907       5.4035763    0.0072677737               0     0.046693418    0.0019956794       23.397255
  0.00079651354       5.4035853    0.0072736495               0      0.04669219    0.0019956715       23.396731
  0.00086480285       5.4035944    0.0072795451               0     0.046690949    0.0019956636       23.396202
  0.00093380434       5.4036035    0.0072854627               0     0.046689696    0.0019956557       23.395667
   0.0010035254       5.4036128    0.0072914047               0     0.046688429    0.0019956476       23.395127
   0.0010739737       5.4036222    0.0072973732               0     0.046687149    0.0019956395       23.394581
   0.0011451566       5.4036316    0.0073033705               0     0.046685856    0.0019956313        23.39403
   0.0012170819       5.4036412    0.0073093989               0      0.04668455     0.001995623       23.393472
   0.0012897573       5.4036509    0.0073154606               0      0.04668323    0.0019956146       23.392909
   0.0013631906       5.4036607    0.0073215578               0     0.046681896    0.0019956061        23.39234
   0.0014373898       5.4036706    0.0073276926               0     0.046680549    0.0019955975       23.391765
   0.0015123628       5.4036807    0.0073338674               0     0.046679188    0.0019955889       23.391185
   0.0015881177       5.4036908    0.0073400841               0     0.046677812    0.0019955801       23.390598
   0.0016646626       5.4037011    0.0073463451               0     0.046676422    0.0019955713       23.390005
   0.0017420058       5.4037114    0.0073526523               0     0.046675018    0.0019955624       23.389406
   0.0018201557       5.4037219    0.0073590079               0     0.046673599    0.0019955533       23.388801
   0.0018991205       5.4037325     0.007365414               0     0.046672166    0.0019955442       23.388189
   0.0019789089       5.4037433    0.0073718726               0     0.046670717     0.001995535       23.387572
   0.0020595294       5.4037541    0.0073783857               0     0.046669254    0.0019955257       23.386947
   0.0021409906       5.4037651    0.0073849553               0     0.046667776    0.0019955163       23.386317
   0.0022233015       5.4037762    0.0073915835               0     0.046666282    0.0019955068       23.385679
   0.0023064707       5.4037874    0.0073982722               0     0.046664772    0.0019954972       23.385036
   0.0023905073       5.4037988    0.0074050234               0     0.046663247    0.0019954875       23.384385
   0.0024754204       5.4038103     0.007411839               0     0.046661706    0.0019954777       23.383728
   0.0025612189       5.4038219    0.0074187208               0      0.04666015    0.0019954678       23.383064
   0.0026479123       5.4038336    0.0074256708               0     0.046658577    0.0019954578       23.382393
   0.0027355098       5.4038455    0.0074326907               0     0.046656988    0.0019954477       23.381715
   0.0028240209       5.4038575    0.0074397825               0     0.046655382    0.0019954375        23.38103
    0.002913455       5.4038697    0.0074469478               0      0.04665376    0.0019954271       23.380338
   0.0030038219        5.403882    0.0074541886               0      0.04665212    0.0019954167       23.379638
   0.0030951311       5.4038944    0.0074615065               0     0.046650464    0.0019954062       23.378932
   0.0031873927       5.4039069    0.0074689033               0     0.046648791    0.0019953955       23.378218
   0.0032806164       5.4039197    0.0074763805               0     0.046647101    0.0019953848       23.377497
   0.0033748124       5.4039325      0.00748394               0     0.046645393    0.0019953739       23.376768
   0.0034699907       5.4039456    0.0074915834               0     0.046643667    0.0019953629       23.376032
   0.0035661616       5.4039587    0.0074993122               0     0.046641924    0.0019953518       23.375288
   0.0036633356        5.403972    0.0075071281               0     0.046640162    0.0019953406       23.374537
   0.0037615229       5.4039855    0.0075150326               0     0.046638382    0.0019953293       23.373777
   0.0038607342       5.4039991    0.0075230272               0     0.046636584    0.0019953179        23.37301
   0.0039609802       5.4040129    0.0075311135               0     0.046634767    0.0019953063       23.372235
   0.0040622717       5.4040268    0.0075392929               0     0.046632932    0.0019952946       23.371452
   0.0041646195       5.4040409     0.007547567               0     0.046631077    0.0019952828       23.370661
   0.0042680347       5.4040552    0.0075559371               0     0.046629203    0.0019952709       23.369862
   0.0043725284       5.4040696    0.0075644046               0      0.04662731    0.0019952588       23.369054
   0.0044781119       5.4040842    0.0075729709               0     0.046625397    0.0019952467       23.368237
   0.0045847965        5.404099    0.0075816374               0     0.046623464    0.0019952344       23.367413
   0.0046925938       5.4041139    0.0075904054               0     0.046621512    0.0019952219        23.36658
   0.0048015152        5.404129    0.0075992762               0     0.046619539    0.0019952094       23.365738
   0.0049115726       5.4041443     0.007608251               0     0.046617546    0.0019951967       23.364888
   0.0050227778       5.4041597    0.0076173312               0     0.046615532    0.0019951839       23.364029
   0.0051351427       5.4041754    0.0076265179               0     0.046613498    0.0019951709       23.363161
   0.0052486795       5.4041912    0.0076358123               0     0.046611442    0.0019951578       23.362283
   0.0053634003       5.4042072    0.0076452155               0     0.046609365    0.0019951446       23.361397
   0.0054793176       5.4042234    0.0076547289               0     0.046607267    0.0019951313       23.360502
   0.0055964437       5.4042398    0.0076643533               0     0.046605147    0.0019951178       23.359597
   0.0057147914       5.4042563      0.00767409               0     0.046603005    0.0019951041       23.358683
   0.0058343733       5.4042731      0.00768394               0     0.046600841    0.0019950903        23.35776
   0.0059552024       5.4042901    0.0076939043               0     0.046598654    0.0019950764       23.356827
   0.0060772915       5.4043072     0.007703984               0     0.046596445    0.0019950624       23.355884
    0.006200654       5.4043246    0.0077141799               0     0.046594214    0.0019950482       23.354932
   0.0063253029       5.4043422    0.0077244932               0     0.046591959    0.0019950338        23.35397
   0.0064512519       5.4043599    0.0077349247               0     0.046589681    0.0019950193       23.352998
   0.0065785143       5.4043779    0.0077454753               0     0.046587379    0.0019950046       23.352016
    0.006707104       5.4043961     0.007756146               0     0.046585053    0.0019949898       23.351023
   0.0068370347       5.4044145    0.0077669375               0     0.046582704    0.0019949749       23.350021
   0.0069683205       5.4044332    0.0077778507               0      0.04658033    0.0019949598       23.349008
   0.0071009754        5.404452    0.0077888863               0     0.046577932    0.0019949445       23.347985
   0.0072350138       5.4044711    0.0078000453               0     0.046575509     0.001994929       23.346951
   0.0073704501       5.4044904    0.0078113282               0     0.046573061    0.0019949134       23.345906
   0.0075072989       5.4045099    0.0078227359               0     0.046570588    0.0019948977        23.34485
   0.0076455748       5.4045297     0.007834269               0     0.046568089    0.0019948818       23.343784
   0.0077852928       5.4045496    0.0078459283               0     0.046565564    0.0019948657       23.342707
    0.007926468       5.4045699    0.0078577143               0     0.046563014    0.0019948495       23.341618
   0.0080691154       5.4045903    0.0078696276               0     0.046560437     0.001994833       23.340519
   0.0082132505        5.404611    0.0078816689               0     0.046557833    0.0019948165       23.339407
   0.0083588888       5.4046319    0.0078938387               0     0.046555203    0.0019947997       23.338285
    0.008506046       5.4046531    0.0079061376               0     0.046552546    0.0019947828       23.337151
   0.0086547378       5.4046746     0.007918566               0     0.046549861    0.0019947657       23.336005
   0.0088049804       5.4046963    0.0079311245               0     0.046547148    0.0019947484       23.334847
   0.0089567898       5.4047183    0.0079438134               0     0.046544407    0.0019947309       23.333678
   0.0091101825       5.4047405    0.0079566332               0     0.046541639    0.0019947133       23.332496
   0.0092651749        5.404763    0.0079695844               0     0.046538842    0.0019946954       23.331302
   0.0094217836       5.4047858    0.0079826672               0     0.046536016    0.0019946774       23.330096
   0.0095800257       5.4048088     0.007995882               0      0.04653316    0.0019946592       23.328877
   0.0097399181       5.4048321    0.0080092291               0     0.046530276    0.0019946409       23.327646
    0.009901478       5.4048557    0.0080227088               0     0.046527361    0.0019946223       23.326403
    0.010064723       5.4048795    0.0080363213               0     0.046524417    0.0019946035       23.325146
     0.01022967       5.4049037    0.0080500668               0     0.046521442    0.0019945846       23.323876
    0.010396337       5.4049281    0.0080639456               0     0.046518437    0.0019945654       23.322593
    0.010564743       5.4049529    0.0080779578               0       0.0465154     0.001994546       23.321298
    0.010734905       5.4049779    0.0080921034               0     0.046512333    0.0019945265       23.319988
    0.010906842       5.4050032    0.0081063827               0     0.046509234    0.0019945067       23.318665
    0.011080571       5.4050289    0.0081207956               0     0.046506103    0.0019944868       23.317329
    0.011256113       5.4050548    0.0081353422               0      0.04650294    0.0019944666       23.315979
    0.011433485       5.4050811    0.0081500224               0     0.046499744    0.0019944462       23.314615
    0.011612707       5.4051077    0.0081648362               0     0.046496516    0.0019944256       23.313236
    0.011793798       5.4051346    0.0081797836               0     0.046493254    0.0019944048       23.311844
    0.011976778       5.4051618    0.0081948644               0     0.046489958    0.0019943838       23.310438
    0.012161666       5.4051894    0.0082100785               0     0.046486629    0.0019943625       23.309016
    0.012348482       5.4052172    0.0082254257               0     0.046483265    0.0019943411       23.307581
    0.012537247       5.4052454    0.0082409058               0     0.046479867    0.0019943194        23.30613
     0.01272798        5.405274    0.0082565184               0     0.046476434    0.0019942975       23.304665
    0.012920702       5.4053029    0.0082722634               0     0.046472966    0.0019942754       23.303184
    0.013115435       5.4053321    0.0082881404               0     0.046469462    0.0019942531       23.301688
    0.013312198       5.4053617     0.008304149               0     0.046465922    0.0019942305       23.300177
    0.013511013       5.4053917    0.0083202888               0     0.046462346    0.0019942077        23.29865
    0.013711901        5.405422    0.0083365593               0     0.046458733    0.0019941846       23.297108
    0.013914885       5.4054527      0.00835296               0     0.046455083    0.0019941613        23.29555
    0.014119985       5.4054838    0.0083694905               0     0.046451395    0.0019941378       23.293975
    0.014327225       5.4055152    0.0083861501               0     0.046447669     0.001994114       23.292385
    0.014536626        5.405547    0.0084029382               0     0.046443906      0.00199409       23.290778
     0.01474821       5.4055792    0.0084198541               0     0.046440104    0.0019940657       23.289155
    0.014962002       5.4056118    0.0084368971               0     0.046436262    0.0019940412       23.287515
    0.015178023       5.4056448    0.0084540665               0     0.046432382    0.0019940164       23.285858
    0.015396296       5.4056782    0.0084713614               0     0.046428461    0.0019939914       23.284184
    0.015616846        5.405712     0.008488781               0       0.0464245    0.0019939661       23.282493
    0.015839697       5.4057462    0.0085063244               0     0.046420499    0.0019939405       23.280785
    0.016064871       5.4057808    0.0085239907               0     0.046416456    0.0019939147       23.279059
    0.016292394       5.4058158    0.0085417788               0     0.046412372    0.0019938886       23.277315
    0.016522289       5.4058512    0.0085596876               0     0.046408247    0.0019938623       23.275553
    0.016754582       5.4058871    0.0085777162               0     0.046404079    0.0019938357       23.273774
    0.016989298       5.4059234    0.0085958633               0     0.046399868    0.0019938088       23.271976
    0.017226461       5.4059602    0.0086141277               0     0.046395614    0.0019937816       23.270159
    0.017466098       5.4059974    0.0086325081               0     0.046391317    0.0019937541       23.268324
    0.017708234       5.4060351    0.0086510032               0     0.046386975    0.0019937264        23.26647
    0.017952896       5.4060732    0.0086696117               0      0.04638259    0.0019936984       23.264598
    0.018200108       5.4061117    0.0086883321               0     0.046378159      0.00199367       23.262706
    0.018449899       5.4061508     0.008707163               0     0.046373683    0.0019936414       23.260795
    0.018702296       5.4061903    0.0087261026               0     0.046369161    0.0019936125       23.258864
    0.018957324       5.4062303    0.0087451496               0     0.046364593    0.0019935833       23.256913
    0.019215012       5.4062707    0.0087643021               0     0.046359978    0.0019935538       23.254942
    0.019475387       5.4063117    0.0087835584               0     0.046355316     0.001993524       23.252951
    0.019738478       5.4063531    0.0088029168               0     0.046350606    0.0019934939        23.25094
    0.020004313       5.4063951    0.0088223754               0     0.046345848    0.0019934635       23.248908
     0.02027292       5.4064376    0.0088419322               0     0.046341042    0.0019934328       23.246855
    0.020544328       5.4064805    0.0088615852               0     0.046336187    0.0019934017       23.244782
    0.020818567        5.406524    0.0088813324               0     0.046331281    0.0019933703       23.242687
    0.021095666        5.406568    0.0089011717               0     0.046326326    0.0019933386       23.240571
    0.021375655       5.4066126    0.0089211009               0      0.04632132    0.0019933066       23.238433
    0.021658563       5.4066576    0.0089411176               0     0.046316263    0.0019932742       23.236273
    0.021944423       5.4067032    0.0089612195               0     0.046311155    0.0019932415       23.234091
    0.022233263       5.4067494    0.0089814042               0     0.046305994    0.0019932085       23.231887
    0.022525116       5.4067961    0.0090016693               0      0.04630078    0.0019931752        23.22966
    0.022820012       5.4068434    0.0090220122               0     0.046295514    0.0019931414       23.227411
    0.023117984       5.4068913    0.0090424302               0     0.046290193    0.0019931074       23.225138
    0.023419063       5.4069397    0.0090629207               0     0.046284819     0.001993073       23.222843
    0.023723283       5.4069887    0.0090834808               0      0.04627939    0.0019930382       23.220523
    0.024030675       5.4070383    0.0091041078               0     0.046273905    0.0019930031       23.218181
    0.024341273       5.4070884    0.0091247985               0     0.046268365    0.0019929676       23.215814
     0.02465511       5.4071392      0.00914555               0     0.046262768    0.0019929318       23.213424
     0.02497222       5.4071906    0.0091663593               0     0.046257114    0.0019928956       23.211008
    0.025292637       5.4072426     0.009187223               0     0.046251403     0.001992859       23.208568
    0.025616396       5.4072952    0.0092081381               0     0.046245633     0.001992822       23.206104
    0.025943531       5.4073484    0.0092291011               0     0.046239805    0.0019927847       23.203614
    0.026274078       5.4074023    0.0092501086               0     0.046233917    0.0019927469       23.201099
    0.026608073       5.4074568     0.009271157               0     0.046227969    0.0019927088       23.198558
     0.02694555       5.4075119    0.0092922429               0     0.046221961    0.0019926703       23.195991
    0.027286547       5.4075677    0.0093133626               0     0.046215892    0.0019926314       23.193398
      0.0276311       5.4076242    0.0093345121               0     0.046209762    0.0019925921       23.190779
    0.027979247       5.4076813    0.0093556878               0     0.046203569    0.0019925524       23.188133
    0.028331025       5.4077391    0.0093768857               0     0.046197313    0.0019925123        23.18546
    0.028686471       5.4077975    0.0093981017               0     0.046190994    0.0019924717        23.18276
    0.029045624       5.4078566    0.0094193319               0      0.04618461    0.0019924308       23.180033
    0.029408522       5.4079165    0.0094405719               0     0.046178162    0.0019923894       23.177278
    0.029775206        5.407977    0.0094618175               0     0.046171648    0.0019923476       23.174495
    0.030145713       5.4080382    0.0094830644               0     0.046165068    0.0019923054       23.171683
    0.030520085       5.4081002    0.0095043081               0     0.046158421    0.0019922627       23.168843
     0.03089836       5.4081629     0.009525544               0     0.046151707    0.0019922197       23.165974
    0.031280581       5.4082262    0.0095467676               0     0.046144926    0.0019921761       23.163076
    0.031666788       5.4082903    0.0095679742               0     0.046138075    0.0019921321       23.160149
    0.032057023       5.4083552    0.0095891589               0     0.046131155    0.0019920877       23.157192
    0.032451328       5.4084208     0.009610317               0     0.046124164    0.0019920428       23.154204
    0.032849744       5.4084872    0.0096314434               0     0.046117103    0.0019919974       23.151187
    0.033252316       5.4085543     0.009652533               0     0.046109971    0.0019919516       23.148139
    0.033659086       5.4086221    0.0096735808               0     0.046102767    0.0019919053        23.14506
    0.034070098       5.4086908    0.0096945816               0     0.046095489    0.0019918585        23.14195
    0.034485397       5.4087602    0.0097155301               0     0.046088138    0.0019918113       23.138808
    0.034905027       5.4088304     0.009736421               0     0.046080713    0.0019917636       23.135635
    0.035329034       5.4089014    0.0097572487               0     0.046073213    0.0019917154       23.132429
    0.035757462       5.4089732    0.0097780078               0     0.046065637    0.0019916666       23.129191
    0.036190358       5.4090458    0.0097986927               0     0.046057984    0.0019916174        23.12592
    0.036627769       5.4091193    0.0098192976               0     0.046050254    0.0019915677       23.122616
    0.037069742       5.4091935    0.0098398168               0     0.046042446    0.0019915175       23.119279
    0.037516324       5.4092685    0.0098602446               0      0.04603456    0.0019914667       23.115908
    0.037967563       5.4093444     0.009880575               0     0.046026594    0.0019914155       23.112503
    0.038423508       5.4094212    0.0099008022               0     0.046018547    0.0019913637       23.109063
    0.038884209       5.4094987    0.0099209201               0     0.046010419    0.0019913113       23.105589
    0.039349714       5.4095771    0.0099409226               0      0.04600221    0.0019912585       23.102079
    0.039820074       5.4096564    0.0099608033               0     0.045993918    0.0019912051       23.098535
    0.040295339       5.4097366    0.0099805562               0     0.045985543    0.0019911512       23.094954
    0.040775561       5.4098176     0.010000175               0     0.045977083    0.0019910967       23.091337
    0.041260791       5.4098995     0.010019654               0     0.045968538    0.0019910416       23.087684
    0.041751081       5.4099823     0.010038986               0     0.045959907     0.001990986       23.083994
    0.042246485        5.410066     0.010058165               0     0.045951189    0.0019909298       23.080267
    0.042747055       5.4101505     0.010077184               0     0.045942384     0.001990873       23.076502
    0.043252845        5.410236     0.010096037               0      0.04593349    0.0019908157         23.0727
    0.043763911       5.4103224     0.010114717               0     0.045924508    0.0019907578       23.068859
    0.044280306       5.4104096     0.010133219               0     0.045915434    0.0019906992       23.064979
    0.044802087       5.4104978     0.010151534               0      0.04590627    0.0019906401       23.061061
    0.045329309        5.410587     0.010169658               0     0.045897014    0.0019905804       23.057103
     0.04586203        5.410677     0.010187582               0     0.045887665      0.00199052       23.053105
    0.046400307        5.410768       0.0102053               0     0.045878223    0.0019904591       23.049067
    0.046944197         5.41086     0.010222806               0     0.045868685    0.0019903975       23.044989
     0.04749376       5.4109529     0.010240094               0     0.045859053    0.0019903353       23.040869
    0.048049054       5.4110467     0.010257155               0     0.045849324    0.0019902725       23.036708
    0.048610139       5.4111415     0.010273983               0     0.045839497     0.001990209       23.032506
    0.049177075       5.4112373     0.010290573               0     0.045829572    0.0019901448       23.028261
    0.049749924        5.411334     0.010306916               0     0.045819549      0.00199008       23.023974
    0.050328748       5.4114317     0.010323007               0     0.045809424    0.0019900146       23.019644
    0.050913608       5.4115304     0.010338839               0     0.045799199    0.0019899485        23.01527
    0.051504567       5.4116301     0.010354405               0     0.045788872    0.0019898817       23.010853
    0.052101689       5.4117308     0.010369698               0     0.045778441    0.0019898142       23.006391
    0.052705039       5.4118325     0.010384713               0     0.045767907     0.001989746       23.001885
    0.053314682       5.4119351     0.010399442               0     0.045757268    0.0019896772       22.997333
    0.053930682       5.4120388     0.010413879               0     0.045746522    0.0019896076       22.992737
    0.054553106       5.4121435     0.010428017               0     0.045735669    0.0019895373       22.988094
    0.055182022       5.4122492     0.010441851               0     0.045724709    0.0019894664       22.983405
    0.055817496       5.4123559     0.010455373               0     0.045713639    0.0019893946       22.978669
    0.056459598       5.4124637     0.010468578               0     0.045702459    0.0019893222       22.973886
    0.057108397       5.4125724     0.010481459               0     0.045691168     0.001989249       22.969055