#      distance           pMean         UMean_x         UMean_y         UMean_z         nutMean wallShearStr... wallShearStr... wallShearStr...
  3.0219182e-06    7.521199e-05     0.026040057   1.1556913e-11   1.2820467e-38   6.4646138e-13               0               0               0
  5.0865428e-06   7.5211991e-05     0.043756367   2.9534166e-11  -4.4920604e-39   5.8610763e-12               0               0               0
  7.2269684e-06   7.5211992e-05     0.062032716   5.8104876e-11  -1.4000346e-38     3.25982e-11               0               0               0
  9.4750924e-06   7.5211993e-05     0.081103732   9.9190923e-11  -9.8942206e-39   1.3236984e-10               0               0               0
  1.1864417e-05   7.5211994e-05      0.10120438   1.5532635e-10               0   4.3352401e-10               0               0               0
  1.4430548e-05   7.5211995e-05      0.12255861   2.3013597e-10               0   1.2144988e-09               0               0               0
  1.7211727e-05   7.5211996e-05      0.14535347   3.2834553e-10    3.177168e-37   3.0118887e-09               0               0               0
  2.0249401e-05   7.5211998e-05       0.1696926   4.5584902e-10   2.9690652e-37   6.7395233e-09               0               0               0
  2.3588836e-05      7.5212e-05      0.19553352   6.1955967e-10   2.3191191e-37   1.3746231e-08               0               0               0
  2.7279799e-05   7.5212002e-05      0.22263644   8.2691674e-10  -4.8132905e-39    2.571424e-08               0               0               0
  3.1377293e-05   7.5212005e-05      0.25057063   1.0851569e-09  -6.2232319e-37   4.4371241e-08               0               0               0
  3.5942381e-05   7.5212009e-05      0.27880584   1.4008033e-09  -3.6478771e-37    7.108522e-08               0               0               0
  4.1043091e-05   7.5212014e-05      0.30685098   1.7797256e-09   2.5423318e-37   1.0665146e-07               0               0               0
  4.6755437e-05   7.5212021e-05      0.33435744   2.2280575e-09   6.0472697e-37   1.5127627e-07               0               0               0
  5.3164546e-05   7.5212028e-05      0.36113159   2.7536133e-09   1.1404736e-37   2.0525244e-07               0               0               0
  6.0365928e-05   7.5212038e-05      0.38706466   3.3665683e-09  -5.7876088e-37    2.700901e-07               0               0               0
    6.84669e-05   7.5212049e-05      0.41206214    4.078719e-09  -3.4231445e-37   3.4816246e-07               0               0               0
  7.7588184e-05   7.5212063e-05      0.43603555   4.9030483e-09               0   4.4166936e-07               0               0               0
   8.786571e-05    7.521208e-05      0.45892478    5.854861e-09  -2.1946977e-37   5.5249399e-07               0               0               0
  9.9452634e-05   7.5212101e-05      0.48071569   6.9525924e-09  -6.2871397e-39   6.8217138e-07               0               0               0
  0.00011252163   7.5212126e-05      0.50145104   8.2182397e-09   2.1318263e-37   8.3136536e-07               0               0               0
  0.00012726745   7.5212155e-05      0.52122261   9.6788757e-09   1.6281391e-36   9.9989753e-07               0               0               0
  0.00014390985   7.5212188e-05      0.54013719    1.136762e-08   2.4845323e-38   1.1888489e-06               0               0               0
  0.00016269684   7.5212228e-05      0.55828327   1.3322679e-08   -1.820559e-38   1.4013165e-06               0               0               0
  0.00018390838   7.5212273e-05      0.57572805    1.558747e-08   1.2574259e-38   1.6402767e-06               0               0               0
  0.00020786057   7.5212327e-05      0.59253112   1.8213079e-08  -1.5725139e-36   1.9081117e-06               0               0               0
  0.00023491035   7.5212389e-05      0.60875018   2.1259977e-08               0   2.2073555e-06               0               0               0
  0.00026546084   7.5212461e-05       0.6244399   2.4799134e-08               0   2.5407238e-06               0               0               0
   0.0002999673   7.5212545e-05      0.63965032      2.8914e-08               0   2.9111046e-06               0               0               0
  0.00033894396   7.5212641e-05      0.65442663   3.3702887e-08               0   3.3214916e-06               0               0               0
  0.00038297165   7.5212754e-05      0.66880984   3.9281801e-08               0   3.7749411e-06               0               0               0
  0.00043270649   7.5212883e-05      0.68283702   4.5787827e-08               0   4.2745453e-06               0               0               0
  0.00048888965   7.5213033e-05      0.69654106   5.3383075e-08               0   4.8233505e-06               0               0               0
  0.00055235838   7.5213206e-05      0.70995105   6.2259518e-08               0   5.4242342e-06               0               0               0
   0.0006240585   7.5213406e-05      0.72309285   7.2645158e-08               0   6.0797658e-06               0               0               0
  0.00070505852   7.5213636e-05      0.73598959   8.4811602e-08               0   6.7920561e-06               0               0               0
  0.00079656552   7.5213901e-05      0.74866194   9.9083374e-08               0   7.5625616e-06               0               0               0
  0.00089994316   7.5214206e-05      0.76112837   1.1584958e-07               0   8.3918138e-06               0               0               0
    0.001016732   7.5214559e-05      0.77340546   1.3557871e-07               0   9.2791356e-06               0               0               0
   0.0011486725   7.5214964e-05      0.78550799   1.5883751e-07               0   1.0222277e-05               0               0               0
   0.0012977308   7.5215433e-05      0.79744903   1.8631554e-07               0   1.1216914e-05               0               0               0
   0.0014661282   7.5215973e-05      0.80924026   2.1885696e-07               0   1.2256095e-05               0               0               0
   0.0016563743   7.5216599e-05      0.82089209   2.5750271e-07               0   1.3329569e-05               0               0               0
   0.0018713042   7.5217324e-05      0.83241385   3.0354685e-07               0   1.4423081e-05               0               0               0
   0.0021141207   7.5218168e-05      0.84381359   3.5861244e-07               0   1.5517594e-05               0               0               0
   0.0023884425   7.5219154e-05       0.8550976    4.247547e-07               0   1.6588456e-05               0               0               0
   0.0026983575   7.5220309e-05      0.86626962   5.0460351e-07               0   1.7604484e-05               0               0               0
   0.0030484842   7.5221669e-05      0.87733046   6.0156295e-07   1.1714928e-35   1.8526892e-05               0               0               0
   0.0034440402   7.5223275e-05      0.88827816   7.2009146e-07   1.7570502e-35   1.9308693e-05               0               0               0
   0.0038909203   7.5225175e-05      0.89910718   8.6610047e-07   -5.054411e-36   1.9894777e-05               0               0               0
    0.004395784   7.5227417e-05      0.90980694   1.0475441e-06  -1.6363225e-35   2.0222495e-05               0               0               0
   0.0049661549   7.5230048e-05      0.92036014   1.2753482e-06    1.066609e-35   2.0223425e-05               0               0               0
   0.0056105328   7.5233119e-05      0.93074055   1.5650309e-06   2.6414718e-35   1.9826707e-05               0               0               0
   0.0063385204   7.5236659e-05        0.940909   1.9390246e-06  -9.0402274e-36   1.8973228e-05               0               0               0
   0.0071609664   7.5240575e-05      0.95080582   2.4294424e-06  -2.3741743e-35    1.763972e-05               0               0               0
   0.0080901272   7.5244567e-05      0.96034127   3.0806746e-06  -4.4061271e-36   1.5847704e-05               0               0               0
   0.0091398493   7.5248095e-05      0.96938619    3.949643e-06               0    1.366154e-05               0               0               0
    0.010325776   7.5250348e-05      0.97776174   5.0992057e-06               0   1.1195119e-05               0               0               0
     0.01166558   7.5250278e-05       0.9852296   6.5766512e-06               0   8.6095877e-06               0               0               0
    0.013179228   7.5246766e-05      0.99149629   8.3737388e-06               0    6.079879e-06               0               0               0
    0.014889277   7.5239341e-05      0.99625653   1.0386474e-05               0   3.7594414e-06               0               0               0
    0.016821209     7.52275e-05      0.99928393   1.2319416e-05               0   1.8932509e-06               0               0               0
    0.019003816   7.5212666e-05       1.0006828   1.3794509e-05               0    7.496764e-07               0               0               0
    0.021469624   7.5199751e-05       1.0010608   1.4816391e-05               0   2.8322821e-07               0               0               0
    0.024255377   7.5191114e-05       1.0011013   1.5749534e-05               0   1.8082441e-07               0               0               0
    0.027402591   7.5186075e-05       1.0011019   1.6795406e-05               0   1.7678302e-07               0               0               0
    0.030958166   7.5184351e-05       1.0011014   1.7968817e-05   5.6784206e-35   1.7675141e-07               0               0               0
    0.034975088   7.5186007e-05       1.0011008   1.9288126e-05    6.330342e-35   1.7675093e-07               0               0               0
    0.039513219   7.5191123e-05       1.0011001   2.0766816e-05  -4.3746051e-35   1.7675062e-07               0               0               0
    0.044640187   7.5199803e-05       1.0010994   2.2424506e-05  -5.0265264e-35   1.7675043e-07               0               0               0
    0.050432395   7.5212642e-05       1.0010985   2.4280367e-05   2.1768533e-35   1.7675034e-07               0               0               0
    0.056976161   7.5230321e-05       1.0010976     2.63548e-05   1.3380662e-35   1.7675033e-07               0               0               0
    0.064369002   7.5253622e-05       1.0010965   2.8671589e-05   9.4046542e-36   1.7675042e-07               0               0               0
    0.072721087   7.5283205e-05       1.0010953   3.1251336e-05   2.0942322e-35   1.7675058e-07               0               0               0
    0.082156882   7.5319954e-05       1.0010939   3.4119574e-05  -2.1125277e-35   1.7675084e-07               0               0               0
    0.092817002   7.5364415e-05       1.0010922   3.7294031e-05  -2.4274936e-35   1.7675118e-07               0               0               0
