#      distance             U_x             U_y             U_z wallShearStr... wallShearStr... wallShearStr...               p           omega               k             nut
  3.0219182e-06     0.018661453   2.1289338e-09  -3.0093043e-23               0               0               0   0.00019536261       5570603.4   4.0613848e-07   3.7995573e-13
  5.0865428e-06     0.031412031   5.4048572e-09  -1.2703195e-23               0               0               0   0.00019536278       1240854.7   1.8543771e-06   3.5110562e-12
  7.2269684e-06     0.044627565   1.0651154e-08  -3.2726623e-23               0               0               0   0.00019536296       495691.04   5.8475124e-06     1.96292e-11
  9.4750924e-06     0.058501794   1.8164122e-08  -4.9084684e-23               0               0               0   0.00019536314       256779.42   1.4641206e-05    8.003237e-11
  1.1864417e-05     0.073233649   2.8368136e-08  -2.0671567e-23               0               0               0   0.00019536333        152824.5   3.1558931e-05   2.6378972e-10
  1.4430548e-05     0.089023122   4.1870366e-08   6.7916104e-23               0               0               0   0.00019536354       99088.523   6.1416187e-05   7.4715815e-10
  1.7211727e-05       0.1060589   5.9464453e-08   1.1048889e-22               0               0               0   0.00019536376       68178.839   0.00011097271   1.8862696e-09
  2.0249401e-05      0.12449159   8.2142409e-08   2.3942187e-23               0               0               0   0.00019536403       49099.847   0.00018911497   4.3344643e-09
  2.3588836e-05      0.14438765   1.1108744e-07  -2.8634182e-23               0               0               0   0.00019536434       36725.161   0.00030615686    9.164793e-09
  2.7279799e-05      0.16567015    1.476193e-07  -1.4317091e-23               0               0               0   0.00019536474       28380.274   0.00047147266   1.7918467e-08
  3.1377293e-05       0.1880749   1.9309058e-07               0               0               0               0   0.00019536524        22544.67   0.00068938343   3.2481103e-08
  3.5942381e-05        0.211165   2.4878717e-07   6.2480059e-23               0               0               0   0.00019536591       18303.999   0.00095515797    5.477837e-08
  4.1043091e-05      0.23442102   3.1591111e-07   9.3710065e-23               0               0               0   0.00019536678       15097.481    0.0012543819   8.6451412e-08
  4.6755437e-05      0.25736515   3.9562911e-07   1.0561009e-22               0               0               0   0.00019536791       12584.884    0.0015670751   1.2872336e-07
  5.3164546e-05      0.27966691   4.8929067e-07    1.115582e-22               0               0               0   0.00019536933       10561.882    0.0018740185   1.8185379e-07
  6.0365928e-05      0.30117407   5.9870241e-07  -1.7130192e-22               0               0               0   0.00019537109       8901.6909    0.0021615241   2.4599575e-07
    6.84669e-05       0.3218335   7.2605839e-07  -3.6717513e-22               0               0               0   0.00019537328       7521.2324    0.0024221181   3.2323883e-07
  7.7588184e-05      0.34160602   8.7377207e-07  -1.9589914e-22               0               0               0   0.00019537598       6364.7436    0.0026523358   4.1673991e-07
   8.786571e-05      0.36046552   1.0445587e-06   4.9388676e-23               0               0               0    0.0001953793       5393.4167     0.002851375   5.2927046e-07
  9.9452634e-05      0.37842052   1.2415796e-06   2.3541792e-22               0               0               0   0.00019538336       4578.0151    0.0030207155   6.6334975e-07
  0.00011252163      0.39551704   1.4685191e-06   5.5408039e-23               0               0               0   0.00019538825       3894.6373    0.0031633703   8.2085385e-07
  0.00012726745      0.41184094   1.7298014e-06  -1.1919889e-22               0               0               0   0.00019539403       3322.3175    0.0032830528   1.0018634e-06
  0.00014390985      0.42750497   2.0308353e-06  -2.5781722e-23               0               0               0    0.0001954008       2842.1638    0.0033835111   1.2072333e-06
  0.00016269684      0.44261029    2.377792e-06   6.5023561e-23               0               0               0   0.00019540871       2437.9521     0.003467975   1.4413802e-06
  0.00018390838      0.45722781   2.7774844e-06   4.8977987e-22               0               0               0   0.00019541797       2096.5274    0.0035389001   1.7092106e-06
  0.00020786057      0.47141249    3.237781e-06   6.0456498e-22               0               0               0   0.00019542879       1807.2582    0.0035982271   2.0148105e-06
  0.00023491035      0.48521351   3.7678396e-06   1.7980867e-22               0               0               0    0.0001954414       1561.4373    0.0036476194   2.3627673e-06
  0.00026546084      0.49867465   4.3781809e-06               0               0               0               0   0.00019545606       1351.9228    0.0036884864   2.7582257e-06
   0.0002999673      0.51183477   5.0809045e-06               0               0               0               0   0.00019547307        1172.845    0.0037220137   3.2069473e-06
  0.00033894396       0.5247284   5.8899417e-06  -1.7822606e-22               0               0               0   0.00019549276       1019.3668    0.0037491936   3.7153764e-06
  0.00038297165      0.53738623   6.8213396e-06  -3.5645213e-22               0               0               0   0.00019551554       887.49135    0.0037708535   4.2907092e-06
  0.00043270649      0.54983559   7.8935894e-06   7.1342956e-22               0               0               0   0.00019554183       773.90515    0.0037876807   4.9409668e-06
  0.00048888965      0.56210093   9.1280086e-06   1.4112128e-21               0               0               0   0.00019557214       675.85224    0.0038002432     5.67507e-06
  0.00055235838      0.57420417   1.0549187e-05   5.1955718e-22               0               0               0   0.00019560707       591.03244     0.003809008    6.502914e-06
   0.0006240585       0.5861651   1.2185512e-05               0               0               0               0   0.00019564725       517.51934    0.0038143542   7.4354391e-06
  0.00070505852      0.59800171    1.406978e-05   2.3245067e-22               0               0               0   0.00019569344       453.69402    0.0038165855    8.484694e-06
  0.00079656552      0.60973049   1.6239924e-05   4.6490135e-22               0               0               0   0.00019574649       398.19139    0.0038159384   9.6638828e-06
  0.00089994316      0.62136672   1.8739874e-05   2.3245068e-22               0               0               0   0.00019580737       349.85663     0.003812589   1.0987388e-05
    0.001016732      0.63292473   2.1620581e-05               0               0               0               0   0.00019587714       307.70974    0.0038066578   1.2470754e-05
   0.0011486725      0.64441817   2.4941247e-05   9.4164574e-22               0               0               0   0.00019595706       270.91663    0.0037982131   1.4130618e-05
   0.0012977308      0.65586031   2.8770809e-05  -7.1469945e-22               0               0               0    0.0001960485       238.76534    0.0037872718    1.598455e-05
   0.0014661282      0.66726427   3.3189747e-05  -3.1959525e-21               0               0               0   0.00019615303       210.64664    0.0037737996   1.8050791e-05
   0.0016563743      0.67864336   3.8292291e-05   -2.555272e-21               0               0               0   0.00019627238       186.03786     0.003757709   2.0347818e-05
   0.0018713042      0.69001138   4.4189163e-05  -1.5548892e-21               0               0               0   0.00019640849       164.48966    0.0037388558   2.2893695e-05
   0.0021141207      0.70138302   5.1010992e-05  -5.3922459e-22               0               0               0    0.0001965635       145.61495    0.0037170332   2.5705127e-05
   0.0023884425      0.71277427   5.8912603e-05  -3.9416964e-22               0               0               0   0.00019673975       129.07972    0.0036919648   2.8796118e-05
   0.0026983575      0.72420296   6.8078482e-05   1.0374409e-21               0               0               0   0.00019693974       114.59535    0.0036632931   3.2176099e-05
   0.0030484842      0.73568936   7.8729762e-05  -2.0538314e-21               0               0               0   0.00019716614       101.91225     0.003630566   3.5847386e-05
   0.0034440402      0.74725696   9.1133287e-05  -5.0592579e-21               0               0               0   0.00019742164       90.814465    0.0035932186   3.9801766e-05
   0.0038909203      0.75893341   0.00010561352  -1.5738158e-21               0               0               0   0.00019770887         81.1153     0.003550549   4.4016007e-05
    0.004395784      0.77075174   0.00012256837   3.0887971e-21               0               0               0   0.00019803021       72.653613    0.0035016869   4.8446061e-05
   0.0049661549      0.78275193   0.00014249039  -3.8526919e-21               0               0               0   0.00019838739       65.290882    0.0034455529   5.3019742e-05
   0.0056105328      0.79498288   0.00016599446  -1.2400706e-20               0               0               0   0.00019878072       58.908904    0.0033808044    5.762776e-05
   0.0063385204      0.80750516   0.00019385415   4.5943139e-21               0               0               0   0.00019920811       53.408194    0.0033057654   6.2113161e-05
   0.0071609664      0.82039654   0.00022708096   1.6695202e-20               0               0               0   0.00019966628       48.706142    0.0032182914   6.6240219e-05
   0.0080901272      0.83377298   0.00026706909    2.684656e-20               0               0               0   0.00020014858       44.729494    0.0031152647    6.954237e-05
   0.0091398493      0.84781492   0.00031574415   3.1221806e-20               0               0               0   0.00020063484       41.401931    0.0029917752   7.1430694e-05
    0.010325776       0.8627627    0.0003759254   1.5013425e-20               0               0               0   0.00020108538       38.635122    0.0028401958   7.1479286e-05
     0.01166558      0.87890105   0.00045141621   3.9965099e-21               0               0               0   0.00020144503       36.316039    0.0026488745   6.9326648e-05
    0.013179228      0.89655559   0.00054728674   1.5922509e-20               0               0               0   0.00020164303       34.282287    0.0024008858   6.4655256e-05
    0.014889277      0.91601683   0.00067021631    1.385494e-20               0               0               0   0.00020154652       32.312042    0.0020755229   5.7517142e-05
    0.016821209      0.93724095    0.0008242669   4.3681962e-20               0               0               0   0.00020083566        30.18541    0.0016586286   4.8491315e-05
    0.019003816      0.95954057    0.0010134529   6.7745144e-20               0               0               0   0.00019931984       27.594283     0.001152058   3.7502155e-05
    0.021469624      0.98088443    0.0012233895  -1.4956932e-19               0               0               0   0.00019676101       22.199871   0.00060976881   2.3959298e-05
    0.024255377      0.99630996    0.0013835655  -3.5370004e-19               0               0               0   0.00019247491       13.351305   0.00019802018   1.0703534e-05
    0.027402591       1.0026928    0.0014437074  -1.8213515e-19               0               0               0   0.00018697133       6.8894573   2.8148684e-05    2.639073e-06
    0.030958166       1.0037365    0.0014424975               0               0               0               0   0.00018148317       5.3031085   1.3990732e-06   2.5980835e-07
    0.034975088       1.0037643     0.001432515               0               0               0               0    0.0001761361        5.260697   6.5547645e-07   1.2459737e-07
    0.039513219        1.003761    0.0014247438    1.707677e-20               0               0               0   0.00017070329       5.2620935   6.5395361e-07     1.24275e-07
    0.044640187       1.0037611    0.0014169798   2.5612478e-20               0               0               0   0.00016515299       5.2623444   6.5413877e-07   1.2430414e-07
    0.050432395        1.003766    0.0014084003   8.5356767e-21               0               0               0   0.00015953061       5.2623212   6.5414771e-07   1.2430639e-07
    0.056976161       1.0037705    0.0013982248               0               0               0               0   0.00015391543       5.2623117   6.5414457e-07   1.2430602e-07
    0.064369002       1.0037705    0.0013876135               0               0               0               0   0.00014840973       5.2623028   6.5414296e-07   1.2430592e-07
    0.072721087       1.0037666    0.0013756886               0               0               0               0   0.00014311224       5.2622891   6.5414084e-07   1.2430584e-07
    0.082156882         1.00376    0.0013630852               0               0               0               0   0.00013808836       5.2622675   6.5413772e-07   1.2430576e-07
    0.092817002       1.0037509    0.0013493552               0               0               0               0   0.00013339809       5.2622357   6.5413327e-07   1.2430567e-07
