/*--------------------------------*- C++ -*----------------------------------*\
  =========                 |
  \\      /  F ield         | OpenFOAM: The Open Source CFD Toolbox
   \\    /   O peration     | Website:  https://openfoam.org
    \\  /    A nd           | Version:  12
     \\/     M anipulation  |
\*---------------------------------------------------------------------------*/
FoamFile
{
    format      ascii;
    class       volScalarField;
    location    "1200";
    object      yPlus;
}
// * * * * * * * * * * * * * * * * * * * * * * * * * * * * * * * * * * * * * //

dimensions      [];

internalField   uniform 0;

boundaryField
{
    inlet
    {
        type            calculated;
        value           uniform 0;
    }
    top
    {
        type            calculated;
        value           uniform 0;
    }
    outlet
    {
        type            calculated;
        value           uniform 0;
    }
    slipsurface
    {
        type            calculated;
        value           uniform 0;
    }
    bottom
    {
        type            calculated;
        value           nonuniform List<scalar> 
100
(
115.85485
114.57497
113.22127
111.77614
110.34249
108.95749
107.6237
106.34009
105.09728
103.88562
102.6844
101.48448
100.28248
99.078856
97.876033
96.678391
95.493569
94.33735
93.197325
92.091865
91.027941
90.011519
89.048706
88.144801
87.304549
86.532392
85.829811
85.195497
84.626809
84.120068
83.670435
83.272693
82.922744
82.616072
82.34669
82.108
81.8934
81.69682
81.514414
81.343328
81.179798
81.019933
80.860786
80.700277
80.53739
80.371398
80.20121
80.024488
79.839494
79.646146
79.445178
79.236961
79.021803
78.801009
78.576795
78.350821
78.12359
77.895225
77.666457
77.438135
77.210328
76.983138
76.757427
76.534021
76.312881
76.094057
75.878048
75.664612
75.45302
75.243205
75.035519
74.829715
74.6258
74.424471
74.225526
74.028456
73.833496
73.640384
73.448757
73.259092
73.071446
72.885603
72.701816
72.519776
72.339143
72.160162
71.982866
71.80729
71.633333
71.4608
71.289755
71.120051
70.951767
70.784694
70.619101
70.452716
70.292924
70.118854
69.966937
69.737097
)
;
    }
    frontandback
    {
        type            empty;
    }
}


// ************************************************************************* //
