/*--------------------------------*- C++ -*----------------------------------*\
  =========                 |
  \\      /  F ield         | OpenFOAM: The Open Source CFD Toolbox
   \\    /   O peration     | Website:  https://openfoam.org
    \\  /    A nd           | Version:  12
     \\/     M anipulation  |
\*---------------------------------------------------------------------------*/
FoamFile
{
    format      ascii;
    class       volScalarField;
    location    "300";
    object      k;
}
// * * * * * * * * * * * * * * * * * * * * * * * * * * * * * * * * * * * * * //

dimensions      [0 2 -2 0 0 0 0];

internalField   nonuniform List<scalar> 
7480
(
1.5349115e-06
1.4978573e-06
1.4618914e-06
1.4312964e-06
1.4097189e-06
1.3999954e-06
1.4057188e-06
1.4213795e-06
1.4515439e-06
1.4827612e-06
1.5817546e-06
1.5621329e-06
5.4777115e-05
0.0014647558
0.0037602311
0.0058287154
0.0072551698
0.0080454002
0.0084673424
0.0084522186
0.008361894
0.0081944778
0.0079887485
0.0077715858
0.0075519872
0.0073343951
0.0071228671
0.0069229027
0.0067399135
0.0065712754
0.0064167371
0.0062768244
0.0061517394
0.0060410579
0.0059437763
0.0058585612
0.005783826
0.0057180887
0.0056603468
0.0056098461
0.0055655929
0.0055264184
0.0054912963
0.0054592094
0.0054297201
0.0054015297
0.0053743764
0.0053478197
0.0053214282
0.0052949192
0.0052679861
0.0052402642
0.0052115179
0.0051817403
0.0051511027
0.0051198384
0.0050881715
0.0050563302
0.0050245174
0.0049928651
0.0049614369
0.0049302643
0.0048993891
0.0048688833
0.0048388167
0.0048092262
0.0047801474
0.0047516061
0.004723571
0.0046959654
0.0046687325
0.0046418646
0.0046153742
0.0045892678
0.0045635652
0.0045382893
0.0045134147
0.004488886
0.0044646688
0.0044407632
0.0044171787
0.0043939348
0.0043710463
0.004348486
0.0043262098
0.0043042045
0.0042824691
0.0042610175
0.0042398647
0.004218986
0.0041983461
0.004177934
0.004157756
0.0041378006
0.0041180907
0.0040984362
0.0040792241
0.0040589192
0.0040417395
0.0040103505
1.5265614e-06
1.5173862e-06
1.5078846e-06
1.4980192e-06
1.4877736e-06
1.4771579e-06
1.4662186e-06
1.455124e-06
1.4433821e-06
1.433389e-06
1.4148344e-06
1.4610146e-06
1.1744486e-06
1.4907847e-05
8.6296694e-05
0.00028486014
0.00060256012
0.00096981271
0.0013235355
0.0016049438
0.0018127354
0.0019683527
0.0020996517
0.002225349
0.0023820085
0.0025552966
0.0027523548
0.0030004392
0.0032671065
0.0035414473
0.0038140663
0.0040762784
0.0043203656
0.0045404552
0.0047328932
0.0048967323
0.0050316197
0.0051410518
0.0052318862
0.0053079299
0.0053685747
0.0054143848
0.0054473069
0.0054678598
0.0054800744
0.0054782577
0.0054709331
0.0054572848
0.0054382466
0.0054147551
0.0053874448
0.0053568003
0.0053239647
0.005290338
0.0052570478
0.0052246969
0.0051935729
0.0051638248
0.0051350445
0.0051069527
0.0050794885
0.0050526856
0.0050265522
0.0050010821
0.0049762708
0.0049520863
0.0049285095
0.0049052891
0.0048820627
0.0048586902
0.004835264
0.0048119411
0.0047888421
0.0047660345
0.0047435852
0.0047214299
0.0046993672
0.0046772891
0.0046552502
0.0046333705
0.0046117336
0.004590411
0.0045693465
0.0045483957
0.0045274993
0.0045067115
0.0044861107
0.0044657791
0.0044456794
0.004425707
0.0044058247
0.0043860715
0.0043665198
0.0043471789
0.0043279799
0.0043088641
0.0042898782
0.0042706431
0.0042535389
0.0042233783
1.5207401e-06
1.511741e-06
1.5026161e-06
1.4933039e-06
1.4837896e-06
1.4740691e-06
1.4641397e-06
1.4540059e-06
1.4436163e-06
1.4330998e-06
1.4218834e-06
1.4126164e-06
1.3944938e-06
1.4070948e-06
1.7843448e-06
4.1080435e-06
1.2839401e-05
3.1551284e-05
6.2135836e-05
0.0001037376
0.00015350565
0.00020796244
0.00026440847
0.00032079464
0.00037964312
0.00044286891
0.00051254023
0.00059522563
0.00069448256
0.00081725902
0.00097764011
0.0011601132
0.0013586096
0.0015713637
0.0017970961
0.0020337622
0.0022796775
0.0025336455
0.002786222
0.0030297769
0.0032581757
0.0034643629
0.003644423
0.0038002295
0.0039355351
0.0040541905
0.0041556436
0.0042396623
0.0043076272
0.0043617286
0.0043998532
0.0044266602
0.0044459497
0.004459865
0.00446943
0.0044752749
0.0044783043
0.0044794333
0.0044791879
0.0044776996
0.0044751495
0.0044717302
0.0044675763
0.0044628556
0.0044577007
0.0044521507
0.0044462219
0.0044395797
0.0044319699
0.0044235017
0.0044143871
0.0044047783
0.0043947815
0.00438448
0.0043739777
0.0043631516
0.0043517797
0.0043398639
0.00432756
0.004315021
0.0043023335
0.0042895942
0.0042766981
0.0042634931
0.0042499777
0.0042362647
0.0042224583
0.0042086645
0.0041948082
0.0041807739
0.0041665618
0.0041522514
0.0041379446
0.004123646
0.0041092587
0.0040947852
0.0040801873
0.0040655139
0.0040520853
0.004028523
1.5712153e-06
1.5617728e-06
1.5521753e-06
1.5423782e-06
1.5323721e-06
1.5221549e-06
1.5117265e-06
1.5010877e-06
1.4902382e-06
1.4791775e-06
1.4679152e-06
1.4563541e-06
1.4448109e-06
1.4325798e-06
1.421358e-06
1.4086645e-06
1.420525e-06
1.4993661e-06
1.8265353e-06
2.6834334e-06
4.3036402e-06
6.8345352e-06
1.0364922e-05
1.4959653e-05
2.072457e-05
2.7921352e-05
3.6878999e-05
4.8140191e-05
6.2441611e-05
8.0743399e-05
0.00010476361
0.00013646545
0.00017891692
0.00023448951
0.00030590733
0.0003966872
0.00051238994
0.00065950009
0.00082730645
0.0010128751
0.0012190766
0.0014469794
0.0016923922
0.0019411599
0.0021850424
0.0024183038
0.0026352597
0.0028302544
0.0030040017
0.0031570979
0.0032907787
0.0034087228
0.0035089079
0.0035931834
0.0036638307
0.0037231507
0.0037739098
0.0038177257
0.0038540455
0.0038846712
0.003910924
0.0039337993
0.0039540378
0.0039721183
0.0039882124
0.0040024203
0.0040148623
0.0040256073
0.0040346491
0.0040421151
0.0040481637
0.0040529285
0.0040565511
0.0040591593
0.004060878
0.004061567
0.0040610965
0.004059606
0.0040572917
0.004054293
0.004050693
0.0040466105
0.004041899
0.0040364489
0.0040303445
0.0040237385
0.0040167375
0.0040094571
0.0040017804
0.0039936137
0.0039850119
0.0039760856
0.0039669504
0.003957592
0.003947904
0.0039379394
0.00392764
0.003917277
0.0039074614
0.0038900472
1.5950417e-06
1.5855237e-06
1.5758631e-06
1.5660064e-06
1.5559415e-06
1.5456653e-06
1.5351776e-06
1.5244788e-06
1.5135695e-06
1.5024503e-06
1.4911225e-06
1.479584e-06
1.4678402e-06
1.4558959e-06
1.4434793e-06
1.4308293e-06
1.4181493e-06
1.4057014e-06
1.3935053e-06
1.3822865e-06
1.3737616e-06
1.3713871e-06
1.3809724e-06
1.4119638e-06
1.4782957e-06
1.5989837e-06
1.7986474e-06
2.1100579e-06
2.5790813e-06
3.2699805e-06
4.2826038e-06
5.7695283e-06
7.9717215e-06
1.1284152e-05
1.631757e-05
2.396128e-05
3.5619067e-05
5.3094498e-05
8.0052327e-05
0.0001199488
0.00017632341
0.00025408819
0.00036019829
0.00050261865
0.00067043001
0.0008572993
0.0010638287
0.001290578
0.0015233784
0.001754449
0.0019767927
0.0021850145
0.0023734026
0.0025427494
0.0026938795
0.0028284922
0.002950293
0.0030570737
0.0031492797
0.0032289387
0.003298565
0.0033604175
0.0034158369
0.0034654039
0.0035096088
0.0035492045
0.003585002
0.0036168209
0.0036449856
0.0036701691
0.0036927473
0.0037130265
0.0037312543
0.0037475963
0.0037621742
0.0037750471
0.0037862559
0.0037959369
0.0038042475
0.0038113134
0.0038172414
0.003822171
0.0038259625
0.003828604
0.0038302496
0.0038310557
0.003831119
0.0038305597
0.0038292308
0.0038270992
0.003824277
0.0038208898
0.0038170546
0.0038127312
0.0038078254
0.0038024424
0.0037965247
0.0037904846
0.0037843295
0.003773008
1.5916926e-06
1.582244e-06
1.5726591e-06
1.562883e-06
1.5529022e-06
1.5427139e-06
1.5323177e-06
1.5217143e-06
1.5109045e-06
1.49989e-06
1.4886729e-06
1.4772571e-06
1.4656487e-06
1.4538624e-06
1.4418977e-06
1.429766e-06
1.4174151e-06
1.40471e-06
1.3917924e-06
1.3787469e-06
1.3656429e-06
1.3524389e-06
1.3392147e-06
1.3259615e-06
1.3126941e-06
1.2995017e-06
1.2865384e-06
1.2740573e-06
1.2624381e-06
1.2524419e-06
1.245272e-06
1.2430295e-06
1.2496151e-06
1.272431e-06
1.325869e-06
1.4365947e-06
1.6574072e-06
2.0768938e-06
2.8750027e-06
4.362285e-06
7.0552209e-06
1.1833356e-05
2.0335992e-05
3.4896902e-05
6.0637988e-05
0.00010226606
0.00016428202
0.00025312994
0.00037671728
0.00052992848
0.00070605749
0.00089948716
0.0011118961
0.0013306851
0.0015455697
0.0017501911
0.0019409524
0.0021144937
0.0022732944
0.0024179965
0.002549746
0.002669171
0.0027751493
0.0028692506
0.0029533508
0.0030293896
0.0030984864
0.0031606245
0.0032160378
0.0032657035
0.0033106133
0.003351414
0.0033884554
0.0034220404
0.0034525463
0.0034799435
0.003504492
0.0035266642
0.003546702
0.0035647923
0.0035811027
0.0035957822
0.0036088691
0.0036204159
0.0036305623
0.0036394409
0.00364715
0.0036538177
0.0036593229
0.0036637158
0.0036671398
0.0036697159
0.0036715547
0.0036726021
0.0036728034
0.0036723128
0.0036710742
0.0036695975
0.0036673274
0.003662376
1.5884006e-06
1.578965e-06
1.5693915e-06
1.559626e-06
1.5496555e-06
1.5394774e-06
1.5290912e-06
1.5184977e-06
1.5076976e-06
1.4966923e-06
1.4854836e-06
1.4740741e-06
1.4624681e-06
1.450672e-06
1.4386916e-06
1.4265305e-06
1.4141908e-06
1.4016708e-06
1.3889699e-06
1.3760877e-06
1.3630193e-06
1.3497546e-06
1.3362299e-06
1.3224945e-06
1.3086029e-06
1.2945788e-06
1.2804439e-06
1.2662203e-06
1.2519641e-06
1.2376281e-06
1.2232235e-06
1.2087756e-06
1.1943793e-06
1.1799806e-06
1.1656214e-06
1.1514135e-06
1.1376042e-06
1.1246555e-06
1.1136772e-06
1.1072748e-06
1.1117508e-06
1.1414787e-06
1.2359433e-06
1.4780755e-06
2.0853537e-06
3.5012033e-06
6.4622263e-06
1.2422929e-05
2.3722566e-05
4.5349482e-05
8.33582e-05
0.00014252461
0.00022994333
0.00035310802
0.00050274185
0.00067444173
0.00086181095
0.0010652857
0.0012708428
0.0014686201
0.0016544182
0.0018263074
0.0019837531
0.002131141
0.0022679413
0.0023948528
0.0025094171
0.0026124837
0.0027053399
0.0027895961
0.0028662103
0.002935613
0.0029983137
0.003055117
0.0031069181
0.0031539508
0.0031964251
0.0032348906
0.003269882
0.0033017882
0.0033308843
0.0033574266
0.0033813034
0.0034028808
0.0034224728
0.0034402427
0.0034563279
0.0034708693
0.0034839119
0.0034955178
0.0035058128
0.0035149084
0.0035229125
0.0035297973
0.0035355689
0.0035404086
0.0035442525
0.0035476905
0.0035496168
0.0035514904
1.5886927e-06
1.5792485e-06
1.5696654e-06
1.5598894e-06
1.5499079e-06
1.539718e-06
1.5293196e-06
1.5187131e-06
1.5078993e-06
1.4968796e-06
1.4856552e-06
1.4742283e-06
1.4626016e-06
1.4507781e-06
1.4387609e-06
1.426553e-06
1.4141577e-06
1.4015796e-06
1.388823e-06
1.3758919e-06
1.3627895e-06
1.3495194e-06
1.3360834e-06
1.3224838e-06
1.3087242e-06
1.2948088e-06
1.2807421e-06
1.2665279e-06
1.2521706e-06
1.2376713e-06
1.2230242e-06
1.2082251e-06
1.1932159e-06
1.1780949e-06
1.1628968e-06
1.1476435e-06
1.1323575e-06
1.1170938e-06
1.1018825e-06
1.0866871e-06
1.0715785e-06
1.0566413e-06
1.0419107e-06
1.0276936e-06
1.0147733e-06
1.0059456e-06
1.0086372e-06
1.0469526e-06
1.1859167e-06
1.6149114e-06
2.8210233e-06
5.6161928e-06
1.1748163e-05
2.3856865e-05
4.8606507e-05
9.2073459e-05
0.00015911709
0.00026055845
0.00039285214
0.00054888286
0.00072314159
0.0009107089
0.0011073782
0.0012971463
0.0014756974
0.0016424219
0.0017967734
0.0019431584
0.0020809635
0.0022098607
0.0023270473
0.0024333644
0.0025302067
0.0026188669
0.0027000926
0.002773931
0.0028407123
0.0029012748
0.0029564078
0.0030066159
0.0030523452
0.0030941233
0.003132066
0.0031665353
0.0031979471
0.0032266366
0.0032528659
0.0032768513
0.0032984907
0.0033181366
0.0033360175
0.003352265
0.0033669981
0.0033803027
0.0033922245
0.0034029231
0.0034123217
0.0034210992
0.0034276036
0.0034368875
1.5896355e-06
1.5801854e-06
1.5705963e-06
1.5608143e-06
1.5508265e-06
1.5406303e-06
1.5302253e-06
1.5196122e-06
1.5087917e-06
1.497765e-06
1.4865337e-06
1.4750996e-06
1.4634654e-06
1.4516342e-06
1.4396091e-06
1.4273929e-06
1.4149889e-06
1.4024006e-06
1.3896319e-06
1.3766866e-06
1.3635686e-06
1.3502822e-06
1.336832e-06
1.3232228e-06
1.3094594e-06
1.2955468e-06
1.2814899e-06
1.2672937e-06
1.2529633e-06
1.2385039e-06
1.2239209e-06
1.2092196e-06
1.1944035e-06
1.1794776e-06
1.1644486e-06
1.1493232e-06
1.134108e-06
1.1188091e-06
1.1034294e-06
1.0879649e-06
1.0723723e-06
1.0566346e-06
1.040868e-06
1.0251151e-06
1.0094975e-06
9.9402281e-07
9.7868319e-07
9.6365255e-07
9.4900508e-07
9.3523738e-07
9.2486078e-07
9.2454176e-07
9.6403734e-07
1.1162921e-06
1.6698079e-06
3.2632237e-06
7.1319011e-06
1.5576074e-05
3.4208507e-05
6.9979678e-05
0.00012882199
0.0002191319
0.00034371709
0.000492376
0.00065939286
0.00083808022
0.0010256019
0.0012071988
0.0013779289
0.0015380462
0.0016875496
0.0018305224
0.0019660815
0.0020930775
0.0022095003
0.0023161718
0.0024141173
0.0025040279
0.0025861735
0.0026609076
0.0027289813
0.0027912459
0.0028479648
0.0028994683
0.0029463316
0.002989116
0.0030282322
0.0030640428
0.0030965803
0.0031262352
0.0031533497
0.0031781651
0.0032008883
0.0032215385
0.0032402944
0.0032574385
0.003272909
0.0032875098
0.0032990476
0.0033164409
1.5904889e-06
1.5810342e-06
1.5714403e-06
1.5616535e-06
1.5516608e-06
1.5414596e-06
1.5310496e-06
1.5204312e-06
1.5096056e-06
1.4985737e-06
1.4873372e-06
1.4758979e-06
1.4642586e-06
1.4524222e-06
1.4403921e-06
1.4281713e-06
1.415763e-06
1.4031707e-06
1.390398e-06
1.3774488e-06
1.364327e-06
1.3510365e-06
1.3375818e-06
1.3239674e-06
1.3101982e-06
1.2962793e-06
1.2822158e-06
1.2680134e-06
1.2536777e-06
1.2392146e-06
1.2246304e-06
1.2099313e-06
1.1951241e-06
1.1802156e-06
1.1652123e-06
1.150121e-06
1.1349483e-06
1.119701e-06
1.1043857e-06
1.089009e-06
1.0735765e-06
1.0580919e-06
1.0425611e-06
1.0269901e-06
1.0113858e-06
9.9574688e-07
9.8004059e-07
9.6417121e-07
9.4830907e-07
9.3255902e-07
9.17081e-07
9.0176623e-07
8.8687659e-07
8.7241264e-07
8.5926808e-07
8.5067283e-07
8.6148794e-07
9.3508362e-07
1.2639771e-06
2.3951384e-06
5.5336173e-06
1.2713754e-05
2.9783963e-05
6.4250476e-05
0.00012256724
0.00021398628
0.00033823911
0.00048641806
0.00065157699
0.0008262366
0.0010063672
0.0011786976
0.0013403801
0.0014926824
0.0016364467
0.0017750551
0.0019069573
0.0020298588
0.0021430321
0.0022472801
0.0023435023
0.0024320903
0.0025130713
0.0025868913
0.0026542967
0.002715816
0.0027719045
0.0028231615
0.0028698692
0.0029124147
0.0029512463
0.0029867804
0.0030193737
0.0030491158
0.003076233
0.0031011066
0.0031237576
0.0031451718
0.0031623325
0.0031886329
1.591434e-06
1.5819735e-06
1.5723738e-06
1.562581e-06
1.5525821e-06
1.5423745e-06
1.531958e-06
1.5213331e-06
1.5105007e-06
1.4994619e-06
1.4882184e-06
1.476772e-06
1.4651252e-06
1.453281e-06
1.4412425e-06
1.4290131e-06
1.4165958e-06
1.4039943e-06
1.3912123e-06
1.3782536e-06
1.3651222e-06
1.3518222e-06
1.3383579e-06
1.3247339e-06
1.3109551e-06
1.2970264e-06
1.2829532e-06
1.2687408e-06
1.2543951e-06
1.2399219e-06
1.2253274e-06
1.2106178e-06
1.1957998e-06
1.18088e-06
1.1658654e-06
1.150763e-06
1.1355801e-06
1.120324e-06
1.1050022e-06
1.0896224e-06
1.0741924e-06
1.0587203e-06
1.0432138e-06
1.0276805e-06
1.0121272e-06
9.9656037e-07
9.809865e-07
9.6540686e-07
9.498255e-07
9.3424895e-07
9.1867668e-07
9.0309579e-07
8.8734135e-07
8.7162273e-07
8.5612252e-07
8.4089508e-07
8.2600136e-07
8.1153282e-07
7.9799592e-07
7.8703926e-07
7.9092186e-07
8.4255692e-07
1.1221245e-06
2.1939695e-06
5.4298211e-06
1.3087796e-05
3.2474865e-05
7.1228164e-05
0.00013720037
0.00023725851
0.00036921453
0.00052251938
0.00068923613
0.00086147191
0.0010335183
0.0011950394
0.0013473716
0.0014917792
0.0016305209
0.0017637284
0.0018898707
0.0020068775
0.0021152563
0.0022157343
0.0023085223
0.0023935568
0.0024713011
0.0025425701
0.0026077267
0.002667089
0.0027212129
0.0027706589
0.0028159119
0.0028572199
0.0028948893
0.0029293903
0.002960858
0.002990531
0.0030146172
0.0030514595
1.592623e-06
1.5831551e-06
1.5735478e-06
1.5637472e-06
1.5537403e-06
1.5435246e-06
1.5330997e-06
1.5224661e-06
1.5116249e-06
1.5005773e-06
1.4893246e-06
1.4778688e-06
1.4662123e-06
1.4543578e-06
1.4423086e-06
1.4300678e-06
1.4176387e-06
1.4050249e-06
1.3922303e-06
1.3792586e-06
1.3661139e-06
1.3528003e-06
1.3393222e-06
1.3256842e-06
1.3118913e-06
1.2979484e-06
1.2838609e-06
1.2696342e-06
1.255274e-06
1.2407864e-06
1.2261774e-06
1.2114533e-06
1.1966207e-06
1.1816862e-06
1.1666568e-06
1.1515395e-06
1.1363415e-06
1.1210701e-06
1.1057329e-06
1.0903375e-06
1.0748915e-06
1.0594029e-06
1.0438795e-06
1.0283294e-06
1.0127605e-06
9.9718078e-07
9.815984e-07
9.6602194e-07
9.5045921e-07
9.3491756e-07
9.1940256e-07
9.0392122e-07
8.8847202e-07
8.7305821e-07
8.5768235e-07
8.4235618e-07
8.2696514e-07
8.1150747e-07
7.9617704e-07
7.8122413e-07
7.6657884e-07
7.5240775e-07
7.3912559e-07
7.2813136e-07
7.3287064e-07
7.9342498e-07
1.1456831e-06
2.5472844e-06
6.7031689e-06
1.74672e-05
4.3880015e-05
9.3828603e-05
0.0001780209
0.00029395216
0.0004383636
0.00059878703
0.00076566748
0.00093282513
0.0010928735
0.001243807
0.0013874724
0.0015247879
0.0016577618
0.001784998
0.0019036805
0.0020140726
0.0021167481
0.002211948
0.0022995213
0.0023797673
0.0024533333
0.0025206246
0.0025821147
0.0026382798
0.0026895234
0.0027363515
0.0027790108
0.0028190387
0.0028518025
0.0029015985
1.5939393e-06
1.5844634e-06
1.5748481e-06
1.5650392e-06
1.5550239e-06
1.5447995e-06
1.5343658e-06
1.5237232e-06
1.5128729e-06
1.5018159e-06
1.4905537e-06
1.4790883e-06
1.4674219e-06
1.4555572e-06
1.4434975e-06
1.4312459e-06
1.4188057e-06
1.4061805e-06
1.3933741e-06
1.3803903e-06
1.3672333e-06
1.3539071e-06
1.3404162e-06
1.3267652e-06
1.3129589e-06
1.2990025e-06
1.2849013e-06
1.2706608e-06
1.2562866e-06
1.2417848e-06
1.2271615e-06
1.212423e-06
1.1975758e-06
1.1826268e-06
1.1675827e-06
1.1524506e-06
1.1372377e-06
1.1219514e-06
1.1065992e-06
1.0911886e-06
1.0757274e-06
1.0602233e-06
1.0446843e-06
1.0291181e-06
1.0135328e-06
9.9793641e-07
9.8233683e-07
9.6674212e-07
9.5116031e-07
9.3559938e-07
9.2006728e-07
9.0457175e-07
8.8912136e-07
8.7372382e-07
8.5838507e-07
8.4311133e-07
8.2790435e-07
8.1276366e-07
7.9768806e-07
7.8269113e-07
7.6771181e-07
7.5262328e-07
7.376609e-07
7.2312028e-07
7.0891634e-07
6.9528506e-07
6.8247973e-07
6.7392606e-07
6.8574052e-07
8.1262383e-07
1.4461344e-06
3.9214153e-06
1.072373e-05
2.9827066e-05
7.0458703e-05
0.0001433775
0.00025041722
0.00038721133
0.00054361072
0.00070719095
0.00086968424
0.001026907
0.0011751568
0.0013167787
0.001451934
0.0015836033
0.0017101537
0.0018289289
0.0019398648
0.0020433769
0.0021395051
0.0022280049
0.0023092995
0.0023839612
0.0024522818
0.0025147421
0.0025716548
0.0026248135
0.0026685583
0.0027346751
1.5952175e-06
1.5857342e-06
1.5761113e-06
1.5662947e-06
1.5562715e-06
1.5460391e-06
1.5355972e-06
1.5249463e-06
1.5140875e-06
1.5030219e-06
1.4917511e-06
1.4802769e-06
1.4686016e-06
1.456728e-06
1.4446591e-06
1.4323982e-06
1.4199485e-06
1.4073137e-06
1.3944975e-06
1.3815037e-06
1.3683365e-06
1.3549999e-06
1.3414984e-06
1.3278367e-06
1.3140195e-06
1.300052e-06
1.2859396e-06
1.2716876e-06
1.2573019e-06
1.2427883e-06
1.2281531e-06
1.2134027e-06
1.1985434e-06
1.1835821e-06
1.1685256e-06
1.1533811e-06
1.1381556e-06
1.1228567e-06
1.1074917e-06
1.0920683e-06
1.0765942e-06
1.0610771e-06
1.045525e-06
1.0299457e-06
1.0143473e-06
9.9873753e-07
9.8312453e-07
9.6751622e-07
9.5192051e-07
9.363453e-07
9.2079842e-07
9.0528765e-07
8.8982073e-07
8.7440533e-07
8.5904907e-07
8.4375922e-07
8.2854344e-07
8.1340945e-07
7.9836364e-07
7.8341065e-07
7.6855399e-07
7.5379025e-07
7.3911504e-07
7.2454574e-07
7.1001071e-07
6.9537388e-07
6.8096306e-07
6.6695566e-07
6.5339248e-07
6.404428e-07
6.2910554e-07
6.2551018e-07
6.8058988e-07
1.0393503e-06
2.6494855e-06
7.7150977e-06
2.3316999e-05
5.9218183e-05
0.00012710965
0.00023050136
0.00036355763
0.00051832862
0.00067932618
0.0008374409
0.00099066289
0.0011353823
0.0012740375
0.0014067999
0.0015363901
0.0016613175
0.0017789291
0.0018890753
0.0019920945
0.002087815
0.0021760627
0.0022573127
0.0023317355
0.0024012005
0.0024586439
0.0025452957
1.596415e-06
1.5869247e-06
1.5772948e-06
1.567471e-06
1.5574406e-06
1.5472007e-06
1.5367511e-06
1.5260926e-06
1.5152259e-06
1.5041524e-06
1.4928735e-06
1.4813912e-06
1.4697078e-06
1.4578258e-06
1.4457485e-06
1.4334789e-06
1.4210205e-06
1.4083768e-06
1.3955516e-06
1.3825486e-06
1.369372e-06
1.3560259e-06
1.3425148e-06
1.3288432e-06
1.3150161e-06
1.3010386e-06
1.2869159e-06
1.2726537e-06
1.2582576e-06
1.2437335e-06
1.2290877e-06
1.2143266e-06
1.1994565e-06
1.1844844e-06
1.169417e-06
1.1542614e-06
1.1390249e-06
1.1237148e-06
1.1083386e-06
1.092904e-06
1.0774186e-06
1.0618902e-06
1.0463267e-06
1.0307361e-06
1.0151262e-06
9.9950499e-07
9.8388055e-07
9.6826078e-07
9.5265361e-07
9.3706694e-07
9.2150858e-07
9.0598628e-07
8.9050772e-07
8.7508042e-07
8.5971184e-07
8.4440928e-07
8.2917995e-07
8.1403095e-07
7.9896931e-07
7.8400178e-07
7.69135e-07
7.5437638e-07
7.3973174e-07
7.2520478e-07
7.1079816e-07
6.9650489e-07
6.8232301e-07
6.6826848e-07
6.5419767e-07
6.401008e-07
6.2645693e-07
6.1312822e-07
6.0034946e-07
5.8891607e-07
5.8055571e-07
6.1019862e-07
8.7011744e-07
2.1287971e-06
6.5084431e-06
2.1211322e-05
5.6332911e-05
0.00012505741
0.00022974205
0.00036330792
0.00051817704
0.0006767726
0.00083038475
0.00097849984
0.0011192077
0.0012544834
0.0013844585
0.0015116512
0.0016342629
0.0017497502
0.0018581861
0.0019597814
0.0020538602
0.0021422363
0.002215932
0.0023275871
1.5975351e-06
1.5880384e-06
1.5784019e-06
1.5685714e-06
1.5585341e-06
1.5482872e-06
1.5378306e-06
1.5271647e-06
1.5162907e-06
1.5052098e-06
1.4939234e-06
1.4824336e-06
1.4707424e-06
1.4588527e-06
1.4467674e-06
1.4344897e-06
1.422023e-06
1.4093709e-06
1.3965371e-06
1.3835253e-06
1.3703398e-06
1.3569846e-06
1.3434643e-06
1.3297833e-06
1.3159468e-06
1.3019596e-06
1.2878273e-06
1.2735552e-06
1.2591492e-06
1.2446151e-06
1.2299592e-06
1.2151879e-06
1.2003076e-06
1.1853252e-06
1.1702474e-06
1.1550814e-06
1.1398344e-06
1.1245138e-06
1.1091271e-06
1.0936819e-06
1.0781859e-06
1.0626469e-06
1.0470728e-06
1.0314715e-06
1.0158509e-06
1.0002191e-06
9.8458405e-07
9.6895366e-07
9.5333588e-07
9.3773862e-07
9.2216971e-07
9.066369e-07
8.9114786e-07
8.7571014e-07
8.6033118e-07
8.4501829e-07
8.297786e-07
8.1461912e-07
7.9954668e-07
7.8456796e-07
7.6968945e-07
7.5491754e-07
7.4025855e-07
7.2571841e-07
7.1130299e-07
6.9701909e-07
6.8287086e-07
6.68862e-07
6.5499027e-07
6.4124781e-07
6.2763477e-07
6.141624e-07
6.0055858e-07
5.8719496e-07
5.7424411e-07
5.6184362e-07
5.5071227e-07
5.4110536e-07
5.6320125e-07
8.0412614e-07
2.0214552e-06
6.5141251e-06
2.2596037e-05
6.0969575e-05
0.0001362077
0.00024646656
0.00038399747
0.00053894715
0.00069423753
0.00084282239
0.00098597933
0.0011225173
0.0012540975
0.0013813722
0.0015058163
0.0016254136
0.0017379387
0.0018456798
0.001936737
0.0020766686
1.5985837e-06
1.5890809e-06
1.5794383e-06
1.5696015e-06
1.5595578e-06
1.5493044e-06
1.5388411e-06
1.5281686e-06
1.5172877e-06
1.5061998e-06
1.4949065e-06
1.4834095e-06
1.4717112e-06
1.4598142e-06
1.4477214e-06
1.4354361e-06
1.4229617e-06
1.4103016e-06
1.3974597e-06
1.3844397e-06
1.3712457e-06
1.3578819e-06
1.3443528e-06
1.330663e-06
1.3168174e-06
1.3028212e-06
1.2886796e-06
1.2743982e-06
1.2599827e-06
1.2454392e-06
1.2307737e-06
1.2159927e-06
1.2011026e-06
1.1861104e-06
1.1710228e-06
1.1558469e-06
1.14059e-06
1.1252594e-06
1.1098626e-06
1.0944074e-06
1.0789013e-06
1.0633522e-06
1.047768e-06
1.0321566e-06
1.0165259e-06
1.000884e-06
9.8523879e-07
9.6959828e-07
9.5397042e-07
9.3836309e-07
9.2278414e-07
9.0724132e-07
8.917423e-07
8.7629465e-07
8.6090581e-07
8.4558309e-07
8.3033365e-07
8.1516448e-07
8.0008243e-07
7.8509416e-07
7.7020614e-07
7.5542465e-07
7.4075576e-07
7.2620537e-07
7.1177914e-07
6.9748264e-07
6.8332133e-07
6.6930018e-07
6.5542451e-07
6.4170025e-07
6.2812852e-07
6.1471309e-07
6.0144638e-07
5.8830759e-07
5.7536267e-07
5.6226244e-07
5.4933272e-07
5.3687251e-07
5.2488731e-07
5.1431436e-07
5.0461618e-07
5.3051493e-07
8.207476e-07
2.2848478e-06
7.8651939e-06
2.7855315e-05
7.4562091e-05
0.00016017184
0.00027966963
0.00042285991
0.00057759702
0.00072817477
0.00087122462
0.0010092025
0.0011416499
0.0012695656
0.0013939664
0.0015175146
0.0016234296
0.0017913524
1.5995655e-06
1.590057e-06
1.5804086e-06
1.570566e-06
1.5605164e-06
1.5502569e-06
1.5397874e-06
1.5291085e-06
1.5182213e-06
1.5071269e-06
1.495827e-06
1.4843235e-06
1.4726185e-06
1.4607146e-06
1.4486149e-06
1.4363225e-06
1.4238408e-06
1.4111733e-06
1.3983237e-06
1.3852959e-06
1.372094e-06
1.3587221e-06
1.3451847e-06
1.3314866e-06
1.3176325e-06
1.3036276e-06
1.2894773e-06
1.2751871e-06
1.2607627e-06
1.2462101e-06
1.2315356e-06
1.2167454e-06
1.2018462e-06
1.1868447e-06
1.1717478e-06
1.1565625e-06
1.1412962e-06
1.1259562e-06
1.11055e-06
1.0950853e-06
1.0795697e-06
1.064011e-06
1.0484173e-06
1.0327963e-06
1.0171561e-06
1.0015046e-06
9.8584985e-07
9.701998e-07
9.545624e-07
9.3894556e-07
9.233571e-07
9.0780481e-07
8.9229635e-07
8.7683929e-07
8.6144108e-07
8.4610903e-07
8.308503e-07
8.1567191e-07
8.0058069e-07
7.8558332e-07
7.7068628e-07
7.5589585e-07
7.4121811e-07
7.2665893e-07
7.1222398e-07
6.9791866e-07
6.8374818e-07
6.6971752e-07
6.5583147e-07
6.4209471e-07
6.2851178e-07
6.1508632e-07
6.0182436e-07
5.887273e-07
5.7579977e-07
5.630328e-07
5.5039972e-07
5.3797346e-07
5.2543254e-07
5.1302583e-07
5.0106479e-07
4.8971753e-07
4.7947788e-07
4.7233187e-07
5.1672819e-07
9.5566418e-07
3.0672661e-06
1.1961247e-05
3.9537898e-05
0.000100374
0.0001998677
0.00032990951
0.00047776949
0.00062980803
0.00077463173
0.00091270728
0.0010454349
0.0011760286
0.0012887347
0.0014779936
1.6004848e-06
1.5909711e-06
1.5813173e-06
1.5714693e-06
1.561414e-06
1.5511488e-06
1.5406736e-06
1.5299888e-06
1.5190956e-06
1.5079952e-06
1.4966892e-06
1.4851795e-06
1.4734682e-06
1.4615581e-06
1.4494519e-06
1.4371528e-06
1.4246643e-06
1.4119898e-06
1.399133e-06
1.3860979e-06
1.3728884e-06
1.3595089e-06
1.3459638e-06
1.3322577e-06
1.3183956e-06
1.3043826e-06
1.290224e-06
1.2759255e-06
1.2614927e-06
1.2469316e-06
1.2322485e-06
1.2174497e-06
1.2025418e-06
1.1875315e-06
1.1724258e-06
1.1572318e-06
1.1419566e-06
1.1266077e-06
1.1111926e-06
1.0957189e-06
1.0801943e-06
1.0646267e-06
1.049024e-06
1.033394e-06
1.0177448e-06
1.0020843e-06
9.8642056e-07
9.7076152e-07
9.5511515e-07
9.3948934e-07
9.2389194e-07
9.0833073e-07
8.9281338e-07
8.7734746e-07
8.6194043e-07
8.4659959e-07
8.3133212e-07
8.1614503e-07
8.0104517e-07
7.8603922e-07
7.7113364e-07
7.5633475e-07
7.4164862e-07
7.2708112e-07
7.1263793e-07
6.9832447e-07
6.8414594e-07
6.7010731e-07
6.5621331e-07
6.4246843e-07
6.2887693e-07
6.1544281e-07
6.0216993e-07
5.8906226e-07
5.7612247e-07
5.6335605e-07
5.5076443e-07
5.3835054e-07
5.2610831e-07
5.1400144e-07
5.0212731e-07
4.9006798e-07
4.7832748e-07
4.6670423e-07
4.5703937e-07
4.4351071e-07
4.457165e-07
5.5523243e-07
1.3748896e-06
4.9702525e-06
2.0233683e-05
6.1226752e-05
0.00014119358
0.00025686709
0.00039687484
0.00054668953
0.0006926643
0.00083347479
0.00095433071
0.001153665
1.6013457e-06
1.591827e-06
1.5821683e-06
1.5723151e-06
1.5622547e-06
1.5519842e-06
1.5415035e-06
1.5308133e-06
1.5199145e-06
1.5088085e-06
1.4974968e-06
1.4859813e-06
1.4742642e-06
1.4623481e-06
1.4502359e-06
1.4379306e-06
1.4254357e-06
1.4127546e-06
1.3998911e-06
1.3868491e-06
1.3736326e-06
1.3602458e-06
1.3466933e-06
1.3329798e-06
1.3191101e-06
1.3050894e-06
1.2909231e-06
1.2766167e-06
1.2621759e-06
1.2476068e-06
1.2329156e-06
1.2181087e-06
1.2031926e-06
1.1881741e-06
1.1730601e-06
1.1578577e-06
1.1425741e-06
1.1272168e-06
1.1117933e-06
1.0963112e-06
1.0807782e-06
1.0652021e-06
1.0495909e-06
1.0339525e-06
1.0182948e-06
1.0026258e-06
9.869536e-07
9.712861e-07
9.5563128e-07
9.3999703e-07
9.2439123e-07
9.0882162e-07
8.9329591e-07
8.7782165e-07
8.6240632e-07
8.4705722e-07
8.3178153e-07
8.1658626e-07
8.0147828e-07
7.8646424e-07
7.7155065e-07
7.5674379e-07
7.4204976e-07
7.2747444e-07
7.1302348e-07
6.9870233e-07
6.8451619e-07
6.7047003e-07
6.565686e-07
6.4281638e-07
6.2921763e-07
6.1577634e-07
6.0249626e-07
5.8938092e-07
5.7643355e-07
5.6365722e-07
5.5105527e-07
5.3862956e-07
5.2638494e-07
5.1432149e-07
5.0244442e-07
4.9073881e-07
4.7918077e-07
4.6785332e-07
4.5624154e-07
4.4511478e-07
4.3427292e-07
4.2471527e-07
4.1486248e-07
4.3392183e-07
7.274386e-07
2.4924151e-06
1.0279009e-05
3.7145517e-05
9.9621163e-05
0.00020064948
0.00033122322
0.00047957874
0.00061356686
0.00082844141
1.6021521e-06
1.5926288e-06
1.5829654e-06
1.5731074e-06
1.5630421e-06
1.5527667e-06
1.542281e-06
1.5315856e-06
1.5206817e-06
1.5095704e-06
1.4982534e-06
1.4867325e-06
1.47501e-06
1.4630883e-06
1.4509704e-06
1.4386593e-06
1.4261584e-06
1.4134712e-06
1.4006014e-06
1.3875528e-06
1.3743297e-06
1.3609361e-06
1.3473767e-06
1.3336562e-06
1.3197793e-06
1.3057514e-06
1.2915777e-06
1.2772638e-06
1.2628155e-06
1.2482389e-06
1.23354e-06
1.2187254e-06
1.2038015e-06
1.1887752e-06
1.1736534e-06
1.1584431e-06
1.1431517e-06
1.1277865e-06
1.112355e-06
1.0968649e-06
1.081324e-06
1.06574e-06
1.0501208e-06
1.0344743e-06
1.0188087e-06
1.0031317e-06
9.8745152e-07
9.7177605e-07
9.5611327e-07
9.4047109e-07
9.2485736e-07
9.0927986e-07
8.9374627e-07
8.7826417e-07
8.6284102e-07
8.4748414e-07
8.3220072e-07
8.1699776e-07
8.0188212e-07
7.8686049e-07
7.7193935e-07
7.5712501e-07
7.4242355e-07
7.2784086e-07
7.1338261e-07
6.9905422e-07
6.8486092e-07
6.7080767e-07
6.5689923e-07
6.4314008e-07
6.2953448e-07
6.1608643e-07
6.027997e-07
5.8967779e-07
5.7672396e-07
5.639412e-07
5.5133231e-07
5.3889979e-07
5.2664594e-07
5.1457347e-07
5.026832e-07
4.9098056e-07
4.7946124e-07
4.6814087e-07
4.5696511e-07
4.4600202e-07
4.3515314e-07
4.2424434e-07
4.1350514e-07
4.0456601e-07
3.9112841e-07
3.9222634e-07
4.8714767e-07
1.3210617e-06
5.3484609e-06
2.2860874e-05
6.9646694e-05
0.00016093332
0.00026786935
0.00049225603
1.6029078e-06
1.5933802e-06
1.5837124e-06
1.57385e-06
1.5637802e-06
1.5535001e-06
1.5430097e-06
1.5323096e-06
1.5214008e-06
1.5102846e-06
1.4989626e-06
1.4874367e-06
1.4757091e-06
1.4637823e-06
1.451659e-06
1.4393425e-06
1.426836e-06
1.414143e-06
1.4012672e-06
1.3882126e-06
1.3749832e-06
1.3615833e-06
1.3480173e-06
1.3342901e-06
1.3204065e-06
1.3063717e-06
1.2921911e-06
1.2778702e-06
1.2634148e-06
1.248831e-06
1.2341249e-06
1.219303e-06
1.2043718e-06
1.1893381e-06
1.1742089e-06
1.1589912e-06
1.1436923e-06
1.1283196e-06
1.1128806e-06
1.0973831e-06
1.0818346e-06
1.066243e-06
1.0506163e-06
1.0349623e-06
1.0192891e-06
1.0036047e-06
9.8791695e-07
9.7223397e-07
9.5656369e-07
9.4091403e-07
9.2529283e-07
9.0970788e-07
8.9416687e-07
8.7867738e-07
8.6324687e-07
8.4788266e-07
8.3259194e-07
8.1738174e-07