/*--------------------------------*- C++ -*----------------------------------*\
  =========                 |
  \\      /  F ield         | OpenFOAM: The Open Source CFD Toolbox
   \\    /   O peration     | Website:  https://openfoam.org
    \\  /    A nd           | Version:  12
     \\/     M anipulation  |
\*---------------------------------------------------------------------------*/
FoamFile
{
    format      ascii;
    class       volScalarField;
    location    "300";
    object      k;
}
// * * * * * * * * * * * * * * * * * * * * * * * * * * * * * * * * * * * * * //

dimensions      [0 2 -2 0 0 0 0];

internalField   nonuniform List<scalar> 
13056
(
8.1496643e-05
4.7965944e-05
4.5850044e-05
4.5257364e-05
4.5081054e-05
4.5006653e-05
4.4962333e-05
4.4934296e-05
4.4917356e-05
4.4908137e-05
4.4904536e-05
4.4905299e-05
4.4909664e-05
4.4917155e-05
4.4927484e-05
4.4940516e-05
4.4956221e-05
4.497489e-05
4.4996066e-05
4.5025445e-05
4.5037125e-05
4.5180967e-05
4.4734232e-05
4.9554236e-05
6.1975575e-09
1.7302376e-08
3.1324824e-08
3.4905745e-08
3.3899518e-08
3.1918715e-08
3.0128149e-08
2.8617364e-08
2.7311206e-08
2.616934e-08
2.5164734e-08
2.4272317e-08
2.3450106e-08
2.2697186e-08
2.2007111e-08
2.1374549e-08
2.0793322e-08
2.0255732e-08
1.975639e-08
1.929131e-08
1.8855521e-08
1.84464e-08
1.8061159e-08
1.7697562e-08
1.7353754e-08
1.7027496e-08
1.6717789e-08
1.6422785e-08
1.6140878e-08
1.5871517e-08
1.5613503e-08
1.5365683e-08
1.5127648e-08
1.4898553e-08
1.4677416e-08
1.4463947e-08
1.4257673e-08
1.4057841e-08
1.3864012e-08
1.3676014e-08
1.3491926e-08
1.3312289e-08
1.313738e-08
1.2967015e-08
1.2800825e-08
1.2638469e-08
1.2479825e-08
1.2324714e-08
1.2172804e-08
1.2023842e-08
1.1877775e-08
1.1734487e-08
1.1593686e-08
1.1455181e-08
1.1318933e-08
1.1184898e-08
1.1052863e-08
1.0922612e-08
1.0794077e-08
1.0667325e-08
1.0542204e-08
1.0418441e-08
1.0295958e-08
1.0174839e-08
1.0055025e-08
9.9363016e-09
9.8185278e-09
9.701741e-09
9.5859695e-09
9.4710282e-09
9.3567214e-09
9.243055e-09
9.1301142e-09
9.0177406e-09
8.9057148e-09
8.7939978e-09
8.6826397e-09
8.5715928e-09
8.4606319e-09
8.3497605e-09
8.2390486e-09
8.1283083e-09
8.0173335e-09
7.9061957e-09
7.7948573e-09
7.6830665e-09
7.5707464e-09
7.4579387e-09
7.3444634e-09
7.2325735e-09
7.1259401e-09
7.0252422e-09
6.9293057e-09
6.8384219e-09
6.752274e-09
6.6703906e-09
6.5923576e-09
6.5179427e-09
6.4469401e-09
6.37905e-09
6.3139755e-09
6.2515161e-09
6.1915599e-09
6.1339563e-09
6.0785022e-09
6.0249531e-09
5.9732301e-09
5.9228984e-09
5.8745627e-09
5.8254113e-09
5.7818967e-09
5.7114271e-09
8.1493705e-05
4.7945456e-05
4.5827464e-05
4.5233939e-05
4.5057294e-05
4.4982753e-05
4.4938357e-05
4.4910271e-05
4.4893294e-05
4.4884046e-05
4.4880422e-05
4.4881167e-05
4.4885516e-05
4.4892993e-05
4.4903311e-05
4.4916332e-05
4.4932026e-05
4.4950687e-05
4.4971854e-05
4.5001226e-05
4.5012862e-05
4.5156964e-05
4.4708628e-05
4.9515305e-05
5.806131e-08
5.1929987e-07
9.4018539e-07
1.0476701e-06
1.0174708e-06
9.5801922e-07
9.0427713e-07
8.5893233e-07
8.197292e-07
7.8545709e-07
7.5530471e-07
7.2851955e-07
7.0384151e-07
6.8124314e-07
6.6053095e-07
6.4154494e-07
6.2409968e-07
6.0796413e-07
5.9297656e-07
5.7901731e-07
5.6593727e-07
5.5365763e-07
5.4209474e-07
5.3118147e-07
5.2086217e-07
5.1106965e-07
5.0177388e-07
4.9291944e-07
4.8445809e-07
4.7637332e-07
4.6862915e-07
4.6119095e-07
4.5404642e-07
4.4717027e-07
4.4053299e-07
4.3412585e-07
4.2793468e-07
4.219369e-07
4.1611928e-07
4.1047668e-07
4.0495156e-07
3.9955998e-07
3.9431025e-07
3.8919694e-07
3.8420895e-07
3.7933604e-07
3.7457455e-07
3.699191e-07
3.6535975e-07
3.608889e-07
3.5650492e-07
3.5220436e-07
3.4797845e-07
3.4382148e-07
3.3973221e-07
3.357094e-07
3.3174662e-07
3.2783739e-07
3.2397964e-07
3.2017541e-07
3.1642016e-07
3.1270565e-07
3.0902956e-07
3.0539439e-07
3.0179842e-07
2.9823515e-07
2.947004e-07
2.9119527e-07
2.8772059e-07
2.8427085e-07
2.8084014e-07
2.7742863e-07
2.740389e-07
2.7066619e-07
2.6730392e-07
2.6395091e-07
2.6060864e-07
2.572757e-07
2.5394534e-07
2.5061765e-07
2.4729473e-07
2.4397095e-07
2.4064011e-07
2.3730436e-07
2.3396258e-07
2.306072e-07
2.2723591e-07
2.2384998e-07
2.2044398e-07
2.1708554e-07
2.1388486e-07
2.1086229e-07
2.0798263e-07
2.0525463e-07
2.0266878e-07
2.0021091e-07
1.9786861e-07
1.956349e-07
1.9350361e-07
1.9146574e-07
1.8951238e-07
1.8763751e-07
1.8583778e-07
1.8410866e-07
1.8244406e-07
1.8083664e-07
1.7928402e-07
1.7777317e-07
1.7632224e-07
1.7484681e-07
1.7354058e-07
1.714252e-07
8.147973e-05
4.7870696e-05
4.5746484e-05
4.5150325e-05
4.4972598e-05
4.4897609e-05
4.485298e-05
4.4824738e-05
4.4807644e-05
4.4798306e-05
4.4794608e-05
4.4795291e-05
4.4799588e-05
4.4807018e-05
4.4817292e-05
4.4830272e-05
4.4845927e-05
4.4864547e-05
4.4885671e-05
4.4915002e-05
4.4926542e-05
4.5070963e-05
4.4619792e-05
4.9398698e-05
2.7147247e-07
3.7055491e-06
6.7084446e-06
7.4753412e-06
7.2599046e-06
6.83575e-06
6.4523231e-06
6.1288025e-06
5.8490978e-06
5.6045727e-06
5.3894396e-06
5.1983299e-06
5.022253e-06
4.8610135e-06
4.7132308e-06
4.5777638e-06
4.4532894e-06
4.3381595e-06
4.23122e-06
4.1316175e-06
4.0382883e-06
3.9506698e-06
3.8681653e-06
3.7902957e-06
3.7166642e-06
3.6467914e-06
3.5804629e-06
3.5172834e-06
3.4569087e-06
3.399221e-06
3.3439636e-06
3.2908894e-06
3.2399108e-06
3.190847e-06
3.1434878e-06
3.0977706e-06
3.0535945e-06
3.0107984e-06
2.9692877e-06
2.9290262e-06
2.8896035e-06
2.851133e-06
2.8136746e-06
2.7771897e-06
2.741599e-06
2.7068295e-06
2.672855e-06
2.6396371e-06
2.6071051e-06
2.5752045e-06
2.5439239e-06
2.5132383e-06
2.4830856e-06
2.4534248e-06
2.424247e-06
2.3955434e-06
2.3672682e-06
2.3393751e-06
2.3118494e-06
2.2847054e-06
2.2579109e-06
2.2314072e-06
2.2051776e-06
2.1792398e-06
2.1535818e-06
2.1281571e-06
2.1029358e-06
2.0779258e-06
2.0531332e-06
2.0285183e-06
2.0040393e-06
1.9796972e-06
1.9555104e-06
1.931445e-06
1.9074541e-06
1.8835291e-06
1.8596806e-06
1.8358987e-06
1.812135e-06
1.7883902e-06
1.7646794e-06
1.7409623e-06
1.7171948e-06
1.6933921e-06
1.6695462e-06
1.6456031e-06
1.6215464e-06
1.5973849e-06
1.5730802e-06
1.5491146e-06
1.5262747e-06
1.5047053e-06
1.4841558e-06
1.4646884e-06
1.4462353e-06
1.4286954e-06
1.4119801e-06
1.3960397e-06
1.3808302e-06
1.3662872e-06
1.3523473e-06
1.3389674e-06
1.3261238e-06
1.313784e-06
1.3019046e-06
1.2904333e-06
1.279353e-06
1.2685707e-06
1.2582161e-06
1.2476866e-06
1.2383645e-06
1.2232678e-06
8.1454584e-05
4.773994e-05
4.5605138e-05
4.5004464e-05
4.4824872e-05
4.4749114e-05
4.4704084e-05
4.4675574e-05
4.465828e-05
4.4648785e-05
4.464496e-05
4.4645538e-05
4.4649742e-05
4.4657089e-05
4.4667287e-05
4.4680195e-05
4.4695777e-05
4.4714325e-05
4.4735368e-05
4.476462e-05
4.4776011e-05
4.4920663e-05
4.4465774e-05
4.9203362e-05
8.3640075e-07
1.3802971e-05
2.4981591e-05
2.783637e-05
2.7034913e-05
2.5456441e-05
2.4029416e-05
2.2825254e-05
2.1784109e-05
2.0873866e-05
2.0073002e-05
1.9361541e-05
1.8706019e-05
1.8105718e-05
1.75555e-05
1.7051123e-05
1.6587663e-05
1.6158986e-05
1.5760797e-05
1.538992e-05
1.5042398e-05
1.4716135e-05
1.440891e-05
1.411894e-05
1.3844748e-05
1.358455e-05
1.3337548e-05
1.310227e-05
1.2877435e-05
1.2662605e-05
1.2456824e-05
1.2259171e-05
1.2069321e-05
1.1886601e-05
1.1710228e-05
1.1539969e-05
1.1375448e-05
1.1216066e-05
1.1061471e-05
1.0911527e-05
1.0764709e-05
1.0621434e-05
1.0481927e-05
1.0346045e-05
1.0213494e-05
1.0084e-05
9.9574662e-06
9.8337502e-06
9.7125882e-06
9.5937777e-06
9.4772753e-06
9.3629891e-06
9.2506869e-06
9.1402166e-06
9.0315447e-06
8.9246386e-06
8.8193279e-06
8.7154399e-06
8.6129195e-06
8.5118204e-06
8.4120231e-06
8.313308e-06
8.2156135e-06
8.1190055e-06
8.0234386e-06
7.9287408e-06
7.8348003e-06
7.741646e-06
7.6493007e-06
7.5576173e-06
7.4664393e-06
7.3757707e-06
7.2856799e-06
7.1960409e-06
7.1066786e-06
7.0175618e-06
6.9287283e-06
6.8401422e-06
6.7516236e-06
6.6631745e-06
6.5748512e-06
6.4865039e-06
6.3979678e-06
6.3092996e-06
6.2204697e-06
6.1312772e-06
6.0416602e-06
5.9516522e-06
5.8611093e-06
5.7718289e-06
5.6867408e-06
5.6063844e-06
5.5298269e-06
5.4573006e-06
5.3885523e-06
5.3232059e-06
5.2609309e-06
5.2015423e-06
5.1448762e-06
5.0906934e-06
5.0387568e-06
4.9889065e-06
4.9410538e-06
4.8950783e-06
4.850818e-06
4.8080774e-06
4.7667939e-06
4.7266205e-06
4.6880401e-06
4.6488086e-06
4.6140746e-06
4.5578249e-06
8.1418074e-05
4.7550519e-05
4.540037e-05
4.4793152e-05
4.4610865e-05
4.4533984e-05
4.4488372e-05
4.4459474e-05
4.4441889e-05
4.4432166e-05
4.4428157e-05
4.4428579e-05
4.4432649e-05
4.4439876e-05
4.4449962e-05
4.4462762e-05
4.4478237e-05
4.4496677e-05
4.45176e-05
4.4546735e-05
4.4557919e-05
4.4702708e-05
4.4243255e-05
4.8925913e-05
2.0238647e-06
3.7165272e-05
6.7218677e-05
7.4891189e-05
7.2742149e-05
6.8504633e-05
6.4672612e-05
6.1438202e-05
5.8641015e-05
5.6195078e-05
5.404273e-05
5.2130409e-05
5.0368206e-05
4.8754281e-05
4.7274864e-05
4.5918582e-05
4.4672228e-05
4.3519326e-05
4.2448348e-05
4.1450764e-05
4.0515949e-05
3.9638267e-05
3.8811757e-05
3.8031631e-05
3.7293921e-05
3.659383e-05
3.5929218e-05
3.5296127e-05
3.4691115e-05
3.4113005e-05
3.3559228e-05
3.302731e-05
3.2516374e-05
3.2024614e-05
3.1549921e-05
3.1091672e-05
3.0648856e-05
3.0219862e-05
2.9803741e-05
2.9400133e-05
2.9004937e-05
2.8619263e-05
2.8243722e-05
2.7877932e-05
2.7521099e-05
2.7172492e-05
2.6831847e-05
2.6498781e-05
2.6172586e-05
2.5852716e-05
2.5539055e-05
2.5231354e-05
2.4928991e-05
2.4631555e-05
2.4338956e-05
2.4051107e-05
2.3767548e-05
2.3487817e-05
2.3211763e-05
2.2939531e-05
2.26708e-05
2.240498e-05
2.2141903e-05
2.1881747e-05
2.162439e-05
2.136937e-05
2.1116386e-05
2.0865514e-05
2.0616816e-05
2.0369898e-05
2.0124336e-05
1.9880141e-05
1.9637498e-05
1.9396069e-05
1.915538e-05
1.8915348e-05
1.8676073e-05
1.843746e-05
1.8199024e-05
1.7960771e-05
1.7722852e-05
1.7484863e-05
1.7246361e-05
1.7007497e-05
1.6768192e-05
1.6527906e-05
1.6286471e-05
1.6043976e-05
1.5800035e-05
1.5559489e-05
1.5330232e-05
1.5113718e-05
1.4907435e-05
1.4712011e-05
1.4526764e-05
1.435068e-05
1.4182869e-05
1.4022833e-05
1.3870132e-05
1.372412e-05
1.3584159e-05
1.3449819e-05
1.332086e-05
1.3196959e-05
1.3077679e-05
1.2962493e-05
1.2851233e-05
1.2742963e-05
1.2638986e-05
1.2533253e-05
1.243964e-05
1.2288036e-05
8.1369997e-05
4.7298956e-05
4.512817e-05
4.4512177e-05
4.4326288e-05
4.4247896e-05
4.4201502e-05
4.4172083e-05
4.4154107e-05
4.4144077e-05
4.413982e-05
4.4140034e-05
4.4143923e-05
4.4150987e-05
4.4160921e-05
4.4173576e-05
4.4188907e-05
4.4207199e-05
4.4227959e-05
4.4256933e-05
4.4267849e-05
4.4412676e-05
4.3947858e-05
4.8561074e-05
4.2002182e-06
8.292459e-05
0.0001497613
0.00016680568
0.00016206186
0.00015267865
0.00014418702
0.00013701479
0.00013080833
0.00012537859
0.00012059867
0.00011635029
0.00011243402
0.00010884626
0.00010555667
0.00010254016
9.9767555e-05
9.7202323e-05
9.4818931e-05
9.2598496e-05
9.0517447e-05
8.8563293e-05
8.6722815e-05
8.4985394e-05
8.3342237e-05
8.1782689e-05
8.0302006e-05
7.8891403e-05
7.7543227e-05
7.6254877e-05
7.5020641e-05
7.3835017e-05
7.2696068e-05
7.1599776e-05
7.0541452e-05
6.951971e-05
6.8532308e-05
6.7575659e-05
6.6647655e-05
6.5747503e-05
6.4866066e-05
6.4005794e-05
6.316807e-05
6.2352048e-05
6.1555964e-05
6.0778188e-05
6.0018131e-05
5.9274947e-05
5.8547055e-05
5.7833242e-05
5.7133245e-05
5.6446519e-05
5.5771672e-05
5.5107789e-05
5.445467e-05
5.3812122e-05
5.3179125e-05
5.2554641e-05
5.1938336e-05
5.1330537e-05
5.0730528e-05
5.013699e-05
4.9549551e-05
4.8968606e-05
4.8393887e-05
4.7824362e-05
4.7259357e-05
4.6699044e-05
4.6143563e-05
4.5592032e-05
4.5043507e-05
4.449801e-05
4.3955954e-05
4.3416586e-05
4.2878848e-05
4.2342554e-05
4.1807922e-05
4.1274745e-05
4.0741941e-05
4.0209517e-05
3.9677813e-05
3.914593e-05
3.8612872e-05
3.8078979e-05
3.7544076e-05
3.7006951e-05
3.6467229e-05
3.5925111e-05
3.537973e-05
3.4841911e-05
3.4329307e-05
3.3845162e-05
3.3383876e-05
3.2946854e-05
3.2532572e-05
3.2138767e-05
3.176345e-05
3.1405509e-05
3.1063961e-05
3.0737365e-05
3.0424294e-05
3.0123785e-05
2.9835307e-05
2.9558136e-05
2.9291295e-05
2.9033606e-05
2.8784692e-05
2.8542465e-05
2.8309835e-05
2.8073275e-05
2.7863821e-05
2.7524608e-05
8.1310208e-05
4.6981151e-05
4.4783742e-05
4.4156491e-05
4.3965994e-05
4.3885655e-05
4.3838254e-05
4.3808165e-05
4.3789685e-05
4.3779261e-05
4.3774684e-05
4.377463e-05
4.3778285e-05
4.3785139e-05
4.3794878e-05
4.3807345e-05
4.3822489e-05
4.3840592e-05
4.386114e-05
4.3889905e-05
4.3900489e-05
4.4045239e-05
4.3574355e-05
4.8101923e-05
7.8236722e-06
0.00016359058
0.00029457586
0.00032788506
0.00031874784
0.00030054774
0.00028404957
0.00027009402
0.00025800136
0.00024741047
0.00023807857
0.00022977782
0.00022211986
0.00021509974
0.00020865925
0.00020275032
0.00019731649
0.0001922868
0.00018761167
0.00018325449
0.00017916937
0.00017533202
0.00017171674
0.00016830285
0.00016507328
0.0001620072
0.00015909542
0.00015632077
0.00015366831
0.00015113298
0.00014870363
0.00014636948
0.00014412679
0.00014196768
0.00013988296
0.00013786996
0.00013592427
0.00013403888
0.00013220965
0.00013043505
0.0001286971
0.00012700058
0.00012534829
0.00012373857
0.00012216796
0.00012063327
0.00011913334
0.00011766653
0.00011622971
0.00011482051
0.00011343842
0.00011208237
0.00011074962
0.00010943838
0.00010814824
0.00010687884
0.00010562817
0.00010439419
0.00010317623
0.00010197495
0.00010078894
9.9615603e-05
9.8454193e-05
9.7305498e-05
9.6168995e-05
9.5042649e-05
9.3925129e-05
9.281677e-05
9.1717857e-05
9.0626649e-05
8.9541276e-05
8.846178e-05
8.7388985e-05
8.6321402e-05
8.5256939e-05
8.4195225e-05
8.313668e-05
8.2080909e-05
8.1025767e-05
7.9971265e-05
7.8918078e-05
7.7864427e-05
7.6808334e-05
7.575047e-05
7.469049e-05
7.3625993e-05
7.2556229e-05
7.1481596e-05
7.0400374e-05
6.933402e-05
6.8317549e-05
6.7357393e-05
6.6442477e-05
6.5575609e-05
6.4753774e-05
6.3972493e-05
6.3227829e-05
6.2517586e-05
6.1839821e-05
6.119168e-05
6.0570338e-05
5.9973888e-05
5.9401282e-05
5.885109e-05
5.8321371e-05
5.7809791e-05
5.7315605e-05
5.6834673e-05
5.637277e-05
5.5903054e-05
5.5487125e-05
5.4813481e-05
8.1238698e-05
4.6592599e-05
4.436171e-05
4.3720401e-05
4.3524171e-05
4.3441393e-05
4.3392729e-05
4.3361799e-05
4.334269e-05
4.3331771e-05
4.3326794e-05
4.3326403e-05
4.3329766e-05
4.3336357e-05
4.3345851e-05
4.3358082e-05
4.3372991e-05
4.3390856e-05
4.3411139e-05
4.3439641e-05
4.3449823e-05
4.3594362e-05
4.3116908e-05
4.7539987e-05
1.3369729e-05
0.00029458797
0.00052748746
0.00058637089
0.00057067417
0.00053897909
0.00051015636
0.00048570669
0.00046446611
0.00044582402
0.00042936893
0.00041470937
0.000401164
0.00038873109
0.0003773116
0.00036682369
0.00035716977
0.00034822577
0.00033990535
0.00033214481
0.00032486354
0.00031801925
0.0003115669
0.00030547028
0.00029969951
0.00029421791
0.00028900947
0.00028404387
0.0002792947
0.00027475321
0.00027039967
0.00026621501
0.00026219269
0.00025831879
0.00025457698
0.00025096259
0.00024746784
0.00024408023
0.00024079247
0.00023760193
0.00023447626
0.00023142406
0.00022845052
0.00022555277
0.00022272463
0.00021996037
0.00021725802
0.00021461462
0.0002120246
0.00020948371
0.00020699107
0.00020454479
0.00020213997
0.00019977336
0.00019744429
0.00019515214
0.0001928933
0.00019066407
0.00018846328
0.00018629214
0.00018414814
0.00018202657
0.00017992609
0.00017784816
0.00017579184
0.00017375347
0.00017173064
0.00016972395
0.00016773395
0.00016575749
0.00016379118
0.0001618351
0.00015989075
0.00015795545
0.0001560254
0.00015409993
0.00015217977
0.00015026426
0.00014834948
0.00014643544
0.00014452338
0.00014261008
0.00014069192
0.00013877013
0.00013684407
0.00013490938
0.00013296468
0.00013101069
0.00012904427
0.00012710445
0.00012525496
0.00012350753
0.00012184209
0.00012026382
0.00011876727
0.00011734432
0.00011598784
0.00011469386
0.00011345886
0.00011227768
0.00011114518
0.00011005791
0.00010901397
0.00010801078
0.0001070448
0.0001061118
0.00010521042
0.00010433313
0.00010349046
0.00010263349
0.00010187454
0.00010064517
8.115568e-05
4.6128638e-05
4.3856349e-05
4.3197805e-05
4.2994575e-05
4.2908797e-05
4.2858576e-05
4.2826611e-05
4.2806726e-05
4.2795199e-05
4.2789729e-05
4.2788924e-05
4.2791927e-05
4.2798193e-05
4.2807386e-05
4.2819328e-05
4.2833949e-05
4.2851521e-05
4.2871479e-05
4.2899657e-05
4.2909364e-05
4.3053528e-05
4.2569374e-05
4.6865212e-05
2.1173549e-05
0.00049105379
0.00087080314
0.00096585774
0.00094174691
0.00089190403
0.00084634412
0.00080751981
0.0007736489
0.00074381773
0.00071740877
0.00069382056
0.00067196827
0.00065186769
0.0006333696
0.00061635048
0.000600659
0.00058609896
0.00057253466
0.00055986625
0.00054796528
0.00053676533
0.00052619498
0.0005161968
0.00050672354
0.00049771639
0.00048915028
0.00048097646
0.00047315239
0.0004656645
0.00045848099
0.00045157103
0.00044492443
0.00043851863
0.00043232716
0.00042634268
0.00042055265
0.00041493671
0.0004094831
0.00040418779
0.00039899706
0.00039392526
0.00038898153
0.00038416126
0.00037945432
0.00037485138
0.0003703493
0.00036594332
0.00036162425
0.00035738509
0.00035322452
0.00034913951
0.00034512192
0.00034116641
0.00033727193
0.00033343755
0.00032965729
0.000325925
0.00032223877
0.0003186007
0.00031500666
0.00031144876
0.0003079248
0.00030443723
0.00030098459
0.00029756073
0.00029416162
0.0002907883
0.00028744173
0.00028411664
0.00028080734
0.00027751394
0.00027423903
0.00027097811
0.00026772477
0.00026447788
0.00026123865
0.00025800599
0.00025477331
0.00025154059
0.00024830994
0.00024507591
0.00024183237
0.00023858135
0.00023532181
0.00023204634
0.00022875254
0.00022544165
0.00022210829
0.00021881862
0.00021568085
0.00021271501
0.0002098872
0.00020720646
0.00020466368
0.00020224518
0.00019993894
0.00019773832
0.00019563743
0.00019362756
0.00019170002
0.00018984901
0.00018807135
0.0001863627
0.00018471709
0.0001831273
0.00018159108
0.00018009564
0.00017865892
0.00017719765
0.0001759032
0.00017380587
8.1061679e-05
4.5584743e-05
4.3261849e-05
4.258245e-05
4.2370786e-05
4.2281362e-05
4.2229245e-05
4.2196021e-05
4.2175193e-05
4.2162927e-05
4.2156857e-05
4.2155549e-05
4.2158114e-05
4.2163987e-05
4.2172814e-05
4.2184404e-05
4.2198676e-05
4.2215893e-05
4.223546e-05
4.2263246e-05
4.2272399e-05
4.2415984e-05
4.1925658e-05
4.6065744e-05
3.1182035e-05
0.00076076101
0.0013299061
0.0014703316
0.0014373276
0.001366599
0.0013014972
0.0012456756
0.0011966916
0.0011533405
0.0011148052
0.0010802609
0.0010481398
0.0010185036
0.00099115432
0.00096592792
0.00094261435
0.00092093334
0.00090069292
0.00088175253
0.0008639266
0.00084712152
0.00083123491
0.0008161845
0.00080190303
0.00078830483
0.00077535477
0.00076298154
0.00075112282
0.00073975991
0.00072884615
0.00071833617
0.00070821575
0.00069845163
0.00068900453
0.00067986429
0.00067101239
0.00066241848
0.00065406543
0.00064594775
0.00063798283
0.00063019315
0.00062259377
0.00061517807
0.00060793074
0.00060083786
0.00059389506
0.00058709526
0.0005804245
0.00057387223
0.00056743673
0.0005611136
0.00055489037
0.00054875889
0.00054271778
0.00053676586
0.00053089394
0.00052509255
0.00051935885
0.0005136963
0.00050809862
0.00050255356
0.00049705773
0.0004916151
0.00048622352
0.00048087345
0.0004755586
0.00047028067
0.00046504125
0.00045983217
0.0004546445
0.0004494784
0.00044433803
0.00043921639
0.00043410339
0.00042899721
0.00042389974
0.00041880935
0.00041371563
0.00040861847
0.00040352125
0.00039841535
0.00039329102
0.00038815141
0.00038299487
0.0003778096
0.00037259173
0.00036734312
0.00036205519
0.00035683286
0.00035184826
0.00034713352
0.00034263521
0.00033836832
0.00033431872
0.00033046498
0.00032678821
0.00032327808
0.00031992547
0.00031671665
0.00031363794
0.0003106802
0.00030783856
0.00030510618
0.00030247362
0.00029992946
0.00029747015
0.00029507537
0.00029277382
0.00029043246
0.00028835752
0.0002849941
8.095762e-05
4.4956854e-05
4.2572594e-05
4.1868237e-05
4.164649e-05
4.1552678e-05
4.1498272e-05
4.146353e-05
4.1441565e-05
4.1428409e-05
4.1421616e-05
4.1419702e-05
4.142174e-05
4.142714e-05
4.1435527e-05
4.1446695e-05
4.1460548e-05
4.1477342e-05
4.1496441e-05
4.1523758e-05
4.1532277e-05
4.1675023e-05
4.1180156e-05
4.5127392e-05
4.2691269e-05
0.0010954475
0.0018822536
0.0020730776
0.002032705
0.0019417559
0.0018573875
0.0017845338
0.0017201684
0.0016628832
0.0016117197
0.0015656608
0.0015226429
0.0014828103
0.0014459305
0.0014118111
0.0013801896
0.0013507029
0.0013231059
0.0012972202
0.0012728024
0.0012497337
0.0012278814
0.0012071387
0.0011874192
0.0011686096
0.0011506657
0.0011334926
0.0011170074
0.0011011872
0.0010859696
0.0010712939
0.0010571424
0.0010434705
0.0010302249
0.0010173932
0.0010049505
0.00099285544
0.00098108546
0.000969634
0.00095838379
0.00094736756
0.00093660848
0.00092609798
0.00091581482
0.00090574001
0.00089586817
0.0008861898
0.0008766853
0.00086734013
0.00085815244
0.00084911642
0.00084021453
0.00083143526
0.00082277709
0.00081423881
0.00080580744
0.00079746944
0.00078922098
0.00078106744
0.00077299999
0.00076500104
0.00075706575
0.00074920012
0.00074140128
0.00073365553
0.00072595377
0.00071829853
0.00071069236
0.00070312348
0.00069557884
0.00068805868
0.00068056921
0.00067310033
0.00066563723
0.00065817719
0.00065072288
0.00064327211
0.00063580949
0.00062833474
0.00062085283
0.00061335109
0.00060581498
0.000598249
0.00059065067
0.00058300243
0.00057529833
0.00056754094
0.00055971736
0.00055198279
0.00054459281
0.00053759583
0.00053091339
0.00052456912
0.00051854287
0.00051280345
0.00050732335
0.00050208773
0.00049708352
0.00049229071
0.00048768921
0.00048326572
0.00047901328
0.00047492198
0.00047097793
0.00046716423
0.00046347574
0.00045988227
0.00045642687
0.00045291061
0.0004497925
0.00044473467
8.0844914e-05
4.4241745e-05
4.1783491e-05
4.1049551e-05
4.0815803e-05
4.0716748e-05
4.0659595e-05
4.0623033e-05
4.0599708e-05
4.0585485e-05
4.0577829e-05
4.0575189e-05
4.0576597e-05
4.0581431e-05
4.0589294e-05
4.059996e-05
4.0613315e-05
4.0629605e-05
4.0648153e-05
4.0674913e-05
4.0682716e-05
4.0824289e-05
4.0328289e-05
4.4043934e-05
5.4691369e-05
0.0014675757
0.0024814898
0.0027232913
0.0026785841
0.0025710914
0.0024706292
0.0023832705
0.0023055535
0.0022359946
0.002173578
0.0021171544
0.0020642194
0.0020150296
0.0019693383
0.0019269413
0.0018875376
0.0018506941
0.0018161238
0.0017836197
0.0017528877
0.0017237906
0.00169617
0.0016698989
0.001644876
0.0016209632
0.0015981103
0.001576201
0.001555134
0.0015348841
0.0015153748
0.0014965313
0.0014783341
0.0014607275
0.0014436458
0.0014270753
0.0014109849
0.001395323
0.0013800624
0.0013651964
0.001350571
0.0013362303
0.0013222072
0.0013084916
0.0012950562
0.0012818773
0.001268949
0.0012562597
0.0012437839
0.0012315031
0.0012194158
0.0012075151
0.0011957781
0.0011841898
0.0011727488
0.0011614543
0.0011502892
0.0011392358
0.0011282891
0.001117457
0.001106728
0.0010960788
0.0010855028
0.0010750085
0.0010645924
0.0010542362
0.0010439278
0.0010336707
0.0010234684
0.0010133054
0.001003164
0.00099304437
0.00098295513
0.00097288276
0.0009628071
0.00095272428
0.00094263776
0.0009325448
0.00092242426
0.00091227549
0.00090210523
0.00089189616
0.00088162806
0.00087130676
0.00086092877
0.00085046974
0.000839921
0.00082928577
0.00081854588
0.00080791421
0.00079774314
0.00078810066
0.00077887985
0.00077011577
0.00076178202
0.00075383674
0.00074624287
0.00073898083
0.00073203344
0.00072537369
0.00071897433
0.00071281745
0.00070689396
0.00070119065
0.00069568855
0.00069036447
0.00068521158
0.00068018822
0.00067535447
0.00067043363
0.00066606637
0.00065897573
8.0725527e-05
4.3437447e-05
4.0890388e-05
4.0121556e-05
3.9873624e-05
3.9768337e-05
3.9707903e-05
3.966917e-05
3.9644224e-05
3.9628731e-05
3.9620045e-05
3.9616542e-05
3.9617201e-05
3.9621364e-05
3.9628605e-05
3.9638676e-05
3.9651443e-05
3.966714e-05
3.9685041e-05
3.9711146e-05
3.9718153e-05
3.9858129e-05
3.9365152e-05
4.2837532e-05
6.614912e-05
0.0018461376
0.0030760498
0.0033671595
0.0033215665
0.0032024101
0.003090324
0.0029922268
0.0029043758
0.0028253391
0.0027541225
0.0026895076
0.002628646
0.0025719155
0.002519072
0.0024699143
0.0024241169
0.0023811934
0.0023408291
0.0023027985
0.0022667686
0.0022325909
0.0022000881
0.0021691186
0.002139571
0.0021112879
0.0020842159
0.0020582216
0.0020331894
0.0020090936
0.0019858461
0.0019633612
0.0019416187
0.0019205539
0.0019000908
0.0018802158
0.0018608924
0.0018420603
0.0018236893
0.0018057732
0.0017881243
0.0017707969
0.0017538342
0.0017372249
0.0017209363
0.0017049407
0.0016892327
0.0016737985
0.0016586074
0.0016436376
0.0016288882
0.0016143516
0.0015999998
0.0015858145
0.0015717951
0.0015579411
0.0015442319
0.0015306453
0.0015171759
0.0015038339
0.0014906054
0.0014774616
0.0014643943
0.0014514143
0.001438518
0.0014256825
0.0014128926
0.0014001527
0.0013874677
0.0013748181
0.0013621817
0.0013495585
0.0013369595
0.001324368
0.0013117583
0.0012991253
0.001286473
0.0012737983
0.0012610742
0.0012482992
0.001235482
0.0012226004
0.0012096283
0.0011965725
0.0011834285
0.0011701646
0.0011567693
0.001143246
0.0011295709
0.0011160146
0.0011030279
0.0010906993
0.0010788934
0.0010676586
0.0010569631
0.0010467547
0.0010369872
0.0010276368
0.0010186826
0.0010100909
0.0010018274
0.00099386975
0.00098620714
0.00097882319
0.00097169395
0.0009647899
0.0009581026
0.00095157883
0.00094529632
0.0009388981
0.0009332143
0.00092397594
8.0602012e-05
4.2543706e-05
3.9890453e-05
3.9080629e-05
3.8816022e-05
3.870336e-05
3.8639021e-05
3.8597706e-05
3.8570835e-05
3.8553835e-05
3.8543927e-05
3.85394e-05
3.8539173e-05
3.8542542e-05
3.8549049e-05
3.855842e-05
3.8570496e-05
3.85855e-05
3.8602649e-05
3.8627985e-05
3.8634119e-05
3.8771963e-05
3.8286722e-05
4.1507864e-05
7.6034944e-05
0.0022062403
0.0036320653
0.0039656195
0.0039221447
0.0037958419
0.0036763568
0.0035711333
0.0034762855
0.0033905456
0.0033130068
0.0032424331
0.0031757935
0.0031135201
0.0030553826
0.0030011929
0.0029506111
0.0029031128
0.0028583678
0.0028161411
0.002776071
0.0027380047
0.0027017518
0.0026671608
0.0026341147
0.0026024419
0.0025720881
0.002542907
0.0025147729
0.0024876609
0.002461474
0.0024361189
0.0024115754
0.0023877717
0.0023646244
0.0023421208
0.0023202198
0.0022988543
0.0022779931
0.0022576305
0.0022375518
0.0022178188
0.0021984838
0.0021795347
0.0021609341
0.0021426514
0.0021246822
0.0021070112
0.0020896029
0.0020724327
0.0020555011
0.0020388
0.0020222969
0.0020059709
0.0019898217
0.0019738502
0.0019580322
0.0019423418
0.0019267731
0.0019113387
0.0018960229
0.0018807917
0.0018656356
0.0018505677
0.001835584
0.0018206581
0.0018057715
0.0017909298
0.0017761389
0.0017613762
0.0017466151
0.0017318554
0.0017171104
0.0017023604
0.0016875749
0.0016727474
0.0016578824
0.0016429764
0.001627997
0.001612942
0.0015978214
0.0015826089
0.0015672726
0.0015518201
0.0015362457
0.0015205114
0.0015046022
0.0014885217
0.0014722406
0.0014560806
0.0014405805
0.0014258473
0.0014117212
0.0013982633
0.0013854376
0.0013731836
0.0013614471
0.0013502008
0.0013394212
0.0013290688
0.0013191032
0.0013094983
0.001300242
0.0012913154
0.0012826901
0.0012743311
0.0012662285
0.001258319
0.0012506961
0.0012429307
0.0012360259
0.0012247899
8.0477513e-05
4.1562503e-05
3.8782621e-05
3.792478e-05
3.764066e-05
3.75193e-05
3.7450324e-05
3.7405946e-05
3.7376796e-05
3.7358011e-05
3.7346657e-05
3.7340921e-05
3.7339648e-05
3.7342081e-05
3.7347725e-05
3.7356276e-05
3.7367545e-05
3.7381739e-05
3.7398019e-05
3.7422462e-05
3.7427652e-05
3.7562705e-05
3.7090404e-05
4.0054808e-05
8.3387276e-05
0.0025211486
0.0041260579
0.004502479
0.004462729
0.0043320252
0.0042078678
0.0040978571
0.003998076
0.003907494
0.00382532
0.0037503256
0.0036797082
0.0036135802
0.0035517293
0.003493988
0.003440009
0.003389241
0.0033413488
0.0032960944
0.0032530959
0.0032122014
0.0031732117
0.0031359692
0.0031003546
0.0030661861
0.0030334103
0.003001871
0.0029714364
0.0029420829
0.0029137069
0.0028862098
0.0028595725
0.0028337173
0.0028085557
0.0027840768
0.0027602354
0.0027369593
0.0027142172
0.0026920049
0.0026700984
0.0026485565
0.0026274353
0.0026067223
0.0025863758
0.0025663633
0.0025466821
0.0025273154
0.0025082238
0.0024893807
0.0024707879
0.0024524373
0.0024342928
0.0024163306
0.0023985517
0.0023809581
0.0023635227
0.0023462164
0.0023290329
0.0023119871
0.002295062
0.0022782192
0.0022614478
0.0022447632
0.0022281615
0.0022116128
0.0021950963
0.0021786182
0.0021621858
0.0021457736
0.0021293514
0.0021129187
0.0020964909
0.002080046
0.0020635493
0.002046993
0.0020303819
0.0020137126
0.0019969479
0.0019800848
0.0019631345
0.0019460673
0.0019288464
0.0019114798
0.0018939609
0.0018762461
0.0018583176
0.0018401788
0.0018217959
0.0018035314
0.0017859954
0.0017693108
0.0017532983
0.0017380296
0.0017234657
0.0017095394
0.0016961904
0.001683389
0.0016711097
0.0016593085
0.0016479403
0.001636976
0.0016264025
0.0016161994
0.0016063345
0.0015967684
0.0015874901
0.0015784282
0.0015696892
0.0015607861
0.001552863
0.0015399556
8.0355686e-05
4.0498594e-05
3.7568056e-05
3.6654108e-05
3.6347238e-05
3.6215649e-05
3.6141179e-05
3.6093175e-05
3.6061329e-05
3.6040435e-05
3.6027374e-05
3.6020211e-05
3.6017706e-05
3.6019041e-05
3.6023673e-05
3.6031266e-05
3.6041596e-05
3.6054853e-05
3.6070134e-05
3.6093542e-05
3.609773e-05
3.6229189e-05
3.5775412e-05
3.847976e-05
8.7471822e-05
0.0027663002
0.0045378403
0.0049651853
0.0049325282
0.0048008193
0.0046750992
0.0045629362
0.0044604902
0.0043670634
0.0042820346
0.0042042247
0.0041308117
0.0040619367
0.0039974153
0.0039371038
0.00388065
0.0038274833
0.0037772699
0.0037297726
0.0036845949
0.0036415892
0.0036005498
0.0035613156
0.0035237668
0.003487714
0.0034531059
0.0034197783
0.0033875955
0.0033565361
0.0033264909
0.0032973578
0.0032691194
0.0032416927
0.0032149859
0.0031889903
0.0031636567
0.0031389093
0.0031147176
0.0030910785
0.0030678191
0.0030449562
0.0030225295
0.0030005262
0.0029789005
0.002957619
0.0029366809
0.0029160685
0.0028957386
0.0028756633
0.0028558461
0.0028362789
0.0028169224
0.0027977508
0.0027787661
0.0027599716
0.0027413377
0.0027228327
0.00270445
0.0026862069
0.002668085
0.0026500425
0.0026320673
0.0026141768
0.0025963672
0.002578606
0.0025608704
0.0025431671
0.0025255046
0.0025078552
0.0024901857
0.0024724955
0.0024548014
0.0024370801
0.0024192933
0.002401432
0.0023835015
0.0023654984
0.0023473816
0.0023291473
0.002310808
0.002292331
0.0022736759
0.0022548505
0.0022358477
0.0022166198