/*--------------------------------*- C++ -*----------------------------------*\
  =========                 |
  \\      /  F ield         | OpenFOAM: The Open Source CFD Toolbox
   \\    /   O peration     | Website:  https://openfoam.org
    \\  /    A nd           | Version:  12
     \\/     M anipulation  |
\*---------------------------------------------------------------------------*/
FoamFile
{
    format      ascii;
    class       volScalarField;
    location    "300";
    object      nut;
}
// * * * * * * * * * * * * * * * * * * * * * * * * * * * * * * * * * * * * * //

dimensions      [0 2 -1 0 0 0 0];

internalField   nonuniform List<scalar> 
7480
(
1.5400178e-08
1.5028403e-08
1.4667548e-08
1.436058e-08
1.4144087e-08
1.4046528e-08
1.266792e-08
1.0928817e-08
9.6943277e-09
8.716624e-09
8.2900295e-09
7.3087939e-09
2.3652007e-07
3.4435583e-06
5.5173768e-06
6.8692916e-06
7.6638918e-06
8.0704808e-06
8.2794055e-06
8.2720082e-06
8.2276902e-06
8.1449092e-06
7.8491536e-06
7.2056673e-06
6.6542546e-06
6.1847406e-06
5.7905672e-06
5.4758684e-06
5.2194186e-06
5.010034e-06
4.8420419e-06
4.7118696e-06
4.6159523e-06
4.5504423e-06
4.5112691e-06
4.4944176e-06
4.495765e-06
4.5109284e-06
4.5389552e-06
4.5793287e-06
4.6300016e-06
4.6883789e-06
4.7519797e-06
4.8189129e-06
4.8886712e-06
4.9582594e-06
5.0267847e-06
5.0931129e-06
5.1558759e-06
5.2137921e-06
5.2686e-06
5.3188058e-06
5.3627253e-06
5.3994323e-06
5.4288396e-06
5.4515246e-06
5.4683595e-06
5.4803948e-06
5.4895158e-06
5.4968153e-06
5.5025914e-06
5.5068468e-06
5.509675e-06
5.511302e-06
5.5119545e-06
5.511806e-06
5.5109954e-06
5.5098639e-06
5.5087008e-06
5.5074496e-06
5.5058865e-06
5.5038597e-06
5.5013221e-06
5.4982907e-06
5.4948232e-06
5.4910826e-06
5.4872074e-06
5.4831683e-06
5.4788508e-06
5.4741871e-06
5.4691802e-06
5.4638776e-06
5.4584076e-06
5.4528316e-06
5.447099e-06
5.441149e-06
5.4349481e-06
5.428523e-06
5.4219798e-06
5.4153497e-06
5.4085855e-06
5.4016459e-06
5.3945212e-06
5.3872461e-06
5.3799012e-06
5.3722693e-06
5.3647974e-06
5.3556105e-06
5.3492113e-06
5.3333989e-06
6.1719073e-08
6.1234265e-08
6.0686099e-08
6.0107388e-08
5.9506492e-08
5.888601e-08
5.8250005e-08
5.7605281e-08
5.693471e-08
5.6317253e-08
5.5415797e-08
5.6736942e-08
4.6293837e-08
5.3518991e-07
2.2027699e-06
4.2119917e-06
5.2025597e-06
5.4090329e-06
5.2553477e-06
5.0721987e-06
4.9894945e-06
4.9879424e-06
5.0551902e-06
5.1800339e-06
5.4329605e-06
5.7917211e-06
6.2662892e-06
6.9070093e-06
7.2487081e-06
7.6277104e-06
8.0310061e-06
8.4461139e-06
8.8633846e-06
9.2755178e-06
9.6773704e-06
1.0066831e-05
1.0440265e-05
1.0800418e-05
1.1156237e-05
1.1510637e-05
1.1856507e-05
1.2188432e-05
1.2504385e-05
1.2804727e-05
1.3095922e-05
1.335758e-05
1.3605206e-05
1.3831583e-05
1.4035796e-05
1.4218736e-05
1.4379535e-05
1.4516592e-05
1.4631251e-05
1.4726281e-05
1.4804982e-05
1.4870604e-05
1.4925877e-05
1.4973766e-05
1.5018426e-05
1.5059457e-05
1.5096424e-05
1.5129482e-05
1.5159219e-05
1.518626e-05
1.5211062e-05
1.5233918e-05
1.5255084e-05
1.5275017e-05
1.5293489e-05
1.5309813e-05
1.5323682e-05
1.5335243e-05
1.5344792e-05
1.5352607e-05
1.5358989e-05
1.5364208e-05
1.5368128e-05
1.5370399e-05
1.5370915e-05
1.5369873e-05
1.5367544e-05
1.5364225e-05
1.536009e-05
1.5354938e-05
1.5348535e-05
1.5340907e-05
1.5332228e-05
1.5322795e-05
1.5312758e-05
1.5301937e-05
1.5290177e-05
1.5277522e-05
1.5264168e-05
1.5250295e-05
1.5235817e-05
1.5220604e-05
1.5204642e-05
1.5187056e-05
1.5172779e-05
1.5139789e-05
6.1707204e-08
6.1716857e-08
6.1724824e-08
6.1730288e-08
6.1733039e-08
6.173292e-08
6.1729719e-08
6.1723495e-08
6.171192e-08
6.1700238e-08
6.1663763e-08
6.1716545e-08
6.138657e-08
6.2419668e-08
7.9651971e-08
1.8188384e-07
5.4536142e-07
1.2134995e-06
2.0228459e-06
2.6689212e-06
3.0052145e-06
3.1057339e-06
3.0811849e-06
3.0080807e-06
2.9393074e-06
2.9606808e-06
3.0678751e-06
3.2721382e-06
3.5612936e-06
3.9303367e-06
4.3926175e-06
4.8973326e-06
5.4608755e-06
6.0880285e-06
6.7810422e-06
7.5419671e-06
8.379878e-06
9.3152609e-06
1.0196674e-05
1.1055876e-05
1.1932993e-05
1.2807668e-05
1.3663669e-05
1.4497874e-05
1.5312165e-05
1.6109778e-05
1.6874965e-05
1.7589584e-05
1.826451e-05
1.8901893e-05
1.9374579e-05
1.9799901e-05
2.0186848e-05
2.0541002e-05
2.0865883e-05
2.1164571e-05
2.1441097e-05
2.1699257e-05
2.1938499e-05
2.2159352e-05
2.2363639e-05
2.2553619e-05
2.273133e-05
2.2898474e-05
2.3056196e-05
2.3205214e-05
2.3346297e-05
2.3479037e-05
2.3602734e-05
2.3717594e-05
2.382435e-05
2.3923792e-05
2.4016633e-05
2.410348e-05
2.4184997e-05
2.4261061e-05
2.4331063e-05
2.4395064e-05
2.4453661e-05
2.450752e-05
2.4557121e-05
2.4603029e-05
2.4645053e-05
2.4682729e-05
2.4716136e-05
2.4745782e-05
2.4772141e-05
2.4795769e-05
2.4816506e-05
2.4833964e-05
2.484823e-05
2.4859705e-05
2.4868871e-05
2.4875879e-05
2.4880301e-05
2.4882489e-05
2.4881417e-05
2.4880103e-05
2.4872773e-05
2.4860386e-05
6.3769734e-08
6.3797317e-08
6.3825647e-08
6.3853233e-08
6.3879647e-08
6.390475e-08
6.3928475e-08
6.395078e-08
6.397157e-08
6.3990722e-08
6.4008551e-08
6.4020622e-08
6.4040745e-08
6.4036961e-08
6.4085673e-08
6.407053e-08
6.5182623e-08
6.939097e-08
8.5148458e-08
1.2555845e-07
2.0079792e-07
3.14965e-07
4.662141e-07
6.4701665e-07
8.4975776e-07
1.0532535e-06
1.243677e-06
1.4185778e-06
1.5815868e-06
1.7385747e-06
1.8995005e-06
2.0717036e-06
2.2633393e-06
2.5141136e-06
2.8302189e-06
3.2162937e-06
3.6867519e-06
4.2545094e-06
4.9174352e-06
5.6997399e-06
6.6233412e-06
7.6942416e-06
8.8575922e-06
9.8948186e-06
1.0984899e-05
1.2117784e-05
1.3279586e-05
1.4447127e-05
1.5613346e-05
1.6766567e-05
1.7892042e-05
1.8987923e-05
2.0012391e-05
2.0981429e-05
2.1906746e-05
2.2787322e-05
2.3624004e-05
2.4392839e-05
2.5004806e-05
2.5574529e-05
2.6109319e-05
2.6615053e-05
2.7095323e-05
2.7551979e-05
2.7986215e-05
2.8399624e-05
2.879454e-05
2.9169959e-05
2.9524337e-05
2.9858541e-05
3.017437e-05
3.0473576e-05
3.0757572e-05
3.102741e-05
3.1284228e-05
3.152785e-05
3.1757615e-05
3.1974009e-05
3.2178079e-05
3.2370868e-05
3.2553205e-05
3.2726094e-05
3.2889203e-05
3.3042125e-05
3.3185326e-05
3.331968e-05
3.3445914e-05
3.3564913e-05
3.3676369e-05
3.377995e-05
3.3876055e-05
3.3965396e-05
3.4048731e-05
3.4126229e-05
3.4197329e-05
3.4262872e-05
3.4321029e-05
3.4378783e-05
3.4415915e-05
3.4484071e-05
6.4737855e-08
6.4770118e-08
6.4803752e-08
6.483698e-08
6.4869369e-08
6.4900798e-08
6.4931224e-08
6.4960618e-08
6.4988957e-08
6.5016202e-08
6.5042352e-08
6.5067228e-08
6.5090975e-08
6.5113878e-08
6.512312e-08
6.5132344e-08
6.5149823e-08
6.5185416e-08
6.5234528e-08
6.5334669e-08
6.5567463e-08
6.6099254e-08
6.7222637e-08
6.9413583e-08
7.3385704e-08
8.0118868e-08
9.0888191e-08
1.0735919e-07
1.3179893e-07
1.67224e-07
2.1801324e-07
2.901141e-07
3.9206183e-07
5.3000239e-07
7.1054131e-07
9.3661095e-07
1.2094716e-06
1.5157943e-06
1.8721647e-06
2.2450646e-06
2.6461645e-06
3.1307936e-06
3.7315323e-06
4.4566583e-06
5.3103439e-06
6.315465e-06
7.5010411e-06
8.8558829e-06
9.9649959e-06
1.1159204e-05
1.242794e-05
1.3757939e-05
1.511903e-05
1.6500262e-05
1.7883181e-05
1.924981e-05
2.0600886e-05
2.1885422e-05
2.3120946e-05
2.4320066e-05
2.5478189e-05
2.6587936e-05
2.7635299e-05
2.8627402e-05
2.957671e-05
3.0489971e-05
3.1373024e-05
3.2141831e-05
3.2830376e-05
3.3485126e-05
3.4110136e-05
3.4708e-05
3.5280149e-05
3.5827692e-05
3.6352578e-05
3.6853833e-05
3.7329949e-05
3.7782192e-05
3.8212555e-05
3.8622782e-05
3.9014158e-05
3.9388209e-05
3.9744206e-05
4.0081772e-05
4.0401837e-05
4.070573e-05
4.0994533e-05
4.1269573e-05
4.1530311e-05
4.1776593e-05
4.2009225e-05
4.2229249e-05
4.2437742e-05
4.2634873e-05
4.2820031e-05
4.2994716e-05
4.3156052e-05
4.3316506e-05
4.343414e-05
4.3644486e-05
6.4602015e-08
6.4636392e-08
6.4672432e-08
6.4708277e-08
6.4743458e-08
6.477785e-08
6.4811414e-08
6.4844132e-08
6.4875999e-08
6.4907019e-08
6.4937224e-08
6.4966696e-08
6.499562e-08
6.5024539e-08
6.5053295e-08
6.5082308e-08
6.5109091e-08
6.5127261e-08
6.514321e-08
6.5161369e-08
6.5186614e-08
6.5218987e-08
6.5258097e-08
6.5302116e-08
6.5350632e-08
6.5406955e-08
6.5475338e-08
6.5572701e-08
6.57194e-08
6.5955659e-08
6.6344471e-08
6.7006924e-08
6.816334e-08
7.023104e-08
7.4025964e-08
8.1072933e-08
9.4381141e-08
1.1895294e-07
1.6458847e-07
2.4736343e-07
3.8784774e-07
6.0767682e-07
9.3188678e-07
1.353383e-06
1.8957113e-06
2.4608607e-06
3.0245449e-06
3.6876044e-06
4.4780473e-06
5.4187851e-06
6.5496989e-06
7.8826441e-06
9.4571247e-06
1.076002e-05
1.2042521e-05
1.3412458e-05
1.4859358e-05
1.6356004e-05
1.7902521e-05
1.9473007e-05
2.1043519e-05
2.2587696e-05
2.4062141e-05
2.5527868e-05
2.6983662e-05
2.8415431e-05
2.9796293e-05
3.1117719e-05
3.2385441e-05
3.3606943e-05
3.4785235e-05
3.5913346e-05
3.6991287e-05
3.8025474e-05
3.9026964e-05
3.9920782e-05
4.0723498e-05
4.1491252e-05
4.222721e-05
4.2933521e-05
4.3611509e-05
4.4263261e-05
4.4886284e-05
4.5480111e-05
4.6046673e-05
4.6588066e-05
4.7105834e-05
4.7601832e-05
4.8074864e-05
4.8524911e-05
4.8953282e-05
4.9361456e-05
4.9750935e-05
5.0121835e-05
5.0473499e-05
5.080815e-05
5.1121701e-05
5.1433466e-05
5.1673034e-05
5.2094563e-05
6.4468385e-08
6.4502448e-08
6.4538089e-08
6.4573487e-08
6.460819e-08
6.4642076e-08
6.4675107e-08
6.4707264e-08
6.4738537e-08
6.4768922e-08
6.4798426e-08
6.4827084e-08
6.4854984e-08
6.4882272e-08
6.4909056e-08
6.4935331e-08
6.4961018e-08
6.4985852e-08
6.5009643e-08
6.503221e-08
6.5053175e-08
6.5071991e-08
6.5085366e-08
6.5095424e-08
6.5104592e-08
6.5113902e-08
6.5124314e-08
6.5137092e-08
6.5155665e-08
6.5178186e-08
6.5207592e-08
6.5240301e-08
6.5279905e-08
6.5322445e-08
6.5369113e-08
6.5422755e-08
6.5498041e-08
6.5624367e-08
6.5866929e-08
6.6380377e-08
6.7558827e-08
7.0298729e-08
7.7076969e-08
9.3145478e-08
1.3205131e-07
2.2058943e-07
3.9465108e-07
7.0128971e-07
1.1618553e-06
1.8033433e-06
2.5163573e-06
3.1888932e-06
3.9644422e-06
4.8759506e-06
5.9818349e-06
7.3260453e-06
8.9067185e-06
1.0763013e-05
1.2220021e-05
1.3614113e-05
1.5111794e-05
1.6698929e-05
1.8349501e-05
2.0064862e-05
2.1806842e-05
2.3555583e-05
2.5240462e-05
2.6933656e-05
2.8645486e-05
3.0350665e-05
3.2006406e-05
3.3609565e-05
3.5173554e-05
3.670361e-05
3.8196525e-05
3.9632285e-05
4.1003452e-05
4.2320036e-05
4.3588392e-05
4.4807445e-05
4.5977515e-05
4.7108507e-05
4.8097887e-05
4.9015381e-05
4.9895908e-05
5.0742091e-05
5.1555623e-05
5.2338823e-05
5.3088166e-05
5.3804151e-05
5.4489131e-05
5.5145163e-05
5.5774258e-05
5.6376108e-05
5.6949813e-05
5.7498424e-05
5.8016666e-05
5.8531875e-05
5.8938834e-05
5.9646106e-05
6.4480201e-08
6.4513989e-08
6.4549313e-08
6.4584359e-08
6.4618679e-08
6.4652154e-08
6.4684743e-08
6.4716426e-08
6.4747187e-08
6.4777016e-08
6.4805904e-08
6.4833854e-08
6.4860881e-08
6.4886989e-08
6.4912155e-08
6.4936335e-08
6.4959502e-08
6.4981675e-08
6.5002864e-08
6.5023058e-08
6.5042212e-08
6.5060274e-08
6.5077108e-08
6.5092594e-08
6.5106672e-08
6.51193e-08
6.5130463e-08
6.5140099e-08
6.5148167e-08
6.5154449e-08
6.5158455e-08
6.5159626e-08
6.5154371e-08
6.5147553e-08
6.5140755e-08
6.5134938e-08
6.5131354e-08
6.5133692e-08
6.5145056e-08
6.5166536e-08
6.5195691e-08
6.5235057e-08
6.5283648e-08
6.5355615e-08
6.5507143e-08
6.5920022e-08
6.7091992e-08
7.0664714e-08
8.1121887e-08
1.1148072e-07
1.9469573e-07
3.7754149e-07
7.296851e-07
1.2699671e-06
2.0596347e-06
2.836247e-06
3.6377325e-06
4.5995779e-06
5.7590972e-06
7.166173e-06
8.8499898e-06
1.0815307e-05
1.2921653e-05
1.4362549e-05
1.5922635e-05
1.7596513e-05
1.9354203e-05
2.1203454e-05
2.3106958e-05
2.5037329e-05
2.6914972e-05
2.8820536e-05
3.0759926e-05
3.2700004e-05
3.4594464e-05
3.645773e-05
3.8301533e-05
4.0116212e-05
4.188366e-05
4.3594933e-05
4.525379e-05
4.6870039e-05
4.8424916e-05
4.9909476e-05
5.1333008e-05
5.2703812e-05
5.4022806e-05
5.5297017e-05
5.6399877e-05
5.7441293e-05
5.8442643e-05
5.9406174e-05
6.03343e-05
6.122498e-05
6.2076975e-05
6.2894747e-05
6.3672004e-05
6.4444949e-05
6.5067388e-05
6.6138577e-05
6.4518421e-08
6.4552212e-08
6.4587541e-08
6.4622592e-08
6.4656917e-08
6.4690395e-08
6.4722987e-08
6.4754671e-08
6.4785432e-08
6.4815259e-08
6.4844142e-08
6.4872081e-08
6.4899087e-08
6.4925163e-08
6.4950289e-08
6.497442e-08
6.4997519e-08
6.5019565e-08
6.5040543e-08
6.5060442e-08
6.5079251e-08
6.5096957e-08
6.5113564e-08
6.512907e-08
6.5143461e-08
6.5156716e-08
6.5168805e-08
6.5179697e-08
6.5189341e-08
6.519769e-08
6.5204668e-08
6.5210226e-08
6.5214183e-08
6.5216462e-08
6.5217042e-08
6.5215936e-08
6.5213127e-08
6.5208586e-08
6.5202089e-08
6.5193163e-08
6.5178745e-08
6.5157171e-08
6.5135096e-08
6.511501e-08
6.5105541e-08
6.5110963e-08
6.5131361e-08
6.5170758e-08
6.5225206e-08
6.5328013e-08
6.5662653e-08
6.6706146e-08
7.0655579e-08
8.2994493e-08
1.2519902e-07
2.4383492e-07
5.0908877e-07
9.8870376e-07
1.7775279e-06
2.6830631e-06
3.5788368e-06
4.593745e-06
5.8768414e-06
7.4317051e-06
9.2989061e-06
1.1470328e-05
1.3924307e-05
1.5619761e-05
1.7288304e-05
1.9084919e-05
2.0979381e-05
2.2980959e-05
2.5045834e-05
2.7132579e-05
2.91821e-05
3.1302008e-05
3.3474667e-05
3.5644065e-05
3.7783849e-05
3.9903521e-05
4.2004547e-05
4.4073089e-05
4.6101398e-05
4.8081417e-05
5.0013701e-05
5.1889731e-05
5.3702547e-05
5.5461312e-05
5.714928e-05
5.8763217e-05
6.0310471e-05
6.1799686e-05
6.3239165e-05
6.4525462e-05
6.5709684e-05
6.6851019e-05
6.7941825e-05
6.9027369e-05
6.9914218e-05
7.1428677e-05
6.455301e-08
6.4586828e-08
6.4622187e-08
6.465727e-08
6.4691628e-08
6.4725141e-08
6.4757769e-08
6.478949e-08
6.4820291e-08
6.4850159e-08
6.4879087e-08
6.4907073e-08
6.4934127e-08
6.4960254e-08
6.4985444e-08
6.5009661e-08
6.503287e-08
6.5055047e-08
6.5076175e-08
6.5096238e-08
6.5115219e-08
6.5133104e-08
6.5149879e-08
6.5165533e-08
6.5180055e-08
6.5193434e-08
6.5205659e-08
6.5216719e-08
6.5226602e-08
6.52353e-08
6.5242803e-08
6.52491e-08
6.5254199e-08
6.5258089e-08
6.5260749e-08
6.5262154e-08
6.5262272e-08
6.5261059e-08
6.5258448e-08
6.5254358e-08
6.5248656e-08
6.5241093e-08
6.5231575e-08
6.5220029e-08
6.5206439e-08
6.519035e-08
6.5169312e-08
6.5136385e-08
6.5102244e-08
6.507461e-08
6.5066482e-08
6.5079571e-08
6.5120665e-08
6.5175671e-08
6.5313857e-08
6.5790385e-08
6.7769733e-08
7.4763396e-08
1.0233517e-07
1.9448632e-07
4.3481325e-07
9.0018254e-07
1.739596e-06
2.7407119e-06
3.7524218e-06
4.8990798e-06
6.3702911e-06
8.1743082e-06
1.0340117e-05
1.2821017e-05
1.5558765e-05
1.7414536e-05
1.9240803e-05
2.1195359e-05
2.3254554e-05
2.5422749e-05
2.7658492e-05
2.9895502e-05
3.2173873e-05
3.4533023e-05
3.6929776e-05
3.9308535e-05
4.1684348e-05
4.4064583e-05
4.6430783e-05
4.8753266e-05
5.1025649e-05
5.3255284e-05
5.5445263e-05
5.7572888e-05
5.9635004e-05
6.1632717e-05
6.3567274e-05
6.5422975e-05
6.7197156e-05
6.8898851e-05
7.0531728e-05
7.213533e-05
7.3352464e-05
7.5387819e-05
6.4591315e-08
6.4625142e-08
6.4660509e-08
6.4695599e-08
6.4729962e-08
6.4763478e-08
6.4796107e-08
6.4827829e-08
6.4858628e-08
6.4888491e-08
6.4917411e-08
6.4945383e-08
6.4972409e-08
6.4998492e-08
6.502362e-08
6.5047764e-08
6.5070894e-08
6.5092988e-08
6.5114032e-08
6.5134011e-08
6.515291e-08
6.5170716e-08
6.5187416e-08
6.5202997e-08
6.5217448e-08
6.5230757e-08
6.524291e-08
6.5253897e-08
6.5263706e-08
6.5272329e-08
6.5279755e-08
6.5285978e-08
6.529099e-08
6.5294786e-08
6.5297362e-08
6.5298714e-08
6.529884e-08
6.5297735e-08
6.5295397e-08
6.5291822e-08
6.5287015e-08
6.5280995e-08
6.5273749e-08
6.5265251e-08
6.5255436e-08
6.5244189e-08
6.5231377e-08
6.5216557e-08
6.5199501e-08
6.5180206e-08
6.5158136e-08
6.5132259e-08
6.50902e-08
6.5046194e-08
6.5014773e-08
6.500416e-08
6.5026306e-08
6.5071977e-08
6.5165516e-08
6.5459223e-08
6.6974064e-08
7.2594398e-08
9.8045733e-08
1.9254626e-07
4.5987647e-07
9.873651e-07
1.9788615e-06
3.0540597e-06
4.2167148e-06
5.5938808e-06
7.3836468e-06
9.563446e-06
1.2148719e-05
1.5018851e-05
1.792936e-05
1.981804e-05
2.1840461e-05
2.3980304e-05
2.6237451e-05
2.859212e-05
3.0999835e-05
3.3416992e-05
3.594724e-05
3.8559052e-05
4.1174076e-05
4.3798251e-05
4.643798e-05
4.907284e-05
5.1681613e-05
5.4255015e-05
5.6791765e-05
5.9273089e-05
6.1687576e-05
6.4049338e-05
6.6350288e-05
6.8575517e-05
7.0722641e-05
7.2829698e-05
7.4659102e-05
7.7557238e-05
6.4639516e-08
6.4673347e-08
6.4708717e-08
6.4743807e-08
6.4778168e-08
6.481168e-08
6.4844302e-08
6.4876013e-08
6.4906798e-08
6.4936643e-08
6.4965539e-08
6.4993478e-08
6.5020457e-08
6.5046472e-08
6.5071511e-08
6.5095547e-08
6.5118553e-08
6.5140511e-08
6.5161406e-08
6.5181227e-08
6.5199958e-08
6.5217589e-08
6.5234106e-08
6.5249499e-08
6.5263756e-08
6.5276866e-08
6.5288816e-08
6.5299597e-08
6.5309197e-08
6.5317606e-08
6.5324817e-08
6.5330819e-08
6.5335605e-08
6.5339167e-08
6.53415e-08
6.5342598e-08
6.5342457e-08
6.5341073e-08
6.5338444e-08
6.5334569e-08
6.5329448e-08
6.5323084e-08
6.5315481e-08
6.5306644e-08
6.5296579e-08
6.5285289e-08
6.5272779e-08
6.5259094e-08
6.5244229e-08
6.5228146e-08
6.5210689e-08
6.5191751e-08
6.5170656e-08
6.5147144e-08
6.5120953e-08
6.5092552e-08
6.5053034e-08
6.5001406e-08
6.4953161e-08
6.4929459e-08
6.494229e-08
6.498567e-08
6.5072226e-08
6.5347161e-08
6.7016393e-08
7.3873093e-08
1.0812033e-07
2.4050118e-07
5.9679187e-07
1.3403607e-06
2.5288864e-06
3.7641761e-06
5.1532689e-06
6.9020097e-06
9.1590854e-06
1.19034e-05
1.4957335e-05
1.8202186e-05
2.0756137e-05
2.2886575e-05
2.5135623e-05
2.748951e-05
2.9964861e-05
3.2530889e-05
3.5092141e-05
3.7799541e-05
4.0618989e-05
4.3459661e-05
4.6326777e-05
4.9230079e-05
5.2144686e-05
5.5032447e-05
5.7883531e-05
6.0707091e-05
6.3485888e-05
6.620209e-05
6.8847006e-05
7.1453089e-05
7.3774468e-05
7.7496728e-05
6.4692878e-08
6.4726725e-08
6.4762113e-08
6.4797219e-08
6.4831596e-08
6.4865121e-08
6.4897755e-08
6.4929476e-08
6.4960269e-08
6.4990121e-08
6.5019019e-08
6.5046956e-08
6.5073926e-08
6.5099923e-08
6.5124933e-08
6.5148933e-08
6.5171898e-08
6.519381e-08
6.5214654e-08
6.5234418e-08
6.5253088e-08
6.5270651e-08
6.5287095e-08
6.5302409e-08
6.531658e-08
6.5329598e-08
6.5341451e-08
6.5352128e-08
6.5361619e-08
6.5369914e-08
6.5377003e-08
6.5382879e-08
6.5387534e-08
6.5390959e-08
6.5393149e-08
6.5394098e-08
6.53938e-08
6.5392252e-08
6.5389451e-08
6.5385393e-08
6.5380077e-08
6.5373503e-08
6.5365668e-08
6.5356576e-08
6.5346227e-08
6.5334624e-08
6.5321773e-08
6.530768e-08
6.5292358e-08
6.5275818e-08
6.5258073e-08
6.5239125e-08
6.5219039e-08
6.5197831e-08
6.5175395e-08
6.5151636e-08
6.5126079e-08
6.5098117e-08
6.5067281e-08
6.5034083e-08
6.499373e-08
6.4934796e-08
6.4877161e-08
6.4846867e-08
6.485858e-08
6.4907892e-08
6.4997559e-08
6.547601e-08
6.792834e-08
8.1933604e-08
1.4743073e-07
3.9070389e-07
9.5894348e-07
2.1225e-06
3.4496695e-06
4.9288328e-06
6.7557533e-06
9.1113492e-06
1.2062734e-05
1.5359689e-05
1.8840124e-05
2.2086577e-05
2.4356084e-05
2.6729831e-05
2.919427e-05
3.1802121e-05
3.4519706e-05
3.7248526e-05
4.0141234e-05
4.3169885e-05
4.6237934e-05
4.9354643e-05
5.2521176e-05
5.5705848e-05
5.8876095e-05
6.2024753e-05
6.5132047e-05
6.8222574e-05
7.0983152e-05
7.5492741e-05
6.474469e-08
6.4778564e-08
6.481398e-08
6.4849115e-08
6.488352e-08
6.4917073e-08
6.4949735e-08
6.4981483e-08
6.5012304e-08
6.5042182e-08
6.5071108e-08
6.509907e-08
6.5126064e-08
6.5152082e-08
6.5177111e-08
6.5201132e-08
6.5224122e-08
6.5246061e-08
6.5266934e-08
6.5286728e-08
6.5305429e-08
6.5323023e-08
6.5339497e-08
6.535484e-08
6.5369039e-08
6.5382082e-08
6.5393959e-08
6.5404657e-08
6.5414166e-08
6.5422477e-08
6.542958e-08
6.5435466e-08
6.5440126e-08
6.5443555e-08
6.5445744e-08
6.5446688e-08
6.5446383e-08
6.5444823e-08
6.5442005e-08
6.5437927e-08
6.5432586e-08
6.5425981e-08
6.5418112e-08
6.5408977e-08
6.539858e-08
6.538692e-08
6.5373999e-08
6.5359822e-08
6.5344391e-08
6.532771e-08
6.5309787e-08
6.5290628e-08
6.5270246e-08
6.5248657e-08
6.522588e-08
6.5201923e-08
6.5176825e-08
6.5150644e-08
6.5123349e-08
6.5094791e-08
6.5064632e-08
6.5032009e-08
6.4996237e-08
6.4958206e-08
6.4912028e-08
6.4844485e-08
6.4785761e-08
6.475588e-08
6.4777902e-08
6.4833102e-08
6.5021088e-08
6.5979084e-08
7.319909e-08
1.1350828e-07
2.8789097e-07
7.7105121e-07
1.9131758e-06
3.3299572e-06
4.9314581e-06
6.909391e-06
9.4405204e-06
1.2686252e-05
1.6283709e-05
2.003097e-05
2.3816786e-05
2.6254693e-05
2.8765579e-05
3.1362499e-05
3.4114347e-05
3.6989165e-05
3.9892812e-05
4.2999338e-05
4.6255407e-05
4.9566567e-05
5.2946574e-05
5.6389787e-05
5.9844565e-05
6.3341801e-05
6.6488187e-05
7.1727877e-05
6.4793223e-08
6.4827123e-08
6.4862566e-08
6.489773e-08
6.4932162e-08
6.4965744e-08
6.4998433e-08
6.503021e-08
6.5061058e-08
6.5090964e-08
6.5119917e-08
6.5147906e-08
6.5174926e-08
6.5200967e-08
6.5226019e-08
6.5250064e-08
6.527308e-08
6.529505e-08
6.5315957e-08
6.5335787e-08
6.5354525e-08
6.5372158e-08
6.5388673e-08
6.5404058e-08
6.5418299e-08
6.5431385e-08
6.5443305e-08
6.5454047e-08
6.54636e-08
6.5471954e-08
6.54791e-08
6.5485028e-08
6.5489731e-08
6.5493202e-08
6.5495432e-08
6.5496417e-08
6.5496151e-08
6.549463e-08
6.5491851e-08
6.5487809e-08
6.5482505e-08
6.5475935e-08
6.54681e-08
6.5459e-08
6.5448635e-08
6.5437007e-08
6.5424118e-08
6.540997e-08
6.5394568e-08
6.5377915e-08
6.5360015e-08
6.5340874e-08
6.5320498e-08
6.5298892e-08
6.5276064e-08
6.5252023e-08
6.5226781e-08
6.5200357e-08
6.5172773e-08
6.5144048e-08
6.51142e-08
6.5083326e-08
6.5051404e-08
6.5018271e-08
6.4983541e-08
6.4946054e-08
6.4905342e-08
6.4862501e-08
6.4804003e-08
6.4728526e-08
6.4682218e-08
6.4673748e-08
6.4713107e-08
6.485339e-08
6.5305077e-08
7.0058081e-08
1.0164487e-07
2.4930833e-07
7.0785837e-07
1.9029024e-06
3.4340215e-06
5.1971451e-06
7.4003106e-06
1.0232318e-05
1.3852813e-05
1.779653e-05
2.1831832e-05
2.5883405e-05
2.8565869e-05
3.1232216e-05
3.3992088e-05
3.6920875e-05
3.99698e-05
4.3090521e-05
4.6433841e-05
4.9922246e-05
5.348499e-05
5.7206343e-05
6.0598307e-05
6.6413713e-05
6.4838611e-08
6.4872535e-08
6.4908004e-08
6.4943193e-08
6.4977651e-08
6.5011257e-08
6.5043972e-08
6.5075773e-08
6.5106646e-08
6.5136577e-08
6.5165554e-08
6.5193567e-08
6.5220608e-08
6.5246669e-08
6.5271739e-08
6.5295801e-08
6.5318838e-08
6.5340829e-08
6.5361759e-08
6.5381613e-08
6.5400378e-08
6.5418038e-08
6.5434581e-08
6.5449993e-08
6.5464264e-08
6.5477379e-08
6.5489329e-08
6.55001e-08
6.5509683e-08
6.5518067e-08
6.5525243e-08
6.5531202e-08
6.5535935e-08
6.5539435e-08
6.5541695e-08
6.5542709e-08
6.5542473e-08
6.5540981e-08
6.5538231e-08
6.5534219e-08
6.5528943e-08
6.5522403e-08
6.5514597e-08
6.5505526e-08
6.5495191e-08
6.5483593e-08
6.5470734e-08
6.5456618e-08
6.5441247e-08
6.5424626e-08
6.540676e-08
6.5387654e-08
6.5367314e-08
6.5345746e-08
6.5322956e-08
6.5298953e-08
6.5273744e-08
6.5247336e-08
6.521974e-08
6.5190966e-08
6.5161028e-08
6.5129946e-08
6.509775e-08
6.5064461e-08
6.5030101e-08
6.4994798e-08
6.4958457e-08
6.4920976e-08
6.4881519e-08
6.4838992e-08
6.4792878e-08
6.4744882e-08
6.466649e-08
6.4595773e-08
6.4560041e-08
6.4591906e-08
6.4718204e-08
6.5002313e-08
6.908026e-08
1.005693e-07
2.5331734e-07
7.5511056e-07
2.1112047e-06
3.8087691e-06
5.7777575e-06
8.2898835e-06
1.1605795e-05
1.5648294e-05
1.9947717e-05
2.4269447e-05
2.8540604e-05
3.1348677e-05
3.4176167e-05
3.7119948e-05
4.0239346e-05
4.3466695e-05
4.6844354e-05
5.0526405e-05
5.389999e-05
5.9976746e-05
6.4881091e-08
6.4915037e-08
6.4950529e-08
6.4985742e-08
6.5020224e-08
6.5053854e-08
6.5086592e-08
6.5118416e-08
6.5149312e-08
6.5179265e-08
6.5208264e-08
6.5236298e-08
6.5263359e-08
6.5289437e-08
6.5314523e-08
6.53386e-08
6.5361652e-08
6.5383659e-08
6.5404607e-08
6.542448e-08
6.5443264e-08
6.5460944e-08
6.5477507e-08
6.549294e-08
6.5507231e-08
6.5520368e-08
6.5532338e-08
6.554313e-08
6.5552733e-08
6.5561137e-08
6.5568333e-08
6.5574312e-08
6.5579064e-08
6.5582583e-08
6.5584862e-08
6.5585894e-08
6.5585676e-08
6.5584201e-08
6.5581468e-08
6.5577473e-08
6.5572213e-08
6.5565689e-08
6.5557899e-08
6.5548843e-08
6.5538523e-08
6.552694e-08
6.5514096e-08
6.5499995e-08
6.5484639e-08
6.5468034e-08
6.5450183e-08
6.5431093e-08
6.5410769e-08
6.5389218e-08
6.5366447e-08
6.5342462e-08
6.5317273e-08
6.5290888e-08
6.5263316e-08
6.5234566e-08
6.5204648e-08
6.5173574e-08
6.5141353e-08
6.5108e-08
6.507353e-08
6.5037969e-08
6.5001353e-08
6.4963697e-08
6.4925063e-08
6.4885588e-08
6.4844995e-08
6.4803146e-08
6.4758789e-08
6.4709458e-08
6.4662273e-08
6.457881e-08
6.4494764e-08
6.4447535e-08
6.4470778e-08
6.4612136e-08
6.4836453e-08
6.9637396e-08
1.0981129e-07
3.0402272e-07
9.5070297e-07
2.5612848e-06
4.4866794e-06
6.7949036e-06
9.7626592e-06
1.3648562e-05
1.8132147e-05
2.277155e-05
2.7376846e-05
3.1587821e-05
3.4576048e-05
3.7598729e-05
4.0763452e-05
4.4157699e-05
4.72233e-05
5.3137082e-05
6.4920854e-08
6.4954822e-08
6.4990336e-08
6.5025571e-08
6.5060075e-08
6.5093727e-08
6.5126486e-08
6.5158332e-08
6.5189249e-08
6.5219223e-08
6.5248242e-08
6.5276296e-08
6.5303374e-08
6.5329469e-08
6.5354568e-08
6.5378658e-08
6.5401722e-08
6.5423743e-08
6.5444704e-08
6.5464592e-08
6.548339e-08
6.5501086e-08
6.5517664e-08
6.5533113e-08
6.554742e-08
6.5560572e-08
6.5572558e-08
6.5583365e-08
6.5592983e-08
6.5601403e-08
6.5608613e-08
6.5614605e-08
6.5619372e-08
6.5622904e-08
6.5625196e-08
6.5626241e-08
6.5626034e-08
6.5624571e-08
6.5621848e-08
6.5617863e-08
6.5612614e-08
6.5606099e-08
6.5598317e-08
6.558927e-08
6.5578958e-08
6.5567382e-08
6.5554545e-08
6.554045e-08
6.5525101e-08
6.5508501e-08
6.5490656e-08
6.5471571e-08
6.5451252e-08
6.5429706e-08
6.5406939e-08
6.538296e-08
6.5357775e-08
6.5331395e-08
6.5303828e-08
6.5275083e-08
6.5245172e-08
6.5214106e-08
6.5181894e-08
6.514855e-08
6.5114085e-08
6.5078511e-08
6.5041843e-08
6.5004095e-08
6.4965287e-08
6.4925454e-08
6.4884642e-08
6.4842823e-08
6.4800231e-08
6.4756655e-08
6.4712246e-08
6.4665443e-08
6.4613156e-08
6.456335e-08
6.4479305e-08
6.4388568e-08
6.4333768e-08
6.4370267e-08
6.4493782e-08
6.5008665e-08
7.2645433e-08
1.3697763e-07
4.2736626e-07
1.4647842e-06
3.3058136e-06
5.4951669e-06
8.2591522e-06
1.1920504e-05
1.6444798e-05
2.1386281e-05
2.6335383e-05
3.1228487e-05
3.5159558e-05
3.8361245e-05
4.1275094e-05
4.670939e-05
6.4958078e-08
6.4992065e-08
6.50276e-08
6.5062856e-08
6.509738e-08
6.5131052e-08
6.5163832e-08
6.5195697e-08
6.5226633e-08
6.5256627e-08
6.5285665e-08
6.5313736e-08
6.5340831e-08
6.536694e-08
6.5392051e-08
6.5416152e-08
6.5439226e-08
6.5461257e-08
6.5482229e-08
6.5502127e-08
6.5520937e-08
6.5538644e-08
6.5555234e-08
6.5570694e-08
6.5585012e-08
6.5598176e-08
6.5610172e-08
6.562099e-08
6.5630619e-08
6.5639049e-08
6.564627e-08
6.5652272e-08
6.5657047e-08
6.5660589e-08
6.5662889e-08
6.5663942e-08
6.5663743e-08
6.5662287e-08
6.5659571e-08
6.5655592e-08
6.5650348e-08
6.5643838e-08
6.5636061e-08
6.5627018e-08
6.5616709e-08
6.5605136e-08
6.5592301e-08
6.5578208e-08
6.556286e-08
6.5546261e-08
6.5528417e-08
6.5509331e-08
6.5489012e-08
6.5467465e-08
6.5444697e-08
6.5420715e-08
6.5395529e-08
6.5369146e-08
6.5341576e-08
6.5312829e-08
6.5282915e-08
6.5251845e-08
6.521963e-08
6.5186283e-08
6.5151816e-08
6.5116241e-08
6.5079572e-08
6.5041822e-08
6.5003006e-08
6.4963136e-08
6.4922231e-08
6.4880306e-08
6.4837388e-08
6.4793544e-08
6.4748725e-08
6.4703207e-08
6.4656844e-08
6.4609724e-08
6.4560579e-08
6.4504968e-08
6.4454576e-08
6.4357918e-08
6.427698e-08
6.4196188e-08
6.439193e-08
6.3978487e-08
6.5795628e-08
8.3712321e-08
2.1023339e-07
7.1230638e-07
2.3140674e-06
4.5005935e-06
7.1045975e-06
1.0503084e-05
1.4993152e-05
2.011729e-05
2.541092e-05
3.0746746e-05
3.5416133e-05
4.0855125e-05
6.4992925e-08
6.5026931e-08
6.5062485e-08
6.509776e-08
6.5132303e-08
6.5165994e-08
6.5198792e-08
6.5230676e-08
6.526163e-08
6.5291641e-08
6.5320696e-08
6.5348784e-08
6.5375893e-08
6.5402015e-08
6.5427137e-08
6.5451246e-08
6.5474329e-08
6.5496368e-08
6.5517348e-08
6.5537253e-08
6.5556071e-08
6.5573785e-08
6.5590383e-08
6.5605851e-08
6.5620177e-08
6.5633348e-08
6.5645351e-08
6.5656177e-08
6.5665812e-08
6.5674248e-08
6.5681475e-08
6.5687483e-08
6.5692264e-08
6.569581e-08
6.5698115e-08
6.5699172e-08
6.5698977e-08
6.5697525e-08
6.5694811e-08
6.5690835e-08
6.5685592e-08
6.5679083e-08
6.5671307e-08
6.5662263e-08
6.5651954e-08
6.564038e-08
6.5627544e-08
6.5613449e-08
6.5598098e-08
6.5581495e-08
6.5563647e-08
6.5544557e-08
6.5524233e-08
6.5502681e-08
6.5479907e-08
6.5455919e-08
6.5430726e-08
6.5404336e-08
6.5376759e-08
6.5348003e-08
6.5318081e-08
6.5287002e-08
6.5254778e-08
6.5221421e-08
6.5186944e-08
6.5151359e-08
6.511468e-08
6.5076921e-08
6.5038095e-08
6.4998218e-08
6.4957304e-08
6.4915369e-08
6.4872427e-08
6.4828495e-08
6.4783589e-08
6.4737733e-08
6.4691006e-08
6.4643356e-08
6.4595083e-08
6.4545958e-08
6.4496443e-08
6.4444156e-08
6.4385986e-08
6.4332728e-08
6.4216759e-08
6.4136417e-08
6.4102258e-08
6.422937e-08
6.4274976e-08
6.8738946e-08
1.1788536e-07
3.9664882e-07
1.4539731e-06
3.523721e-06
6.0793827e-06
9.3470098e-06
1.3754904e-05
1.9153915e-05
2.4231751e-05
3.2982554e-05
6.5025552e-08
6.5059575e-08
6.5095147e-08
6.513044e-08
6.5165001e-08
6.519871e-08
6.5231525e-08
6.5263426e-08
6.5294397e-08
6.5324424e-08
6.5353494e-08
6.5381596e-08
6.5408719e-08
6.5434852e-08
6.5459983e-08
6.54841e-08
6.5507189e-08
6.5529233e-08
6.5550219e-08
6.557013e-08
6.5588952e-08
6.5606671e-08
6.5623274e-08
6.5638746e-08
6.5653076e-08
6.566625e-08
6.5678258e-08
6.5689086e-08
6.5698725e-08
6.5707164e-08
6.5714393e-08
6.5720403e-08
6.5725186e-08
6.5728734e-08
6.573104e-08
6.5732098e-08
6.5731903e-08
6.573045e-08
6.5727736e-08
6.5723758e-08
6.5718514e-08
6.5712002e-08
6.5704223e-08
6.5695176e-08
6.5684863e-08
6.5673284e-08
6.5660443e-08
6.5646341e-08
6.5630984e-08
6.5614375e-08
6.5596518e-08
6.5577421e-08
6.5557088e-08
6.5535526e-08
6.5512742e-08
6.5488744e-08
6.546354e-08
6.5437138e-08
6.5409548e-08
6.5380781e-08
6.5350845e-08
6.5319753e-08
6.5287515e-08
6.5254144e-08
6.5219651e-08
6.5184051e-08
6.5147356e-08
6.510958e-08
6.5070738e-08
6.5030844e-08
6.4989914e-08
6.4947962e-08
6.4905005e-08
6.4861058e-08
6.4816138e-08
6.4770258e-08
6.4723439e-08
6.4675695e-08
6.4627047e-08
6.4577594e-08
6.4527236e-08
6.4476451e-08
6.4424539e-08
6.4373384e-08
6.4315308e-08
6.4259415e-08
6.4192937e-08
6.4092053e-08
6.3981865e-08
6.4177615e-08
6.3581565e-08
6.5299673e-08
8.2963847e-08
2.2796714e-07
8.5968406e-07
2.7834868e-06
5.3165405e-06
8.7397252e-06
1.2255487e-05
2.1166144e-05
6.5056118e-08
6.5090157e-08
6.5125746e-08
6.5161056e-08
6.5195634e-08
6.5229358e-08
6.5262189e-08
6.5294106e-08
6.5325092e-08
6.5355134e-08
6.5384218e-08
6.5412334e-08