/*--------------------------------*- C++ -*----------------------------------*\
  =========                 |
  \\      /  F ield         | OpenFOAM: The Open Source CFD Toolbox
   \\    /   O peration     | Website:  https://openfoam.org
    \\  /    A nd           | Version:  12
     \\/     M anipulation  |
\*---------------------------------------------------------------------------*/
FoamFile
{
    format      ascii;
    class       volScalarField;
    location    "300";
    object      nut;
}
// * * * * * * * * * * * * * * * * * * * * * * * * * * * * * * * * * * * * * //

dimensions      [0 2 -1 0 0 0 0];

internalField   nonuniform List<scalar> 
13056
(
1.962298e-07
1.7004636e-07
1.6518306e-07
1.6291642e-07
1.6184632e-07
1.6135813e-07
1.6110567e-07
1.6095204e-07
1.6084947e-07
1.6077852e-07
1.6072937e-07
1.6069622e-07
1.6067551e-07
1.6066483e-07
1.6066256e-07
1.6066773e-07
1.6067983e-07
1.6069885e-07
1.607252e-07
1.6075862e-07
1.6081496e-07
1.6085447e-07
1.6098366e-07
1.4235e-07
3.8915221e-16
1.0864374e-15
1.966924e-15
2.1917744e-15
2.1285922e-15
2.0042152e-15
1.8917833e-15
1.7969193e-15
1.714904e-15
1.6432049e-15
1.5801244e-15
1.5240885e-15
1.4724609e-15
1.4251841e-15
1.3818534e-15
1.3421341e-15
1.3056381e-15
1.2718822e-15
1.2405279e-15
1.2113249e-15
1.1839612e-15
1.158272e-15
1.1340823e-15
1.1112515e-15
1.0896634e-15
1.0691773e-15
1.0497304e-15
1.0312068e-15
1.0135055e-15
9.9659198e-16
9.8039096e-16
9.6483005e-16
9.4988349e-16
9.3549834e-16
9.216129e-16
9.0820891e-16
8.9525672e-16
8.8270905e-16
8.7053828e-16
8.5873362e-16
8.4717452e-16
8.3589493e-16
8.2491212e-16
8.1421471e-16
8.0377945e-16
7.9358491e-16
7.8362345e-16
7.7388383e-16
7.6434524e-16
7.5499176e-16
7.4582004e-16
7.368228e-16
7.2798173e-16
7.1928485e-16
7.1072962e-16
7.0231342e-16
6.940228e-16
6.8584418e-16
6.777733e-16
6.6981435e-16
6.6195789e-16
6.5418664e-16
6.4649579e-16
6.3889056e-16
6.3136733e-16
6.2391253e-16
6.1651737e-16
6.0918418e-16
6.0191474e-16
5.9469744e-16
5.8751998e-16
5.8038273e-16
5.7329103e-16
5.6623496e-16
5.5920072e-16
5.5218587e-16
5.4519356e-16
5.3822079e-16
5.3125342e-16
5.2429167e-16
5.1733993e-16
5.1038642e-16
5.0341817e-16
4.9643969e-16
4.8944862e-16
4.8242914e-16
4.7537642e-16
4.6829309e-16
4.6116784e-16
4.5414213e-16
4.4744649e-16
4.4112355e-16
4.3509958e-16
4.2939287e-16
4.2398354e-16
4.1884198e-16
4.139422e-16
4.0926959e-16
4.0481125e-16
4.0054835e-16
3.9646224e-16
3.9254034e-16
3.8877562e-16
3.8515861e-16
3.8167658e-16
3.7831417e-16
3.7506642e-16
3.7190603e-16
3.6887098e-16
3.657847e-16
3.6305236e-16
3.5862749e-16
1.9622867e-07
1.7003583e-07
1.6516433e-07
1.6289477e-07
1.6182296e-07
1.6133397e-07
1.6108105e-07
1.6092711e-07
1.6082433e-07
1.6075323e-07
1.6070396e-07
1.6067072e-07
1.6064993e-07
1.6063919e-07
1.6063688e-07
1.6064201e-07
1.6065407e-07
1.6067307e-07
1.6069939e-07
1.6073283e-07
1.607891e-07
1.6082844e-07
1.6095802e-07
1.4350815e-07
2.128361e-14
1.9065725e-13
3.4519631e-13
3.8466038e-13
3.7357361e-13
3.5174693e-13
3.3201631e-13
3.1536851e-13
3.0097545e-13
2.8839268e-13
2.7732238e-13
2.674883e-13
2.584278e-13
2.5013082e-13
2.4252632e-13
2.3555558e-13
2.291505e-13
2.2322628e-13
2.1772353e-13
2.1259832e-13
2.0779591e-13
2.0328736e-13
1.9904196e-13
1.9503507e-13
1.9124626e-13
1.8765085e-13
1.8423783e-13
1.8098683e-13
1.7788016e-13
1.7491176e-13
1.720684e-13
1.6933738e-13
1.6671419e-13
1.6418953e-13
1.6175257e-13
1.594001e-13
1.5712694e-13
1.5492477e-13
1.5278875e-13
1.50717e-13
1.4868837e-13
1.4670877e-13
1.4478126e-13
1.4290383e-13
1.4107241e-13
1.3928325e-13
1.3753499e-13
1.3582567e-13
1.3415163e-13
1.3251008e-13
1.3090043e-13
1.2932141e-13
1.277698e-13
1.2624349e-13
1.2474204e-13
1.23265e-13
1.2180999e-13
1.2037465e-13
1.189582e-13
1.1756141e-13
1.161826e-13
1.1481874e-13
1.13469e-13
1.1213427e-13
1.1081394e-13
1.0950562e-13
1.0820777e-13
1.0692078e-13
1.0564499e-13
1.0437834e-13
1.0311869e-13
1.0186608e-13
1.0062147e-13
9.9383109e-14
9.8148577e-14
9.6917447e-14
9.5690259e-14
9.4466498e-14
9.3243682e-14
9.2021845e-14
9.080176e-14
8.9581358e-14
8.8358365e-14
8.7133568e-14
8.5906554e-14
8.4674549e-14
8.3436701e-14
8.2193473e-14
8.0942879e-14
7.9709747e-14
7.8534539e-14
7.7424727e-14
7.636739e-14
7.5365737e-14
7.4416274e-14
7.3513807e-14
7.2653771e-14
7.1833607e-14
7.1051049e-14
7.0302793e-14
6.9585566e-14
6.8897159e-14
6.823634e-14
6.7601448e-14
6.6990247e-14
6.6400039e-14
6.5829956e-14
6.5275207e-14
6.4742457e-14
6.4200717e-14
6.3721097e-14
6.294438e-14
1.962265e-07
1.7000473e-07
1.651076e-07
1.6282864e-07
1.6175164e-07
1.6126004e-07
1.610056e-07
1.6085072e-07
1.6074727e-07
1.6067568e-07
1.6062604e-07
1.605925e-07
1.6057149e-07
1.6056056e-07
1.6055809e-07
1.6056309e-07
1.6057504e-07
1.6059393e-07
1.606202e-07
1.6065355e-07
1.6070972e-07
1.6074858e-07
1.6087879e-07
1.4474106e-07
2.9765224e-13
4.0700733e-12
7.3695749e-12
8.2120962e-12
7.9756769e-12
7.5099992e-12
7.0890071e-12
6.7337671e-12
6.4266184e-12
6.1580865e-12
5.9218218e-12
5.7119323e-12
5.5185453e-12
5.341449e-12
5.1791286e-12
5.0303318e-12
4.8936064e-12
4.7671425e-12
4.6496732e-12
4.5402613e-12
4.437739e-12
4.3414883e-12
4.2508541e-12
4.1653105e-12
4.0844216e-12
4.0076608e-12
3.934793e-12
3.8653838e-12
3.7990553e-12
3.7356782e-12
3.6749705e-12
3.6166608e-12
3.5606527e-12
3.5067482e-12
3.4547158e-12
3.4044871e-12
3.3559512e-12
3.3089311e-12
3.2633231e-12
3.2190871e-12
3.1757725e-12
3.1335038e-12
3.0923468e-12
3.0522591e-12
3.0131537e-12
2.9749504e-12
2.9376203e-12
2.9011215e-12
2.865376e-12
2.8303241e-12
2.7959532e-12
2.762236e-12
2.7291041e-12
2.6965125e-12
2.6644515e-12
2.6329114e-12
2.6018419e-12
2.5711921e-12
2.5409458e-12
2.5111188e-12
2.4816758e-12
2.452552e-12
2.4237294e-12
2.3952274e-12
2.3670325e-12
2.339094e-12
2.3113789e-12
2.2838958e-12
2.2566514e-12
2.2296023e-12
2.2027023e-12
2.1759527e-12
2.1493736e-12
2.1229278e-12
2.0965637e-12
2.070272e-12
2.0440642e-12
2.0179293e-12
1.9918145e-12
1.9657204e-12
1.9396634e-12
1.9135994e-12
1.8874799e-12
1.8613215e-12
1.8351156e-12
1.8088028e-12
1.782365e-12
1.7558119e-12
1.7291013e-12
1.7027633e-12
1.6776621e-12
1.6539573e-12
1.6313732e-12
1.6099782e-12
1.5896979e-12
1.5704212e-12
1.5520507e-12
1.5345317e-12
1.5178159e-12
1.5018327e-12
1.4865121e-12
1.4718071e-12
1.4576913e-12
1.4441293e-12
1.4310733e-12
1.4184657e-12
1.4062878e-12
1.3944375e-12
1.3830571e-12
1.3714846e-12
1.3612389e-12
1.3446467e-12
1.962231e-07
1.6995248e-07
1.650114e-07
1.6271604e-07
1.6163027e-07
1.6113412e-07
1.6087709e-07
1.6072059e-07
1.6061601e-07
1.6054358e-07
1.604933e-07
1.6045926e-07
1.6043784e-07
1.6042658e-07
1.6042384e-07
1.6042861e-07
1.6044036e-07
1.6045908e-07
1.6048522e-07
1.6051842e-07
1.6057438e-07
1.6061242e-07
1.607438e-07
1.4592178e-07
1.9703602e-12
3.2716458e-11
5.9246803e-11
6.6019656e-11
6.4128122e-11
6.0394544e-11
5.7018067e-11
5.4168066e-11
5.1703165e-11
4.9547661e-11
4.7650802e-11
4.5965417e-11
4.4412278e-11
4.2989783e-11
4.1685815e-11
4.0490359e-11
3.9391778e-11
3.8375552e-11
3.7431524e-11
3.6552179e-11
3.5728148e-11
3.4954472e-11
3.4225895e-11
3.3538197e-11
3.2887883e-11
3.2270725e-11
3.1684836e-11
3.1126729e-11
3.0593369e-11
3.0083721e-11
2.9595518e-11
2.912658e-11
2.8676137e-11
2.8242595e-11
2.7824095e-11
2.7420089e-11
2.7029687e-11
2.6651465e-11
2.628459e-11
2.5928743e-11
2.5580302e-11
2.5240259e-11
2.4909149e-11
2.4586634e-11
2.4272013e-11
2.3964643e-11
2.366429e-11
2.3370618e-11
2.3083001e-11
2.2800959e-11
2.2524389e-11
2.2253074e-11
2.1986463e-11
2.1724194e-11
2.1466189e-11
2.121237e-11
2.0962333e-11
2.0715669e-11
2.0472246e-11
2.0232193e-11
1.9995225e-11
1.9760823e-11
1.9528838e-11
1.9299429e-11
1.9072487e-11
1.8847604e-11
1.8624515e-11
1.8403289e-11
1.8183979e-11
1.7966236e-11
1.774969e-11
1.7534349e-11
1.7320376e-11
1.7107471e-11
1.689522e-11
1.6683547e-11
1.6472543e-11
1.6262122e-11
1.6051857e-11
1.5841754e-11
1.5631944e-11
1.5422074e-11
1.521175e-11
1.5001108e-11
1.4790078e-11
1.4578182e-11
1.4365273e-11
1.4151431e-11
1.3936313e-11
1.372419e-11
1.3522024e-11
1.3331096e-11
1.314919e-11
1.297686e-11
1.2813503e-11
1.2658228e-11
1.2510249e-11
1.2369126e-11
1.2234471e-11
1.2105715e-11
1.1982295e-11
1.1863832e-11
1.1750114e-11
1.1640856e-11
1.1535673e-11
1.1434101e-11
1.1335989e-11
1.1240516e-11
1.1148827e-11
1.1055591e-11
1.0973042e-11
1.0839357e-11
1.9621823e-07
1.6987833e-07
1.6487351e-07
1.62554e-07
1.6145568e-07
1.609529e-07
1.6069211e-07
1.6053325e-07
1.6042702e-07
1.6035337e-07
1.6030215e-07
1.6026737e-07
1.6024536e-07
1.6023362e-07
1.6023048e-07
1.6023492e-07
1.6024638e-07
1.6026484e-07
1.6029076e-07
1.6032373e-07
1.603794e-07
1.6041654e-07
1.6054929e-07
1.4702293e-07
8.4921783e-12
1.5856318e-10
2.8726295e-10
3.2010435e-10
3.1105914e-10
2.9309577e-10
2.7683438e-10
2.6309677e-10
2.5120566e-10
2.408002e-10
2.3163838e-10
2.2349416e-10
2.1598536e-10
2.0910556e-10
2.0279691e-10
1.970115e-10
1.9169344e-10
1.8677278e-10
1.8220061e-10
1.7794077e-10
1.7394808e-10
1.7019865e-10
1.6666714e-10
1.633332e-10
1.6017999e-10
1.5718709e-10
1.5434541e-10
1.5163811e-10
1.4905051e-10
1.4657764e-10
1.4420854e-10
1.4193267e-10
1.3974632e-10
1.3764177e-10
1.3561003e-10
1.3364847e-10
1.3175277e-10
1.2991604e-10
1.2813426e-10
1.264059e-10
1.2471337e-10
1.2306145e-10
1.214528e-10
1.1988577e-10
1.1835699e-10
1.1686331e-10
1.1540364e-10
1.1397633e-10
1.1257835e-10
1.1120737e-10
1.0986289e-10
1.0854387e-10
1.0724764e-10
1.0597243e-10
1.0471787e-10
1.0348358e-10
1.0226762e-10
1.0106797e-10
9.9884019e-11
9.871638e-11
9.7563682e-11
9.6423389e-11
9.529479e-11
9.4178647e-11
9.3074444e-11
9.1980197e-11
9.0894612e-11
8.9818023e-11
8.8750697e-11
8.769094e-11
8.6636939e-11
8.5588739e-11
8.4547134e-11
8.3510674e-11
8.2477328e-11
8.1446738e-11
8.0419332e-11
7.9394706e-11
7.8370777e-11
7.7347565e-11
7.6325723e-11
7.5303519e-11
7.4279043e-11
7.3252948e-11
7.2224895e-11
7.1192557e-11
7.0155214e-11
6.9113251e-11
6.8065003e-11
6.7031276e-11
6.6046002e-11
6.5115429e-11
6.4228774e-11
6.3388744e-11
6.2592416e-11
6.1835442e-11
6.1113999e-11
6.0425951e-11
5.9769406e-11
5.9141598e-11
5.8539784e-11
5.7962114e-11
5.7407565e-11
5.6874747e-11
5.6361782e-11
5.5866408e-11
5.5387899e-11
5.4922243e-11
5.447503e-11
5.4020264e-11
5.3617603e-11
5.2965487e-11
1.9621148e-07
1.6978149e-07
1.6469096e-07
1.6233871e-07
1.6122368e-07
1.6071196e-07
1.6044609e-07
1.6028405e-07
1.601756e-07
1.601003e-07
1.6004781e-07
1.6001204e-07
1.5998924e-07
1.5997685e-07
1.5997317e-07
1.5997714e-07
1.5998821e-07
1.6000632e-07
1.6003193e-07
1.6006459e-07
1.6011986e-07
1.6015597e-07
1.6029071e-07
1.4803444e-07
2.7790726e-11
5.6739739e-10
1.0289512e-09
1.146706e-09
1.1153214e-09
1.0520834e-09
9.9470774e-10
9.4614527e-10
9.0403382e-10
8.6712918e-10
8.3459619e-10
8.0564653e-10
7.7892675e-10
7.5442462e-10
7.3193987e-10
7.1130629e-10
6.9232784e-10
6.7475739e-10
6.5842261e-10
6.4319622e-10
6.2891813e-10
6.1550413e-10
6.0286464e-10
5.9092767e-10
5.7963373e-10
5.6891027e-10
5.5872531e-10
5.4901894e-10
5.39739e-10
5.3086796e-10
5.2236688e-10
5.141982e-10
5.0634883e-10
4.9879131e-10
4.9149357e-10
4.8444629e-10
4.7763411e-10
4.7103245e-10
4.6462697e-10
4.5841233e-10
4.5232523e-10
4.4638286e-10
4.4059502e-10
4.3495594e-10
4.2945347e-10
4.2407643e-10
4.1882088e-10
4.1368102e-10
4.0864593e-10
4.0370728e-10
3.9886334e-10
3.9411039e-10
3.8943881e-10
3.8484229e-10
3.8031951e-10
3.758692e-10
3.7148429e-10
3.671576e-10
3.6288686e-10
3.5867438e-10
3.5451523e-10
3.5040026e-10
3.463269e-10
3.4229793e-10
3.3831152e-10
3.3436051e-10
3.3044025e-10
3.2655192e-10
3.2269654e-10
3.1886799e-10
3.1505971e-10
3.1127186e-10
3.0750733e-10
3.0376091e-10
3.0002523e-10
2.9629901e-10
2.9258376e-10
2.8887806e-10
2.8517438e-10
2.8147277e-10
2.7777559e-10
2.740766e-10
2.7036886e-10
2.6665472e-10
2.6293297e-10
2.5919517e-10
2.5543869e-10
2.5166493e-10
2.4786784e-10
2.4412278e-10
2.4055274e-10
2.3718037e-10
2.339667e-10
2.3092165e-10
2.2803467e-10
2.2529006e-10
2.2267398e-10
2.2017874e-10
2.1779752e-10
2.1552031e-10
2.1333718e-10
2.1124146e-10
2.0922945e-10
2.0729613e-10
2.0543471e-10
2.0363699e-10
2.0190035e-10
2.0021024e-10
1.9858695e-10
1.9693621e-10
1.9547443e-10
1.9310688e-10
1.9620234e-07
1.6966125e-07
1.6446028e-07
1.6206559e-07
1.6092919e-07
1.604059e-07
1.6013348e-07
1.5996733e-07
1.59856e-07
1.5977857e-07
1.5972444e-07
1.5968738e-07
1.5966354e-07
1.596503e-07
1.5964592e-07
1.596493e-07
1.5965985e-07
1.596775e-07
1.597027e-07
1.5973495e-07
1.597897e-07
1.5982462e-07
1.5996252e-07
1.4894725e-07
7.469585e-11
1.6505173e-09
2.9990606e-09
3.3435746e-09
3.2577347e-09
3.0794578e-09
2.9169991e-09
2.77901e-09
2.6589434e-09
2.5534286e-09
2.4602015e-09
2.37708e-09
2.3002035e-09
2.2295947e-09
2.1647086e-09
2.1050895e-09
2.050189e-09
1.9993057e-09
1.951953e-09
1.9077721e-09
1.8663064e-09
1.827318e-09
1.7905523e-09
1.7558045e-09
1.7229058e-09
1.6916483e-09
1.6619419e-09
1.6336143e-09
1.6065159e-09
1.5805973e-09
1.5557465e-09
1.5318553e-09
1.508887e-09
1.4867621e-09
1.465388e-09
1.4447386e-09
1.4247695e-09
1.4054093e-09
1.3866171e-09
1.3683778e-09
1.3505051e-09
1.33305e-09
1.3160425e-09
1.2994664e-09
1.283286e-09
1.267469e-09
1.2520043e-09
1.2368751e-09
1.2220494e-09
1.207503e-09
1.1932312e-09
1.1792233e-09
1.165451e-09
1.1518958e-09
1.1385541e-09
1.1254225e-09
1.1124801e-09
1.0997059e-09
1.0870932e-09
1.0746492e-09
1.0623593e-09
1.0501966e-09
1.0381536e-09
1.0262384e-09
1.0144461e-09
1.0027553e-09
9.9115238e-10
9.7964086e-10
9.6822386e-10
9.5688334e-10
9.4559986e-10
9.3437387e-10
9.2321407e-10
9.1210503e-10
9.0102495e-10
8.8996993e-10
8.7894443e-10
8.6794438e-10
8.5694738e-10
8.459535e-10
8.3496984e-10
8.2397784e-10
8.1295679e-10
8.0191365e-10
7.9084482e-10
7.7972516e-10
7.6854675e-10
7.5731371e-10
7.4600795e-10
7.3485387e-10
7.2421805e-10
7.1416821e-10
7.0458856e-10
6.9550936e-10
6.868995e-10
6.787124e-10
6.7090708e-10
6.6346078e-10
6.5635339e-10
6.4955521e-10
6.4303675e-10
6.3677819e-10
6.3076866e-10
6.2499331e-10
6.1943189e-10
6.1406e-10
6.0886987e-10
6.038182e-10
5.9896555e-10
5.9403059e-10
5.8965959e-10
5.8257904e-10
1.9619012e-07
1.6951722e-07
1.6417762e-07
1.6172938e-07
1.6056631e-07
1.6002849e-07
1.5974781e-07
1.5957646e-07
1.594615e-07
1.5938138e-07
1.5932518e-07
1.5928649e-07
1.5926134e-07
1.5924702e-07
1.5924175e-07
1.5924437e-07
1.5925426e-07
1.5927133e-07
1.5929599e-07
1.5932772e-07
1.5938181e-07
1.5941535e-07
1.5955843e-07
1.4974812e-07
1.7191062e-10
4.0922688e-09
7.4607519e-09
8.3263992e-09
8.1362331e-09
7.7172929e-09
7.3326555e-09
7.004069e-09
6.7165531e-09
6.4627161e-09
6.2375973e-09
6.0362293e-09
5.8493486e-09
5.6772484e-09
5.5187289e-09
5.3727739e-09
5.2381113e-09
5.1130749e-09
4.9965182e-09
4.8875995e-09
4.7852235e-09
4.6888318e-09
4.5978172e-09
4.5116916e-09
4.4300547e-09
4.3524047e-09
4.2785297e-09
4.2080125e-09
4.1404898e-09
4.0758472e-09
4.0138125e-09
3.9541224e-09
3.8966906e-09
3.8413232e-09
3.7877935e-09
3.7360405e-09
3.6859554e-09
3.637363e-09
3.5901642e-09
3.5443248e-09
3.499372e-09
3.4554376e-09
3.4126035e-09
3.3708303e-09
3.3300294e-09
3.2901211e-09
3.2510796e-09
3.2128638e-09
3.1753936e-09
3.1386087e-09
3.1024988e-09
3.0670381e-09
3.0321557e-09
2.997805e-09
2.9639779e-09
2.930667e-09
2.89782e-09
2.8653833e-09
2.8333409e-09
2.8017116e-09
2.7704594e-09
2.7395158e-09
2.7088614e-09
2.6785184e-09
2.6484741e-09
2.6186748e-09
2.5890854e-09
2.5597152e-09
2.5305729e-09
2.5016126e-09
2.4727846e-09
2.4440898e-09
2.4155512e-09
2.3871295e-09
2.3587688e-09
2.3304589e-09
2.3022112e-09
2.2740158e-09
2.245815e-09
2.2176086e-09
2.1894153e-09
2.1611873e-09
2.1328711e-09
2.1044843e-09
2.0760177e-09
2.0474065e-09
2.0186298e-09
1.989698e-09
1.9605643e-09
1.9318067e-09
1.9043718e-09
1.8784354e-09
1.8536998e-09
1.8302464e-09
1.8079965e-09
1.7868309e-09
1.7666448e-09
1.7473804e-09
1.7289866e-09
1.7113874e-09
1.6945071e-09
1.6782949e-09
1.6627234e-09
1.6477547e-09
1.6333366e-09
1.6194063e-09
1.6059439e-09
1.5928377e-09
1.5802447e-09
1.5674369e-09
1.5560885e-09
1.5377002e-09
1.9617391e-07
1.6934959e-07
1.6383895e-07
1.6132436e-07
1.6012855e-07
1.5957275e-07
1.5928183e-07
1.5910403e-07
1.5898456e-07
1.5890109e-07
1.5884231e-07
1.5880159e-07
1.5877481e-07
1.5875916e-07
1.5875276e-07
1.5875444e-07
1.587635e-07
1.5877983e-07
1.5880383e-07
1.588349e-07
1.5888817e-07
1.5892005e-07
1.5907162e-07
1.5041682e-07
3.4736848e-10
8.8497192e-09
1.6218539e-08
1.814177e-08
1.7803591e-08
1.6969542e-08
1.6194821e-08
1.5527465e-08
1.4938701e-08
1.4415369e-08
1.3948692e-08
1.3529272e-08
1.3138012e-08
1.277629e-08
1.2441984e-08
1.2133242e-08
1.1847586e-08
1.158164e-08
1.1333117e-08
1.1100349e-08
1.0881085e-08
1.067422e-08
1.047852e-08
1.0292992e-08
1.0116831e-08
9.9489978e-09
9.7890727e-09
9.6361854e-09
9.489579e-09
9.3490318e-09
9.2139737e-09
9.083853e-09
8.9585006e-09
8.8375067e-09
8.720392e-09
8.6070389e-09
8.4972167e-09
8.390551e-09
8.2868386e-09
8.1860143e-09
8.08702e-09
7.9901616e-09
7.8956396e-09
7.8033733e-09
7.7131699e-09
7.6248588e-09
7.5383912e-09
7.45368e-09
7.370549e-09
7.2888684e-09
7.2086207e-09
7.1297527e-09
7.0521078e-09
6.9755836e-09
6.9001659e-09
6.8258425e-09
6.7524979e-09
6.6800127e-09
6.6083531e-09
6.5375647e-09
6.4675688e-09
6.3982118e-09
6.3294508e-09
6.2613379e-09
6.1938469e-09
6.1268576e-09
6.0602908e-09
5.9941688e-09
5.9285126e-09
5.8632198e-09
5.7981774e-09
5.7333881e-09
5.6689049e-09
5.60464e-09
5.540466e-09
5.4763599e-09
5.4123467e-09
5.3484059e-09
5.2844054e-09
5.2203443e-09
5.156265e-09
5.0920593e-09
5.0276036e-09
4.9629377e-09
4.8980406e-09
4.8327631e-09
4.7670561e-09
4.7009426e-09
4.6343141e-09
4.5684925e-09
4.5056489e-09
4.4461905e-09
4.3894379e-09
4.3355904e-09
4.2844728e-09
4.2358164e-09
4.1893841e-09
4.1450465e-09
4.10269e-09
4.0621423e-09
4.0232314e-09
3.9858426e-09
3.9499147e-09
3.9153624e-09
3.882067e-09
3.8498847e-09
3.8187707e-09
3.7884694e-09
3.7593419e-09
3.7297134e-09
3.7034459e-09
3.6608631e-09
1.9615256e-07
1.6915947e-07
1.6344034e-07
1.6084451e-07
1.5960894e-07
1.5903117e-07
1.5872769e-07
1.5854195e-07
1.5841695e-07
1.5832936e-07
1.582674e-07
1.5822418e-07
1.5819538e-07
1.5817808e-07
1.5817031e-07
1.5817081e-07
1.5817885e-07
1.5819426e-07
1.5821741e-07
1.5824767e-07
1.5829994e-07
1.5832983e-07
1.5849503e-07
1.509234e-07
6.2683736e-10
1.6899582e-08
3.1218527e-08
3.5076005e-08
3.4617934e-08
3.3199148e-08
3.1858707e-08
3.069146e-08
2.965041e-08
2.8716746e-08
2.7878181e-08
2.71199e-08
2.6407553e-08
2.5745644e-08
2.5131245e-08
2.4561634e-08
2.4032719e-08
2.3538603e-08
2.3075385e-08
2.264025e-08
2.2229203e-08
2.184038e-08
2.1471627e-08
2.1121206e-08
2.0787732e-08
2.0469337e-08
2.0165323e-08
1.9874108e-08
1.9594327e-08
1.932562e-08
1.906695e-08
1.8817313e-08
1.857643e-08
1.8343546e-08
1.8117778e-08
1.7898939e-08
1.7686601e-08
1.7480063e-08
1.7278969e-08
1.7083219e-08
1.6890691e-08
1.6702032e-08
1.6517689e-08
1.6337521e-08
1.6161156e-08
1.5988276e-08
1.5818806e-08
1.5652586e-08
1.5489273e-08
1.532862e-08
1.5170608e-08
1.5015144e-08
1.486192e-08
1.4710737e-08
1.4561578e-08
1.4414429e-08
1.4269064e-08
1.4125246e-08
1.3982914e-08
1.3842168e-08
1.3702856e-08
1.3564671e-08
1.3427528e-08
1.3291539e-08
1.3156656e-08
1.3022639e-08
1.288933e-08
1.2756775e-08
1.2625023e-08
1.2493867e-08
1.2363081e-08
1.2232667e-08
1.2102738e-08
1.1973119e-08
1.184355e-08
1.1713982e-08
1.1584466e-08
1.1454964e-08
1.1325204e-08
1.1195182e-08
1.1064986e-08
1.0934395e-08
1.0803153e-08
1.0671338e-08
1.0538907e-08
1.0405552e-08
1.0271167e-08
1.0135797e-08
9.9992141e-09
9.8641279e-09
9.7350069e-09
9.6127006e-09
9.4958157e-09
9.3848036e-09
9.2793205e-09
9.1788261e-09
9.0828422e-09
8.9911126e-09
8.9034127e-09
8.8193948e-09
8.7387093e-09
8.661125e-09
8.586522e-09
8.5147292e-09
8.4455048e-09
8.3785539e-09
8.3137866e-09
8.250678e-09
8.1899763e-09
8.1282178e-09
8.0734179e-09
7.9845187e-09
1.9612463e-07
1.6894925e-07
1.6297817e-07
1.6028385e-07
1.5900029e-07
1.5839589e-07
1.5807711e-07
1.5788169e-07
1.5774991e-07
1.5765728e-07
1.5759144e-07
1.5754516e-07
1.5751389e-07
1.5749456e-07
1.574851e-07
1.5748415e-07
1.5749093e-07
1.5750522e-07
1.5752732e-07
1.5755658e-07
1.5760762e-07
1.5763512e-07
1.578218e-07
1.5122463e-07
9.8577649e-10
2.8782415e-08
5.3829291e-08
6.0951824e-08
6.0572073e-08
5.8488265e-08
5.6470334e-08
5.4689848e-08
5.3080472e-08
5.1621328e-08
5.0299637e-08
4.9095904e-08
4.7955076e-08
4.6888764e-08
4.5894121e-08
4.4967999e-08
4.4104583e-08
4.3294841e-08
4.2532999e-08
4.1814971e-08
4.1134515e-08
4.0488946e-08
3.9874972e-08
3.9289943e-08
3.8731793e-08
3.8197578e-08
3.7686302e-08
3.7195437e-08
3.6722817e-08
3.6267962e-08
3.5829203e-08
3.5404936e-08
3.4994782e-08
3.4597501e-08
3.4211662e-08
3.3837033e-08
3.3472902e-08
3.3118108e-08
3.2772115e-08
3.2434805e-08
3.2102323e-08
3.1775916e-08
3.1456498e-08
3.1143858e-08
3.0837354e-08
3.0536461e-08
3.0241096e-08
2.9950998e-08
2.9665569e-08
2.9384393e-08
2.910747e-08
2.8834658e-08
2.8565419e-08
2.8299402e-08
2.8036601e-08
2.7777017e-08
2.7520253e-08
2.7265888e-08
2.7013822e-08
2.6764255e-08
2.6516925e-08
2.6271282e-08
2.6027175e-08
2.5784817e-08
2.5544138e-08
2.5304706e-08
2.5066233e-08
2.4828809e-08
2.4592531e-08
2.4357031e-08
2.4121892e-08
2.3887123e-08
2.3652931e-08
2.3419004e-08
2.3184866e-08
2.2950422e-08
2.2715765e-08
2.248083e-08
2.2245117e-08
2.2008608e-08
2.1771467e-08
2.1533287e-08
2.1293589e-08
2.1052508e-08
2.0809964e-08
2.0565382e-08
2.0318553e-08
2.0069551e-08
1.9817948e-08
1.9568726e-08
1.9330161e-08
1.9103847e-08
1.8887203e-08
1.8681177e-08
1.8485174e-08
1.8298222e-08
1.8119461e-08
1.7948437e-08
1.7784758e-08
1.7627797e-08
1.7476917e-08
1.7331702e-08
1.7191942e-08
1.7057333e-08
1.6927433e-08
1.6801698e-08
1.6679968e-08
1.6561275e-08
1.6447012e-08
1.6330735e-08
1.6227438e-08
1.6059707e-08
1.9608831e-07
1.687231e-07
1.6244952e-07
1.5963675e-07
1.5829547e-07
1.5765895e-07
1.573216e-07
1.5711441e-07
1.5697439e-07
1.5687563e-07
1.5680506e-07
1.5675504e-07
1.5672076e-07
1.5669896e-07
1.5668742e-07
1.5668471e-07
1.5668994e-07
1.5670284e-07
1.5672365e-07
1.5675169e-07
1.5680126e-07
1.5682589e-07
1.5704578e-07
1.5129702e-07
1.4081793e-09
4.2803738e-08
8.4287979e-08
9.6624177e-08
9.6796747e-08
9.4123354e-08
9.1433186e-08
8.9020789e-08
8.6804514e-08
8.4769043e-08
8.2907373e-08
8.119837e-08
7.9561047e-08
7.8020862e-08
7.6576895e-08
7.5226557e-08
7.3962585e-08
7.2772525e-08
7.1648809e-08
7.0586214e-08
6.9575976e-08
6.8614717e-08
6.7697938e-08
6.6822027e-08
6.5984259e-08
6.5180467e-08
6.440942e-08
6.366747e-08
6.2951546e-08
6.2261114e-08
6.1593755e-08
6.0947177e-08
6.0320944e-08
5.9713219e-08
5.9121921e-08
5.8546838e-08
5.7986894e-08
5.744035e-08
5.690651e-08
5.6385288e-08
5.5870198e-08
5.5363484e-08
5.4866866e-08
5.4380072e-08
5.3902085e-08
5.3432131e-08
5.2970166e-08
5.2515809e-08
5.2068106e-08
5.1626427e-08
5.1190833e-08
5.0761135e-08
5.033648e-08
4.9916303e-08
4.9500637e-08
4.9089532e-08
4.8682353e-08
4.8278415e-08
4.787758e-08
4.7480203e-08
4.708588e-08
4.6693717e-08
4.6303466e-08
4.5915496e-08
4.5529719e-08
4.514543e-08
4.4762154e-08
4.4380048e-08
4.3999284e-08
4.361927e-08
4.3239316e-08
4.2859426e-08
4.2479958e-08
4.2100407e-08
4.1719979e-08
4.1338506e-08
4.0956138e-08
4.0572781e-08
4.0187594e-08
3.9800533e-08
3.9411866e-08
3.902092e-08
3.862688e-08
3.8229953e-08
3.7829999e-08
3.7426046e-08
3.7017721e-08
3.6605128e-08
3.618753e-08
3.5773182e-08
3.5375896e-08
3.4998355e-08
3.46362e-08
3.4291286e-08
3.3962694e-08
3.364886e-08
3.3348386e-08
3.3060561e-08
3.2784773e-08
3.2520004e-08
3.2265211e-08
3.2019719e-08
3.1783208e-08
3.1555192e-08
3.1334941e-08
3.1121557e-08
3.0914777e-08
3.0712998e-08
3.0518557e-08
3.0320659e-08
3.0144595e-08
2.9858389e-08
1.9604135e-07
1.6848754e-07
1.6185283e-07
1.5889814e-07
1.574877e-07
1.5681257e-07
1.5645279e-07
1.5623132e-07
1.5608129e-07
1.5597508e-07
1.5589877e-07
1.558442e-07
1.5580625e-07
1.5578142e-07
1.5576736e-07
1.5576248e-07
1.5576582e-07
1.5577702e-07
1.5579625e-07
1.5582281e-07
1.5587058e-07
1.5589184e-07
1.5615439e-07
1.5120955e-07
1.9250814e-09
5.7648246e-08
1.1893156e-07
1.418181e-07
1.4358275e-07
1.405883e-07
1.3736512e-07
1.3440984e-07
1.3163716e-07
1.2904936e-07
1.2665511e-07
1.2443729e-07
1.2228271e-07
1.2024182e-07
1.1831853e-07
1.1651235e-07
1.1481519e-07
1.1321121e-07
1.1169143e-07
1.1024987e-07
1.0887518e-07
1.0756359e-07
1.0630947e-07
1.0510832e-07
1.0395686e-07
1.0284966e-07
1.017854e-07
1.0075919e-07
9.9767038e-08
9.8808476e-08
9.7880246e-08
9.6979347e-08
9.6105376e-08
9.5255791e-08
9.4427814e-08
9.3621368e-08
9.2834932e-08
9.2066089e-08
9.1314053e-08
9.0578855e-08
8.9850139e-08
8.913174e-08
8.8426704e-08
8.7734724e-08
8.7054305e-08
8.638439e-08
8.5725052e-08
8.5075783e-08
8.4435172e-08
8.3802332e-08
8.3177448e-08
8.2560306e-08
8.1949645e-08
8.1344627e-08
8.0745361e-08
8.0151996e-08
7.9563595e-08
7.8979132e-08
7.8398424e-08
7.7822059e-08
7.7249456e-08
7.6679284e-08
7.6111157e-08
7.5545666e-08
7.4982717e-08
7.4421255e-08
7.3860554e-08
7.3300861e-08
7.2742462e-08
7.2184477e-08
7.1625857e-08
7.1066596e-08
7.0507252e-08
6.9947081e-08
6.9384873e-08
6.8820348e-08
6.8253731e-08
6.7684899e-08
6.7112561e-08
6.6536619e-08
6.595748e-08
6.5374126e-08
6.478529e-08
6.4191253e-08
6.3591796e-08
6.2985423e-08
6.2371518e-08
6.1750217e-08
6.1120357e-08
6.049436e-08
5.9893171e-08
5.9320832e-08
5.8770526e-08
5.8245645e-08
5.7744915e-08
5.7266046e-08
5.6806972e-08
5.6366678e-08
5.5944304e-08
5.5538349e-08
5.5147258e-08
5.4770037e-08
5.440624e-08
5.4055167e-08
5.3715728e-08
5.3386565e-08
5.306729e-08
5.2755503e-08
5.2454737e-08
5.2148648e-08
5.1875872e-08
5.1431944e-08
1.9598107e-07
1.6825203e-07
1.6118837e-07
1.5806406e-07
1.5657099e-07
1.5584957e-07
1.554627e-07
1.5522392e-07
1.5506176e-07
1.5494651e-07
1.5486321e-07
1.5480312e-07
1.5476069e-07
1.5473219e-07
1.5471503e-07
1.5470752e-07
1.5470855e-07
1.5471767e-07
1.5473496e-07
1.5475971e-07
1.5480531e-07
1.5482277e-07
1.5513037e-07
1.5095242e-07
2.5405107e-09
7.4389136e-08
1.5711568e-07
1.918209e-07
1.975057e-07
1.953874e-07
1.9249316e-07
1.8970287e-07
1.8694319e-07
1.8426457e-07
1.8172296e-07
1.7932611e-07
1.7667881e-07
1.7414624e-07
1.7174609e-07
1.6948221e-07
1.6734679e-07
1.653209e-07
1.6339482e-07
1.6156246e-07
1.5980999e-07
1.5813373e-07
1.5652713e-07
1.5498491e-07
1.5350349e-07
1.5207623e-07
1.5070189e-07
1.4937426e-07
1.4808848e-07
1.4684433e-07
1.4563763e-07
1.4446471e-07
1.4332531e-07
1.4221609e-07
1.4113356e-07
1.4007794e-07
1.3904718e-07
1.3803808e-07
1.370499e-07
1.3608289e-07
1.3512091e-07
1.3417038e-07
1.3323649e-07
1.3231896e-07
1.314157e-07
1.3052534e-07
1.2964817e-07
1.2878358e-07
1.2792958e-07
1.2708498e-07
1.2625018e-07
1.2542498e-07
1.2460762e-07
1.237969e-07
1.2299308e-07
1.2219647e-07
1.2140577e-07
1.2061952e-07
1.1983751e-07
1.1906062e-07
1.182881e-07
1.1751806e-07
1.1674995e-07
1.1598466e-07
1.152221e-07
1.1446079e-07
1.136997e-07
1.1293919e-07
1.1217971e-07
1.1142002e-07
1.1065864e-07
1.0989555e-07
1.0913156e-07
1.0836566e-07
1.0759611e-07
1.068225e-07
1.0604514e-07
1.052639e-07
1.0447692e-07
1.0368403e-07
1.0288582e-07
1.0208084e-07
1.0126729e-07
1.0044552e-07
9.9615212e-08
9.8774238e-08
9.7921672e-08
9.7057676e-08
9.6180568e-08
9.5307594e-08
9.4468057e-08
9.3667433e-08
9.289561e-08
9.2158494e-08
9.1454464e-08
9.0780409e-08
9.0133497e-08
8.951238e-08
8.8915942e-08
8.8342134e-08
8.7788804e-08
8.7254592e-08
8.673893e-08
8.6240886e-08
8.5758949e-08
8.5291225e-08
8.4837175e-08
8.439351e-08
8.3965095e-08
8.3529298e-08
8.3140233e-08
8.2506393e-08
1.9590425e-07
1.6802994e-07
1.6045862e-07
1.5713228e-07
1.5554066e-07
1.547638e-07
1.5434424e-07
1.5408448e-07
1.5390759e-07
1.5378136e-07
1.5368957e-07
1.5362275e-07
1.5357488e-07
1.5354189e-07
1.5352097e-07
1.5351023e-07
1.5350842e-07
1.53515e-07
1.5352992e-07
1.5355248e-07
1.5359545e-07
1.5360885e-07
1.5395028e-07
1.5051418e-07
3.257374e-09
9.2913193e-08
1.9994662e-07
2.5008565e-07
2.6092638e-07
2.5981075e-07
2.5708512e-07
2.5424636e-07
2.512775e-07
2.482852e-07
2.4537718e-07
2.4258858e-07
2.3975182e-07
2.3699738e-07
2.3436161e-07
2.3185875e-07
2.2948462e-07
2.2721924e-07
2.2505472e-07
2.2298731e-07
2.2100217e-07
2.1909743e-07
2.1726653e-07
2.1550424e-07
2.1380763e-07
2.1216949e-07
2.1058932e-07
2.0905984e-07
2.0757591e-07
2.06138e-07
2.0474118e-07
2.0338152e-07
2.0205933e-07
2.0077036e-07
1.995107e-07
1.9828146e-07
1.9707985e-07
1.9590179e-07
1.9474719e-07
1.9361694e-07
1.9242955e-07
1.9123263e-07
1.9005557e-07
1.8889823e-07
1.8775776e-07
1.8663245e-07
1.8552299e-07
1.8442864e-07
1.8334673e-07
1.8227572e-07
1.8121632e-07
1.801684e-07
1.7912962e-07
1.7809834e-07
1.77075e-07
1.7606018e-07
1.7505217e-07
1.7404895e-07
1.7305031e-07
1.7205754e-07
1.7106966e-07
1.7008417e-07
1.6910028e-07
1.6811926e-07
1.6714108e-07
1.6616377e-07
1.651859e-07
1.6420798e-07
1.6323067e-07
1.6225236e-07
1.6127105e-07
1.6028666e-07
1.5930035e-07
1.583108e-07
1.5731568e-07
1.5631439e-07
1.5530735e-07
1.5429444e-07
1.5327318e-07
1.5224326e-07
1.5120551e-07
1.5015804e-07
1.4909836e-07
1.4802692e-07
1.4694332e-07
1.458447e-07
1.4472976e-07
1.435987e-07
1.4244926e-07
1.4130394e-07
1.4020132e-07
1.3914807e-07
1.3812957e-07
1.3715586e-07
1.3622501e-07
1.3533301e-07
1.3447618e-07
1.3365283e-07
1.3286158e-07
1.3209979e-07
1.3136463e-07
1.3065435e-07
1.2996826e-07
1.2930518e-07
1.2866315e-07
1.2803967e-07
1.2743402e-07
1.26842e-07
1.2626982e-07
1.2568831e-07
1.2516819e-07
1.2432014e-07
1.9580719e-07
1.6783939e-07
1.5966898e-07
1.5610305e-07
1.5439401e-07
1.5355076e-07
1.5309172e-07
1.528065e-07
1.5261172e-07
1.5247212e-07
1.5237e-07
1.5229498e-07
1.5224047e-07
1.52202e-07
1.5217647e-07
1.5216178e-07
1.5215651e-07
1.5215998e-07
1.52172e-07
1.521919e-07
1.5223166e-07
1.52241e-07
1.5259983e-07
1.4987371e-07
4.0798257e-09
1.138895e-07
2.4626551e-07
3.1660505e-07
3.353823e-07
3.3633073e-07
3.3423539e-07
3.3162128e-07
3.2861684e-07
3.2541589e-07
3.222002e-07
3.1904749e-07
3.1584961e-07
3.1269853e-07
3.0965274e-07
3.0673931e-07
3.0395929e-07
3.0129156e-07
2.9873007e-07
2.9627353e-07
2.939058e-07
2.9162659e-07
2.894292e-07
2.8730846e-07
2.8526195e-07
2.8328156e-07
2.8136772e-07
2.7951161e-07
2.7770742e-07
2.7595659e-07
2.7425306e-07
2.7259237e-07
2.7097549e-07
2.6939708e-07
2.6785243e-07
2.663436e-07
2.6486709e-07
2.6341763e-07
2.6199554e-07
2.6060251e-07
2.5920612e-07
2.5781941e-07
2.564546e-07
2.551121e-07
2.5378788e-07
2.5247989e-07
2.5118977e-07
2.4991684e-07
2.4865734e-07