/*--------------------------------*- C++ -*----------------------------------*\
  =========                 |
  \\      /  F ield         | OpenFOAM: The Open Source CFD Toolbox
   \\    /   O peration     | Website:  https://openfoam.org
    \\  /    A nd           | Version:  12
     \\/     M anipulation  |
\*---------------------------------------------------------------------------*/
FoamFile
{
    format      ascii;
    class       volScalarField;
    location    "300";
    object      p;
}
// * * * * * * * * * * * * * * * * * * * * * * * * * * * * * * * * * * * * * //

dimensions      [0 2 -2 0 0 0 0];

internalField   nonuniform List<scalar> 
7480
(
0.0053224961
0.0052834884
0.0051751812
0.0051426971
0.0051598012
0.0051942052
0.0052420264
0.0053070439
0.0053956314
0.0055148202
0.0056852363
0.0059238372
0.0063927223
0.0068180627
0.006760051
0.0063259169
0.0058586831
0.0054885932
0.0051729299
0.0048906774
0.0046449621
0.0044348445
0.0042572055
0.0040905376
0.003923816
0.0037619165
0.0036087292
0.0034773826
0.0033648835
0.0032577861
0.0031597646
0.0030740397
0.0029996713
0.002935742
0.0028807463
0.0028329181
0.0027906996
0.0027541869
0.0027222027
0.0026921163
0.0026634969
0.0026364501
0.0026111136
0.0025861667
0.0025598566
0.0025320356
0.0025031542
0.0024744077
0.0024451544
0.0024142523
0.0023811079
0.0023452618
0.0023084417
0.002271096
0.0022319716
0.0021912737
0.002150081
0.0021101211
0.0020707558
0.002029908
0.0019880928
0.0019463419
0.0019056684
0.0018648976
0.0018228258
0.0017806347
0.0017395796
0.0016986677
0.0016563965
0.0016134813
0.0015709773
0.0015281075
0.0014840499
0.0014395555
0.0013952995
0.0013506486
0.0013047657
0.0012584579
0.0012117325
0.0011642007
0.0011157536
0.0010669457
0.0010176173
0.00096701403
0.00091609004
0.00086446162
0.00081148207
0.00075834263
0.00070461962
0.00064967616
0.00059471365
0.00053923022
0.00048325827
0.0004278159
0.00037414536
0.00032005892
0.00028143997
0.00022268726
0.00036020107
-0.00024153017
0.005259994
0.0052213118
0.0051488088
0.0051270031
0.0051476313
0.0051862084
0.0052362038
0.0053021671
0.0053911551
0.005510364
0.0056792925
0.0059149124
0.0063430118
0.0067161663
0.0066577332
0.0062993144
0.0058864549
0.0055413166
0.0052387318
0.004960302
0.0047154493
0.0045011459
0.0043096342
0.0041289525
0.0039562501
0.0037926372
0.003641369
0.0035094458
0.003393506
0.0032850367
0.0031862825
0.0030998262
0.0030245766
0.0029594224
0.0029029381
0.0028534914
0.0028096128
0.0027715943
0.0027383887
0.002707243
0.0026775119
0.002649305
0.0026229006
0.0025970499
0.0025698389
0.0025411296
0.0025114969
0.0024820942
0.0024522477
0.0024208124
0.0023872403
0.0023510424
0.0023138979
0.0022762557
0.002236862
0.0021959272
0.0021545242
0.0021143921
0.0020748724
0.0020338596
0.0019918762
0.0019499607
0.0019091294
0.0018682018
0.001825975
0.0017836348
0.0017424379
0.0017013897
0.0016589865
0.0016159465
0.0015733253
0.0015303429
0.0014861779
0.0014415818
0.0013972289
0.0013524849
0.0013065132
0.0012601225
0.0012133186
0.0011657122
0.0011171941
0.0010683185
0.0010189252
0.00096826029
0.00091727862
0.00086559523
0.00081256349
0.00075937466
0.0007056041
0.0006506156
0.00059561094
0.00054008727
0.00048407741
0.00042859888
0.00037489552
0.0003207762
0.00028211669
0.00022339722
0.00036103118
-0.00024093612
0.0052182938
0.0052041584
0.0051590504
0.0051374142
0.0051541673
0.0051920322
0.0052409383
0.0053054492
0.0053928971
0.0055103687
0.0056751122
0.005903847
0.006271002
0.0065851577
0.006545899
0.006230617
0.005839119
0.0054977302
0.0051986642
0.0049247976
0.0046832107
0.0044715636
0.0042826085
0.0041087445
0.0039447718
0.0037890753
0.0036454935
0.0035172153
0.0034025684
0.0032973859
0.0032011268
0.0031156037
0.0030409425
0.0029760389
0.0029194828
0.0028697561
0.0028255907
0.0027869091
0.0027525802
0.0027204885
0.002689923
0.0026608213
0.0026335944
0.0026071568
0.0025794699
0.0025502212
0.0025199991
0.0024900273
0.0024597174
0.002427569
0.0023932143
0.0023565547
0.0023190961
0.0022812082
0.002241584
0.0022004433
0.0021588637
0.0021185909
0.0020789364
0.0020377723
0.0019956305
0.0019535656
0.0019125996
0.0018715363
0.0018291721
0.0017867012
0.0017453837
0.0017042189
0.0016616961
0.0016185392
0.0015758077
0.0015327185
0.0014884501
0.0014437565
0.0013993114
0.0013544779
0.0013084188
0.0012619458
0.0012150634
0.001167382
0.0011187922
0.0010698486
0.0010203892
0.00096966022
0.00091861896
0.00086687831
0.00081379177
0.00076055148
0.00070673063
0.00065169382
0.00059664415
0.00054107715
0.00048502628
0.00042950851
0.00037576907
0.00032161166
0.00028292418
0.00022429468
0.00036194593
-0.00024020167
0.0051851747
0.0051843
0.0051492484
0.0051294221
0.0051455032
0.0051835105
0.0052328742
0.0052974751
0.0053844828
0.0055007434
0.0056609465
0.0058797656
0.0061957215
0.0064687723
0.0064495487
0.0061697819
0.0058043367
0.0054773487
0.0051908626
0.0049272301
0.004690841
0.0044819346
0.0042939342
0.0041210456
0.0039568221
0.0038000931
0.003654806
0.0035240411
0.0034078198
0.0033024875
0.0032058252
0.0031195246
0.0030446641
0.0029801341
0.0029244029
0.0028759495
0.0028334346
0.002795629
0.0027613998
0.0027297452
0.0026997783
0.0026709651
0.0026430723
0.0026154931
0.0025871698
0.0025575106
0.0025268341
0.0024964268
0.0024658199
0.0024332038
0.0023983107
0.0023613487
0.0023236827
0.0022857062
0.0022460039
0.0022047569
0.0021630382
0.0021225015
0.0020825811
0.0020412745
0.0019990231
0.0019568662
0.0019158213
0.0018746654
0.0018321969
0.0017896301
0.001748221
0.001706953
0.0016643197
0.0016210563
0.0015782263
0.0015350415
0.0014906791
0.0014458964
0.0014013683
0.0013564541
0.001310313
0.0012637616
0.001216804
0.0011690506
0.0011203914
0.0010713825
0.0010218596
0.00097106785
0.00091996858
0.00086817182
0.00081503108
0.00076174022
0.00070786946
0.00065278431
0.00059769002
0.00054207978
0.00048598759
0.00043043029
0.00037665347
0.00032245712
0.00028374369
0.00022508569
0.00036280462
-0.00023950306
0.0051544326
0.0051615266
0.0051373737
0.0051248486
0.0051429362
0.0051814606
0.0052313481
0.005295763
0.0053816004
0.0054954376
0.0056496351
0.0058546092
0.0061298557
0.0063661636
0.0063568371
0.0061067363
0.0057673488
0.0054547169
0.0051779883
0.0049212185
0.0046877754
0.0044800762
0.0042927181
0.0041204084
0.0039569832
0.0038016851
0.0036579176
0.0035284292
0.003413192
0.0033085111
0.0032121253
0.0031257933
0.0030506375
0.0029855182
0.0029289677
0.0028796406
0.0028362441
0.0027973745
0.0027624273
0.0027308419
0.0027015395
0.0026738218
0.0026468516
0.0026198041
0.0025921053
0.0025632683
0.0025333214
0.0025026642
0.0024711003
0.0024379839
0.0024029033
0.0023657958
0.0023279578
0.0022898891
0.0022501635
0.0022088419
0.0021669338
0.0021260813
0.0020859602
0.0020446043
0.0020022977
0.0019600661
0.0019189555
0.0018777379
0.0018351965
0.0017925747
0.0017510609
0.0017096269
0.0016668651
0.0016235203
0.0015806235
0.0015373685
0.0014929316
0.0014480776
0.0014034797
0.0013584883
0.0013122667
0.0012656399
0.0012186094
0.0011707861
0.0011220589
0.0010729871
0.0010234028
0.00097254798
0.00092138974
0.00086953534
0.0008163385
0.00076299615
0.00070907455
0.00065393925
0.00059879865
0.00054314315
0.00048700734
0.0004314085
0.00037759126
0.0003233541
0.00028460625
0.00022586412
0.00036365551
-0.00023871074
0.0051259197
0.0051391684
0.0051255845
0.0051197261
0.0051385028
0.0051761423
0.0052255758
0.0052891595
0.0053732291
0.0054839575
0.0056312366
0.0058220756
0.0060631012
0.006266023
0.0062622405
0.0060404736
0.0057274419
0.0054295516
0.0051625201
0.0049134256
0.0046848332
0.0044799009
0.0042945624
0.0041238771
0.003962119
0.0038086028
0.003666182
0.0035373193
0.0034219921
0.0033170442
0.0032205412
0.0031339794
0.0030583561
0.0029926297
0.0029354019
0.002885374
0.0028412345
0.0028016517
0.0027660484
0.0027337328
0.0027035814
0.0026749791
0.0026472624
0.0026197015
0.0025918129
0.0025633288
0.0025342232
0.0025042659
0.0024731814
0.0024407917
0.0024066145
0.0023703951
0.0023326492
0.0022938637
0.0022537012
0.0022122548
0.0021702421
0.0021293287
0.0020892424
0.0020479271
0.0020055441
0.0019631394
0.0019219268
0.0018807047
0.0018381356
0.0017954549
0.0017538124
0.0017122192
0.0016693527
0.001625958
0.0015830214
0.0015397123
0.0014952142
0.001450312
0.0014056394
0.0013605335
0.0013142203
0.0012675344
0.0012204488
0.0011725701
0.0011237869
0.0010746589
0.0010250127
0.00097409537
0.00092287955
0.00087096849
0.00081771595
0.00076432378
0.00071035215
0.00065516554
0.00059997717
0.00054427463
0.00048809349
0.00043245195
0.00037859159
0.00032431179
0.00028551993
0.00022668839
0.00036449845
-0.00023774804
0.0050994614
0.0051174162
0.0051127702
0.00511268
0.0051324253
0.0051697166
0.0052191577
0.0052823027
0.0053647587
0.0054721603
0.0056121785
0.0057889061
0.0060002321
0.0061736452
0.006172804
0.005976642
0.0056883608
0.0054048366
0.0051472375
0.0049058103
0.0046822172
0.0044798008
0.0042961369
0.0041265207
0.0039659661
0.0038137287
0.003672246
0.003543791
0.0034284301
0.0033235191
0.003227258
0.003140757
0.0030649122
0.0029988304
0.0029411657
0.0028906433
0.0028459947
0.0028059653
0.0027698949
0.0027370687
0.0027064451
0.0026774063
0.0026492908
0.0026213461
0.0025930432
0.0025640786
0.002534394
0.0025039222
0.0024725909
0.0024402035
0.002406397
0.0023710066
0.0023339836
0.0022954942
0.002255849
0.002215229
0.0021739858
0.0021330787
0.0020923105
0.0020506299
0.0020081669
0.0019657379
0.0019245898
0.0018834312
0.0018408779
0.001798072
0.0017563113
0.001714706
0.0016718308
0.0016283842
0.0015853764
0.001542007
0.0014974543
0.0014525151
0.0014077701
0.0013625506
0.0013161564
0.0012694311
0.0012223079
0.0011743867
0.0011255614
0.0010763641
0.0010266297
0.00097565079
0.00092439006
0.00087243418
0.00081913565
0.00076569841
0.00071167534
0.00065643822
0.00060120331
0.00054545451
0.00048922897
0.0004335456
0.00037964046
0.00032531687
0.00028647251
0.00022755013
0.00036530166
-0.00023659288
0.0050747224
0.0050961999
0.0050989797
0.0051042042
0.0051253762
0.0051625189
0.0052117298
0.0052740579
0.0053543865
0.005457755
0.0055899066
0.0057524405
0.005937672
0.0060853026
0.0060853377
0.0059116224
0.0056466153
0.0053775849
0.0051295697
0.0048959344
0.0046775274
0.0044781418
0.0042964675
0.0041282835
0.0039692775
0.0038186263
0.0036784133
0.0035507157
0.0034356532
0.0033309751
0.0032349846
0.0031485033
0.0030723775
0.0030058582
0.0029476531
0.0028965241
0.0028512584
0.0028106552
0.0027740073
0.0027406204
0.0027095165
0.0026800423
0.0026515345
0.0026232412
0.0025946361
0.0025654178
0.0025355175
0.002504876
0.0024733646
0.0024407144
0.002406565
0.0023707823
0.002333414
0.0022948046
0.0022553987
0.0022154027
0.0021751571
0.0021347534
0.0020939777
0.0020527152
0.0020108914
0.0019689351
0.0019274596
0.0018856156
0.0018429391
0.0018001482
0.0017584898
0.0017169821
0.0016741557
0.0016306207
0.0015875258
0.0015441581
0.0014995987
0.0014546088
0.0014097946
0.0013645249
0.0013180887
0.0012713285
0.0012241614
0.0011761927
0.0011273286
0.0010780653
0.0010282473
0.00097721439
0.00092592096
0.0008739317
0.00082059741
0.00076710034
0.00071300509
0.0006577221
0.00060245032
0.00054666375
0.00049039832
0.00043467264
0.00038072125
0.00032635465
0.00028745073
0.00022843259
0.00036603385
-0.00023522478
0.0050514019
0.0050755174
0.0050844296
0.0050944705
0.0051172219
0.00515422
0.0052029712
0.0052642746
0.005342274
0.0054413218
0.0055654794
0.0057142824
0.0058767127
0.006002042
0.00600155
0.0058473897
0.005604322
0.0053498477
0.0051114421
0.0048855269
0.0046725231
0.0044764575
0.0042969252
0.0041303121
0.0039728744
0.0038237583
0.0036847493
0.0035577402
0.0034429025
0.0033383377
0.0032424905
0.003155966
0.0030795452
0.0030125899
0.0029538614
0.0029021568
0.0028563102
0.0028151663
0.0027779871
0.0027440844
0.0027125182
0.0026826057
0.002653692
0.0026250525
0.002596167
0.0025667327
0.0025366633
0.0025058777
0.0024742215
0.0024414347
0.0024071889
0.0023713515
0.0023339664
0.0022953417
0.0022558282
0.0022156037
0.002175064
0.0021343066
0.002093503
0.0020527434
0.0020117622
0.0019706307
0.0019291864
0.0018872869
0.001845071
0.0018027601
0.0017609461
0.0017188184
0.0016758235
0.0016323345
0.0015893702
0.0015460993
0.0015015774
0.0014565107
0.0014116498
0.0013664128
0.0013199701
0.0012731592
0.0012259402
0.0011779315
0.0011290328
0.0010797284
0.0010298648
0.00097879027
0.0009274665
0.00087544074
0.00082206862
0.00076851125
0.00071434898
0.00065902609
0.00060372518
0.00054790966
0.00049159666
0.00043581174
0.00038181145
0.00032740929
0.00028844388
0.00022932446
0.00036666282
-0.0002336155
0.0050292261
0.0050553226
0.0050692409
0.0050835271
0.0051078819
0.0051447805
0.0051929468
0.0052530611
0.0053285289
0.005422964
0.0055390024
0.0056745551
0.0058168242
0.0059227531
0.0059207249
0.0057833977
0.0055607808
0.0053206937
0.0050918537
0.0048735874
0.0046661975
0.0044737129
0.0042965143
0.0041316446
0.0039758653
0.0038283433
0.0036906101
0.003564386
0.0034498913
0.003345538
0.0032499164
0.0031634445
0.0030868152
0.0030194833
0.0029602731
0.0029080204
0.0028616043
0.0028199161
0.0027821976
0.0027477618
0.0027157065
0.0026853349
0.0026560031
0.0026270101
0.0025978343
0.0025681641
0.0025378909
0.0025069215
0.0024751007
0.0024421832
0.0024078584
0.00237199
0.0023346101
0.0022959959
0.0022564756
0.0022162466
0.0021756792
0.002134886
0.0020940371
0.0020531181
0.0020118815
0.001970427
0.0019287713
0.0018872688
0.0018459009
0.0018043859
0.0017626148
0.0017203437
0.0016776275
0.0016345219
0.0015913897
0.0015475786
0.0015029629
0.0014579908
0.0014132712
0.001368116
0.0013216828
0.0012748239
0.0012276042
0.0011796061
0.0011306737
0.0010813243
0.0010314353
0.0009803338
0.00092897945
0.0008769114
0.00082349966
0.00076991083
0.00071571333
0.00066035268
0.00060502136
0.00054917545
0.00049281092
0.00043696776
0.00038292152
0.00032849007
0.00028945821
0.00023021876
0.00036714483
-0.00023173445
0.0050079657
0.0050355452
0.0050535014
0.0050714474
0.005097356
0.0051341931
0.005181652
0.0052403798
0.0053131025
0.0054026972
0.0055106178
0.0056335508
0.0057579691
0.005847095
0.0058429984
0.0057201196
0.0055164543
0.0052905223
0.005071264
0.0048606272
0.0046590374
0.0044703898
0.0042957341
0.0041327796
0.0039787555
0.0038328828
0.0036964759
0.003571096
0.0034570079
0.0033528954
0.0032574938
0.0031710675
0.0030942209
0.0030264944
0.0029667847
0.0029139675
0.0028669657
0.0028247154
0.0027864445
0.0027514659
0.0027189128
0.00268808
0.0026583292
0.0026289791
0.0025995066
0.0025695933
0.0025391131
0.0025079647
0.0024759908
0.0024429504
0.0024085431
0.002372628
0.0023352336
0.0022966205
0.0022571114
0.0022169135
0.0021763743
0.0021356095
0.0020947585
0.0020537934
0.002012501
0.0019709762
0.0019292643
0.0018876655
0.0018460959
0.0018042744
0.0017622907
0.0017204322
0.0016785145
0.0016360944
0.001592969
0.0015489962
0.0015046
0.0014598695
0.0014148801
0.0013692941
0.0013228932
0.0012761709
0.0012290625
0.0011811171
0.0011321609
0.0010827998
0.0010329394
0.0009818235
0.00093042856
0.00087833185
0.00082489314
0.00077128215
0.00071705537
0.00066166155
0.00060630303
0.00055042234
0.0004940183
0.00043814273
0.0003840558
0.00032959254
0.00029047839
0.00023111198
0.0003674629
-0.00022953151
0.0049874271
0.0050161003
0.005037272
0.0050583051
0.0050856486
0.0051224277
0.0051690594
0.0052262113
0.0052960106
0.0053806257
0.0054805374
0.0055915548
0.0057001185
0.005774682
0.0057682414
0.0056576738
0.0054714051
0.005259266
0.0050495663
0.0048465039
0.0046508254
0.0044662317
0.0042943124
0.0041334274
0.0039812498
0.0038370778
0.003702045
0.0035775695
0.003463957
0.0033601303
0.0032649676
0.0031786126
0.0031015831
0.0030334926
0.0029733114
0.002919955
0.0028723867
0.0028295855
0.0027907712
0.0027552562
0.0027222065
0.0026909121
0.0026607392
0.0026310254
0.0026012494
0.0025710869
0.0025403955
0.0025090646
0.0024769326
0.0024437617
0.0024092635
0.0023732969
0.0023358887
0.0022972827
0.0022577895
0.0022176158
0.0021770848
0.0021363198
0.0020954502
0.0020544644
0.0020131797
0.0019716741
0.0019299813
0.0018883484
0.0018466917
0.0018047721
0.001762701
0.0017207399
0.0016786212
0.0016359533
0.0015927826
0.0015493903
0.0015057086
0.001461412
0.0014163355
0.0013706056
0.0013244125
0.0012776532
0.0012302189
0.0011821602
0.0011333052
0.0010840702
0.0010342788
0.00098315847
0.00093175275
0.00087969084
0.00082624544
0.00077260081
0.00071835233
0.0006629386
0.00060755602
0.00055164006
0.00049520561
0.00043930911
0.00038518175
0.00033068601
0.0002914739
0.00023199176
0.00036758828
-0.0002269542
0.0049674429
0.0049968967
0.0050205901
0.0050441658
0.0050727707
0.0051094619
0.0051551571
0.0052105629
0.0052772915
0.0053568512
0.0054489351
0.0055487715
0.0056432214
0.0057051575
0.0056962971
0.0055961934
0.0054257944
0.0052270061
0.0050268294
0.0048312963
0.0046416203
0.0044612934
0.0042923153
0.0041336629
0.0039834373
0.0038410307
0.0037074305
0.0035839277
0.0034708651
0.0033673752
0.0032724749
0.0031862156
0.0031090312
0.0030405962
0.0029799553
0.0029260659
0.0028779313
0.0028345721
0.0027952062
0.0027591464
0.0027255883
0.0026938218
0.0026632171
0.0026331298
0.0026030416
0.002572622
0.0025417127
0.0025101932
0.0024778978
0.0024445927
0.0024100018
0.0023739836
0.0023365615
0.0022979618
0.0022584818
0.0022183279
0.0021778044
0.0021370431
0.0020961664
0.0020551698
0.0020138849
0.0019723723
0.0019306694
0.0018890065
0.0018473296
0.0018054231
0.0017633608
0.0017213511
0.001679129
0.0016363502
0.0015930795
0.0015495949
0.0015057018
0.0014612664
0.0014164594
0.0013713618
0.0013257097
0.0012790708
0.0012314769
0.0011834285
0.0011346459
0.0010851969
0.0010351901
0.0009841433
0.00093287602
0.00088089192
0.00082745643
0.0007738041
0.0007195863
0.00066416907
0.00060875697
0.00055282137
0.00049636791
0.00044044926
0.00038628107
0.00033175886
0.00029243895
0.00023283683
0.00036745586
-0.00022395409
0.0049478669
0.0049778433
0.0050034734
0.0050290858
0.0050587406
0.0050952842
0.0051399411
0.0051934501
0.0052569886
0.0053314731
0.0054159718
0.0055053773
0.0055872504
0.005638232
0.0056270108
0.0055357942
0.0053797839
0.0051938168
0.0050030879
0.0048150304
0.0046314123
0.0044555341
0.0042896882
0.0041334209
0.0039852477
0.003844669
0.0037125567
0.0035900908
0.0034776475
0.0033745437
0.0032799293
0.0031937881
0.0031164761
0.003047718
0.0029866331
0.0029322235
0.0028835312
0.0028396167
0.0027997009
0.0027630975
0.0027290292
0.0026967888
0.0026657503
0.0026352862
0.0026048816
0.0025742002
0.0025430687
0.002511357
0.0024788956
0.0024454548
0.0024107694
0.0023746978
0.0023372592
0.0022986636
0.0022591953
0.0022190607
0.0021785466
0.0021377907
0.0020969076
0.0020558972
0.0020146058
0.0019730838
0.001931376
0.0018896956
0.0018480006
0.0018060834
0.0017639983
0.0017219429
0.0016796918
0.0016369179
0.0015936493
0.001550107
0.0015061063
0.0014615588
0.0014166516
0.0013714084
0.001325619
0.0012791543
0.0012320582
0.0011845129
0.0011360068
0.0010864181
0.001036268
0.0009853263
0.00093392358
0.00088170107
0.00082833216
0.00077481166
0.00072066787
0.00066526201
0.0006098528
0.00055395003
0.00049748936
0.00044154171
0.0003873428
0.00033280273
0.0002933659
0.00023362967
0.00036700449
-0.00022045868
0.0049285711
0.0049588521
0.0049859254
0.0050131122
0.0050435825
0.0050798919
0.0051234141
0.0051748966
0.0052351563
0.0053045961
0.0053818013
0.0054615239
0.005532183
0.0055736534
0.0055602131
0.0054765506
0.0053335187
0.0051597735
0.0049783771
0.0047977378
0.004620209
0.0044489376
0.0042864088
0.0041326794
0.0039866641
0.0038479832
0.0037174202
0.00359606
0.0034843088
0.0033816459
0.0032873478
0.0032013515
0.003123943
0.0030548876
0.0029933781
0.0029384631
0.0028892226
0.0028447555
0.0028042898
0.0027671416
0.002732558
0.0026998382
0.0026683601
0.0026375118
0.002606783
0.0025758318
0.0025444713
0.0025125616
0.0024799298
0.0024463497
0.0024115662
0.002375438
0.0023379798
0.0022993865
0.0022599292
0.0022198132
0.0021793088
0.0021385572
0.0020976668
0.0020566418
0.002015344
0.0019738154
0.001932105
0.0018904071
0.0018486885
0.0018067544
0.0017646493
0.0017225598
0.0016802806
0.0016374906
0.001594201
0.0015506254
0.0015066167
0.0014620755
0.0014171404
0.0013718097
0.0013258973
0.0012793229
0.0012320966
0.0011844539
0.0011361358
0.0010869417
0.0010372214
0.00098661072
0.00093507362
0.00088263449
0.00082935346
0.0007757429
0.00072140519
0.00066605948
0.00061078016
0.00055494021
0.00049848718
0.0004425424
0.00038834875
0.00033379728
0.00029423828
0.00023435409
0.00036617224
-0.00021638207
0.0049094425
0.0049398403
0.0049679383
0.0049962828
0.005027324
0.0050632914
0.0051055863
0.0051549353
0.0052118579
0.0052763264
0.0053465661
0.0054173384
0.0054779974
0.0055112038
0.0054957345
0.0054185107
0.0052871381
0.0051249643
0.0049527414
0.0047794552
0.0046080255
0.004441492
0.0042824534
0.00413141
0.0039876574
0.0038509458
0.0037219943
0.0036018078
0.00349082
0.0033886536
0.003294704
0.0032088798
0.0031314054
0.003062079
0.0030001645
0.0029447591
0.0028949802
0.0028499638
0.002808949
0.0027712558
0.0027361538
0.0027029507
0.0026710291
0.0026397914
0.0026087328
0.0025775061
0.0025459116
0.0025137999
0.0024809947
0.0024472729
0.002412389
0.002376202
0.0023387225
0.0023001304
0.0022606836
0.0022205853
0.0021800905
0.0021393429
0.0020984456
0.0020574068
0.0020161029
0.001974568
0.0019328536
0.0018911369
0.0018493936
0.0018074436
0.0017653217
0.001723199
0.0016808862
0.0016380745
0.0015947666
0.0015511663
0.001507142
0.001462586
0.0014176238
0.0013722714
0.001326352
0.001279761
0.0012324672
0.0011847192
0.0011362912
0.0010869597
0.001037179
0.00098680855
0.00093560572
0.00088353097
0.00083054825
0.00077679867
0.00072223705
0.0006669573
0.00061160859
0.00055560834
0.00049922605
0.00044338917
0.00038922122
0.00033467945
0.00029502595
0.00023498167
0.00036488692
-0.00021162779
0.0048903809
0.0049207307
0.0049494975
0.004978628
0.0050099949
0.0050454973
0.0050864764
0.0051336066
0.005187164
0.0052467708
0.0053103979
0.005372929
0.0054246729
0.0054506952
0.0054334108
0.0053616985
0.0052407692
0.0050894819
0.004926228
0.0047602178
0.0045948782
0.0044331878
0.0042777985
0.0041295844
0.0039881994
0.0038535312
0.0037262562
0.0036073132
0.0034971611
0.0033955493
0.0033019849
0.003216363
0.0031388556
0.0030692874
0.0030069903
0.0029511118
0.0029008067
0.0028552469
0.0028136857
0.0027754487
0.0027398262
0.0027061366
0.002673768
0.0026421357
0.0026107411
0.0025792326
0.0025473985
0.0025150799
0.0024820973
0.0024482306
0.0024132431
0.0023769946
0.002339491
0.0023008982
0.0022614607
0.0022213789
0.0021808933
0.0021401493
0.0020992455
0.0020581932
0.0020168826
0.0019753409
0.0019336214
0.0018918862
0.0018501188
0.0018081528
0.001766013
0.0017238555
0.0016815078
0.0016386751
0.0015953514
0.0015517261
0.0015076807
0.0014631073
0.0014181233
0.0013727483
0.0013268092
0.0012801972
0.0012328944
0.0011851344
0.0011366797
0.0010872973
0.0010374144
0.00098692765
0.00093558305
0.00088352714
0.00083084044
0.00077739202
0.00072312629
0.00066805068
0.00061252317
0.0005563319
0.00049999578
0.00044409271
0.00038981494
0.00033536009
0.00029566587
0.00023543405
0.0003630386
-0.0002060896
0.0048712974
0.004901453
0.0049305844
0.0049601713
0.0049916263
0.005026532
0.0050661107
0.0051109583
0.0051611504
0.0052160351
0.0052734187
0.0053283877
0.0053721889
0.0053919643
0.0053730853
0.0053061174
0.0051945244
0.0050534217
0.0048988887
0.0047400626
0.0045807879
0.0044240211
0.0042724246
0.0041271771
0.0039882636
0.0038557148
0.003730183
0.0036125537
0.0035033098
0.0034023125
0.003309173
0.0032237855
0.0031462789
0.0030764996
0.0030138439
0.002957511
0.0029066929
0.0028605967
0.0028184925
0.0027797133
0.002743569
0.00270939
0.0026765708
0.0026445391
0.0026128028
0.0025810064
0.0025489271
0.0025163971
0.0024832336
0.0024492193
0.0024141254
0.0023778131
0.002340283
0.0023016878
0.0022622587
0.0022221923
0.0021817162
0.0021409756
0.0021000654
0.002059
0.0020176824
0.0019761339
0.0019344089
0.0018926556
0.0018508641
0.0018088811
0.0017667225
0.0017245302
0.0016821475
0.0016392937
0.0015959533
0.0015523015
0.0015082339
0.0014636448
0.0014186403
0.0013732399
0.0013272776
0.0012806471
0.0012333334
0.0011855488
0.0011370722
0.0010876898
0.0010377948
0.00098727346
0.0009358689
0.00088372147
0.00083091236
0.00077734157
0.00072320222
0.00066843722
0.00061316134
0.00055722112
0.0005009652
0.00044485621
0.00039044558
0.00033600624
0.00029609208
0.0002356066
0.00036047374
-0.00019967439
0.0048521129
0.0048819431
0.0049111781
0.0049409315
0.00497225
0.0050064245
0.0050445236
0.0050870442
0.005133897
0.0051842236
0.005235741
0.0052837932
0.0053205242
0.0053348683
0.0053146115
0.005251755
0.0051485008
0.0050168798
0.0048707801
0.0047190281
0.0045657786
0.0044139923
0.0042663147
0.0041241637
0.0039878236
0.0038574712
0.0037337506
0.003617506
0.0035092428
0.0034089217
0.00331625
0.0032311314
0.0031536612
0.0030837036
0.0030207156
0.0029639487
0.0029126328
0.0028660092
0.0028233668
0.0027840483
0.002747382
0.0027127118
0.0026794392
0.002647004
0.0026149206
0.0025828306
0.002550501
0.0025177551
0.0024844071
0.0024502423
0.0024150393
0.0023786603
0.0023411012
0.0023025017
0.0022630798
0.0022230276
0.0021825607
0.0021418232
0.0021009069
0.0020598286
0.0020185035
0.0019769482
0.0019352171
0.0018934457
0.00185163
0.001809629
0.0017674511
0.0017252242
0.0016828063
0.0016399302
0.0015965722
0.0015528936
0.0015088036
0.0014641984
0.0014191723
0.0013737452
0.00132776
0.0012811123
0.0012337854
0.0011859744
0.0011374782
0.0010880916
0.0010381749
0.00098763083
0.00093622273
0.00088406528
0.00083121392
0.00077757248
0.0007233413
0.000668441
0.0006131299
0.00055743394
0.00050145804
0.00044553568
0.00039126765
0.00033676372
0.00029652432
0.00023575738
0.00035710992
-0.00019230357
0.0048327574
0.004862144
0.0048912579
0.004920924
0.0049518982
0.0049852094
0.0050217562
0.0050619237
0.0051054864
0.0051514382
0.0051974683
0.0052392129
0.0052696571
0.0052792817
0.0052578535
0.0051985866
0.0051027806
0.0049799506
0.0048419627
0.0046971548
0.0045498767
0.0044031063
0.004259455
0.0041205215
0.0039868544
0.0038587755
0.0037369352
0.0036221466
0.003514937
0.0034153549
0.0033231971
0.0032383844
0.0031609876
0.0030908863
0.0030275944
0.0029704157
0.0029186187
0.0028714781
0.0028283039
0.0027884499
0.0027512625
0.0027160998
0.0026823717
0.0026495291
0.0026170936
0.0025847044
0.0025521192
0.002519153
0.002485617
0.0024512988
0.0024159838
0.0023795354
0.0023419448
0.002303339
0.0022639231
0.0022238842
0.0021834261
0.0021426914
0.0021017692
0.0020606786
0.0020193457
0.0019777834
0.0019360457
0.0018942565
0.0018524165
0.0018103968
0.0017681989
0.0017259376
0.001683484
0.0016405847
0.0015972083
0.0015535031
0.0015093901
0.0014647679
0.0014197195
0.0013742654
0.0013282573
0.0012815914
0.0012342501
0.0011864134
0.0011378979
0.0010885047
0.0010385655
0.00098800047
0.00093658177
0.00088440749
0.00083153933
0.00077789604
0.00072364472
0.00066868741
0.00061330082
0.00055750415
0.00050140033
0.00044557982
0.0003915715
0.00033726813
0.00029704667
0.00023599373
0.00035311536
-0.00018370333
0.0048131691
0.0048420051
0.0048708042
0.0049001622
0.0049306033
0.0049629262
0.0049978561
0.0050356607
0.005076003
0.0051177776
0.0051586958
0.0051947044
0.0052195658
0.0052250931
0.0052026862
0.0051465785
0.0050574311
0.0049427245
0.0048125002
0.0046744852
0.0045331109
0.0043913719
0.0042518356
0.0041162303
0.003985332
0.0038596033
0.0037397128
0.0036264518
0.0035203684
0.0034215895
0.0033299943
0.0032455271
0.0031682423
0.0030980339
0.0030344683
0.002976902
0.0029246423
0.0028769972
0.0028332989
0.0027929144
0.0027552079
0.0027195524
0.0026853672
0.0026521141
0.0026193219
0.0025866284
0.0025537826
0.002520592
0.0024868644
0.00245239
0.0024169602
0.0023804398
0.0023428151
0.002304201
0.0022647898
0.0022247629
0.0021843133
0.0021435813
0.0021026534
0.0020615507
0.0020202097
0.0019786403
0.0019368955
0.0018950885
0.0018532242
0.0018111851
0.0017689666
0.0017266709
0.0016841813
0.0016412579
0.0015978624
0.0015541303
0.0015099936
0.0014653535
0.0014202825
0.0013748013
0.0013287695
0.0012820846
0.0012347282
0.001186866
0.0011383303
0.0010889293
0.0010389686
0.00098838233
0.00093695069
0.00088476006
0.00083187573
0.00077822136
0.00072394859
0.00066898359
0.00061358565
0.00055774737
0.00050157562
0.00044566985
0.00039151187
0.00033717373
0.00029701018
0.00023580631
0.00034847401
-0.00017366251
0.0047932937
0.0048214824
0.0048497999
0.0048786588
0.0049083985
0.0049396182
0.004972876
0.0050083232
0.0050455317
0.0050833372
0.005119511
0.0051503171
0.0051702282
0.005172204
0.0051489954
0.0050956912
0.0050125061
0.0049052869
0.0047824583
0.0046510641
0.0045155121
0.0043788014
0.0042434498
0.0041112719
0.0039832335
0.0038599309
0.0037420595
0.0036303974
0.0035255129
0.0034276023
0.003336621
0.0032525412
0.0031754087
0.0031051314
0.0030413247
0.0029833969
0.0029306948
0.0028825592
0.0028383462
0.0027974376
0.0027592151
0.0027230675
0.0026884243
0.002654758
0.0026216051
0.0025886023
0.0025554914
0.0025220721
0.0024881496
0.0024535162
0.0024179689
0.0023813737
0.0023437121
0.0023050877
0.0022656799
0.0022256637
0.0021852223
0.0021444927
0.0021035592
0.0020624448
0.0020210955
0.0019795189
0.0019377664
0.0018959419
0.0018540532
0.001811994
0.0017697543
0.0017274242
0.0016848983
0.0016419499
0.0015985348
0.0015547756
0.0015106144
0.0014659557
0.0014208617
0.0013753528
0.0013292968
0.0012825923
0.0012352203
0.0011873324
0.0011387758
0.0010893662
0.0010393839
0.00098877559
0.00093733039
0.00088512405
0.00083222265
0.00077855471
0.00072426286
0.00066928686
0.00061386671
0.00055800693
0.00050183277
0.0004458983
0.00039165188
0.00033721541
0.00029660339
0.00023531611
0.00034200273
-0.00016221428
0.0047730839
0.0048005382
0.0048282308
0.0048564267
0.0048853176
0.0049153319
0.0049468728
0.0049799818
0.0050141572
0.0050482081
0.0050799941
0.0051060935
0.0051216223
0.0051205259
0.0050966769
0.0050458815
0.0049680469
0.0048677163
0.0047519038
0.0046269381
0.0044971131
0.0043654106
0.004234295
0.0041056311
0.0039805382
0.0038597353
0.0037439517
0.0036339594
0.0035303459
0.0034333696
0.0033430556
0.0032594077
0.0031824697
0.0031121634
0.0030481501
0.0029898888
0.0029367664
0.0028881565
0.0028434397
0.0028020147
0.0027632805
0.0027266425
0.0026915411
0.0026574599