/*--------------------------------*- C++ -*----------------------------------*\
  =========                 |
  \\      /  F ield         | OpenFOAM: The Open Source CFD Toolbox
   \\    /   O peration     | Website:  https://openfoam.org
    \\  /    A nd           | Version:  12
     \\/     M anipulation  |
\*---------------------------------------------------------------------------*/
FoamFile
{
    format      ascii;
    class       volScalarField;
    location    "300";
    object      p;
}
// * * * * * * * * * * * * * * * * * * * * * * * * * * * * * * * * * * * * * //

dimensions      [0 2 -2 0 0 0 0];

internalField   nonuniform List<scalar> 
13056
(
0.0040407137
0.0040603821
0.0041038763
0.0041590229
0.0042238592
0.0042984375
0.0043821878
0.0044743853
0.0045746731
0.0046830998
0.0048000239
0.0049261043
0.0050623815
0.0052104247
0.0053725435
0.0055521823
0.005754442
0.0059876213
0.0062641811
0.0066105369
0.0070609343
0.0077609112
0.0087353707
0.012129191
0.0090757448
0.0041712064
0.0041848685
0.0046212817
0.0046625184
0.004471036
0.0042967482
0.0042035673
0.0041319351
0.0040577862
0.0039862413
0.0039209147
0.0038596472
0.0038020474
0.0037474262
0.0036966203
0.0036488507
0.0036035807
0.0035606383
0.0035192433
0.0034799622
0.0034415539
0.00340517
0.0033701559
0.0033351021
0.003302362
0.0032704993
0.0032381621
0.0032079146
0.00317835
0.0031482423
0.0031194306
0.0030915381
0.0030633684
0.0030351234
0.0030085439
0.0029822997
0.002955069
0.0029281433
0.0029027103
0.0028773601
0.0028508806
0.0028247724
0.0027999076
0.0027751687
0.0027493117
0.0027235298
0.0026985441
0.0026738944
0.0026484089
0.0026224467
0.0025967092
0.0025718044
0.0025465591
0.0025200187
0.0024935653
0.002467597
0.0024416506
0.0024147074
0.0023871784
0.0023595772
0.0023325452
0.002305009
0.002275968
0.0022467453
0.0022176787
0.0021883691
0.0021578718
0.0021264756
0.0020947835
0.0020631635
0.0020305043
0.0019962166
0.0019613042
0.0019263941
0.001890373
0.0018523521
0.0018133545
0.0017740323
0.0017332727
0.0016901543
0.0016456303
0.0016003472
0.0015529458
0.001502569
0.0014506904
0.0013967746
0.0013395253
0.0012794694
0.0012182405
0.0011563589
0.0010947776
0.0010350598
0.00097628968
0.00091755761
0.00085964197
0.00080327952
0.0007476397
0.00069198886
0.00063715829
0.00058358662
0.00053132431
0.00047972415
0.00042873596
0.00037942544
0.00033206651
0.0002884399
0.00024606298
0.00021704016
0.00017633598
0.0002963676
-0.00022738378
0.0040407137
0.0040603821
0.0041038763
0.0041590229
0.0042238592
0.0042984375
0.0043821878
0.0044743853
0.0045746731
0.0046830998
0.0048000239
0.0049261043
0.0050623815
0.0052104248
0.0053725435
0.0055521823
0.005754442
0.0059876213
0.0062641811
0.0066105369
0.0070609343
0.0077609111
0.0087353713
0.012127186
0.0090765078
0.0041718126
0.0041848864
0.0046212941
0.0046625448
0.004471064
0.004296773
0.0042035885
0.0041319535
0.0040578023
0.0039862555
0.0039209275
0.003859659
0.0038020583
0.0037474361
0.0036966295
0.0036488592
0.0036035886
0.0035606456
0.0035192501
0.0034799686
0.0034415599
0.0034051756
0.0033701612
0.0033351071
0.0033023667
0.0032705038
0.0032381664
0.0032079187
0.0031783539
0.003148246
0.0031194341
0.0030915415
0.0030633716
0.0030351264
0.0030085468
0.0029823025
0.0029550717
0.0029281458
0.0029027128
0.0028773625
0.0028508829
0.0028247746
0.0027999098
0.0027751707
0.0027493136
0.0027235317
0.0026985459
0.0026738961
0.0026484106
0.0026224483
0.0025967108
0.0025718059
0.0025465606
0.0025200201
0.0024935666
0.0024675983
0.0024416518
0.0024147086
0.0023871795
0.0023595784
0.0023325463
0.0023050101
0.0022759691
0.0022467463
0.0022176797
0.00218837
0.0021578726
0.0021264764
0.0020947843
0.0020631643
0.0020305051
0.0019962173
0.0019613049
0.0019263948
0.0018903737
0.0018523527
0.0018133551
0.0017740328
0.0017332733
0.0016901549
0.0016456308
0.0016003477
0.0015529463
0.0015025694
0.0014506908
0.001396775
0.0013395257
0.0012794697
0.0012182409
0.0011563592
0.0010947779
0.0010350601
0.00097628996
0.00091755787
0.00085964222
0.00080327976
0.00074763993
0.00069198909
0.00063715851
0.00058358683
0.00053132452
0.00047972435
0.00042873615
0.00037942562
0.00033206669
0.00028844008
0.00024606315
0.00021704033
0.00017633615
0.0002963678
-0.00022738365
0.0040407137
0.0040603821
0.0041038763
0.0041590229
0.0042238592
0.0042984375
0.0043821878
0.0044743853
0.0045746731
0.0046830998
0.0048000239
0.0049261043
0.0050623815
0.0052104248
0.0053725435
0.0055521823
0.005754442
0.0059876214
0.0062641812
0.006610537
0.0070609342
0.0077609109
0.0087353717
0.012125152
0.0090773365
0.0041725009
0.0041849078
0.004621309
0.0046625764
0.0044710974
0.0042968027
0.0042036139
0.0041319754
0.0040578215
0.0039862726
0.003920943
0.0038596731
0.0038020712
0.0037474481
0.0036966405
0.0036488693
0.003603598
0.0035606543
0.0035192583
0.0034799762
0.0034415671
0.0034051824
0.0033701676
0.0033351131
0.0033023724
0.0032705092
0.0032381715
0.0032079235
0.0031783585
0.0031482503
0.0031194383
0.0030915454
0.0030633754
0.0030351301
0.0030085503
0.0029823058
0.0029550749
0.0029281489
0.0029027157
0.0028773654
0.0028508856
0.0028247772
0.0027999123
0.0027751732
0.002749316
0.0027235339
0.0026985481
0.0026738982
0.0026484126
0.0026224502
0.0025967127
0.0025718077
0.0025465623
0.0025200218
0.0024935683
0.0024675999
0.0024416533
0.0024147101
0.0023871809
0.0023595797
0.0023325476
0.0023050114
0.0022759703
0.0022467474
0.0022176808
0.0021883711
0.0021578737
0.0021264774
0.0020947853
0.0020631653
0.002030506
0.0019962181
0.0019613057
0.0019263956
0.0018903744
0.0018523534
0.0018133558
0.0017740335
0.0017332739
0.0016901555
0.0016456314
0.0016003482
0.0015529468
0.0015025699
0.0014506913
0.0013967755
0.0013395261
0.0012794701
0.0012182413
0.0011563596
0.0010947782
0.0010350604
0.00097629029
0.00091755819
0.00085964253
0.00080328005
0.00074764021
0.00069198936
0.00063715877
0.00058358708
0.00053132476
0.00047972458
0.00042873637
0.00037942584
0.0003320669
0.00028844028
0.00024606335
0.00021704053
0.00017633635
0.00029636804
-0.0002273835
0.0040407137
0.0040603821
0.0041038763
0.0041590229
0.0042238592
0.0042984375
0.0043821878
0.0044743853
0.0045746731
0.0046830998
0.0048000239
0.0049261043
0.0050623815
0.0052104248
0.0053725435
0.0055521823
0.005754442
0.0059876214
0.0062641812
0.0066105369
0.0070609341
0.0077609103
0.0087353721
0.012123128
0.0090781984
0.0041731024
0.0041849289
0.0046213237
0.0046626073
0.0044711302
0.0042968318
0.0042036388
0.004131997
0.0040578404
0.0039862894
0.0039209581
0.0038596869
0.0038020839
0.0037474597
0.0036966512
0.0036488792
0.0036036072
0.0035606629
0.0035192663
0.0034799837
0.0034415742
0.003405189
0.0033701738
0.003335119
0.003302378
0.0032705144
0.0032381765
0.0032079283
0.003178363
0.0031482546
0.0031194424
0.0030915494
0.0030633791
0.0030351337
0.0030085537
0.0029823091
0.002955078
0.0029281519
0.0029027186
0.0028773681
0.0028508883
0.0028247798
0.0027999148
0.0027751755
0.0027493182
0.0027235361
0.0026985502
0.0026739003
0.0026484146
0.0026224521
0.0025967145
0.0025718095
0.002546564
0.0025200235
0.0024935699
0.0024676014
0.0024416548
0.0024147115
0.0023871823
0.002359581
0.0023325489
0.0023050126
0.0022759715
0.0022467486
0.0022176819
0.0021883722
0.0021578747
0.0021264784
0.0020947862
0.0020631662
0.0020305069
0.001996219
0.0019613065
0.0019263964
0.0018903752
0.0018523541
0.0018133565
0.0017740342
0.0017332746
0.0016901561
0.001645632
0.0016003488
0.0015529473
0.0015025704
0.0014506917
0.001396776
0.0013395265
0.0012794706
0.0012182417
0.0011563599
0.0010947786
0.0010350607
0.00097629062
0.0009175585
0.00085964282
0.00080328034
0.00074764049
0.00069198962
0.00063715902
0.00058358733
0.00053132499
0.00047972481
0.00042873659
0.00037942605
0.00033206711
0.00028844049
0.00024606355
0.00021704073
0.00017633654
0.00029636827
-0.00022738335
0.0040407137
0.0040603821
0.0041038763
0.0041590229
0.0042238592
0.0042984375
0.0043821878
0.0044743853
0.0045746731
0.0046830999
0.0048000239
0.0049261043
0.0050623815
0.0052104248
0.0053725435
0.0055521824
0.005754442
0.0059876214
0.0062641811
0.0066105368
0.007060934
0.0077609094
0.0087353726
0.012120908
0.0090790895
0.0041736658
0.0041849508
0.0046213391
0.0046626392
0.004471164
0.0042968616
0.0042036644
0.0041320191
0.0040578598
0.0039863065
0.0039209736
0.0038597011
0.003802097
0.0037474717
0.0036966623
0.0036488894
0.0036036167
0.0035606717
0.0035192745
0.0034799914
0.0034415814
0.0034051958
0.0033701802
0.003335125
0.0033023837
0.0032705199
0.0032381816
0.0032079331
0.0031783676
0.0031482591
0.0031194466
0.0030915534
0.0030633829
0.0030351373
0.0030085572
0.0029823125
0.0029550812
0.002928155
0.0029027216
0.002877371
0.0028508911
0.0028247824
0.0027999173
0.002775178
0.0027493206
0.0027235384
0.0026985524
0.0026739024
0.0026484166
0.0026224541
0.0025967164
0.0025718113
0.0025465658
0.0025200251
0.0024935715
0.002467603
0.0024416563
0.0024147129
0.0023871837
0.0023595824
0.0023325502
0.0023050138
0.0022759727
0.0022467497
0.002217683
0.0021883733
0.0021578757
0.0021264794
0.0020947872
0.0020631671
0.0020305078
0.0019962199
0.0019613073
0.0019263972
0.0018903759
0.0018523549
0.0018133572
0.0017740349
0.0017332752
0.0016901567
0.0016456326
0.0016003494
0.0015529479
0.0015025709
0.0014506922
0.0013967764
0.001339527
0.001279471
0.0012182421
0.0011563603
0.001094779
0.0010350611
0.00097629095
0.00091755881
0.00085964313
0.00080328063
0.00074764077
0.00069198989
0.00063715928
0.00058358758
0.00053132524
0.00047972504
0.00042873682
0.00037942627
0.00033206732
0.00028844069
0.00024606375
0.00021704093
0.00017633674
0.0002963685
-0.00022738321
0.0040407137
0.0040603821
0.0041038763
0.0041590229
0.0042238592
0.0042984375
0.0043821878
0.0044743853
0.0045746731
0.0046830999
0.0048000239
0.0049261043
0.0050623815
0.0052104248
0.0053725435
0.0055521824
0.005754442
0.0059876214
0.0062641811
0.0066105367
0.0070609338
0.0077609081
0.0087353734
0.012118414
0.0090798183
0.0041742038
0.0041849759
0.0046213565
0.0046626737
0.0044712004
0.0042968939
0.0042036919
0.0041320429
0.0040578807
0.003986325
0.0039209902
0.0038597164
0.003802111
0.0037474846
0.0036966742
0.0036489004
0.0036036268
0.0035606812
0.0035192833
0.0034799997
0.0034415891
0.0034052031
0.0033701871
0.0033351315
0.0033023898
0.0032705256
0.0032381871
0.0032079383
0.0031783726
0.0031482638
0.0031194511
0.0030915577
0.003063387
0.0030351412
0.003008561
0.002982316
0.0029550847
0.0029281583
0.0029027248
0.002877374
0.002850894
0.0028247852
0.00279992
0.0027751806
0.0027493231
0.0027235408
0.0026985547
0.0026739046
0.0026484187
0.0026224562
0.0025967184
0.0025718132
0.0025465676
0.0025200269
0.0024935732
0.0024676047
0.0024416579
0.0024147145
0.0023871852
0.0023595838
0.0023325516
0.0023050152
0.002275974
0.002246751
0.0022176842
0.0021883744
0.0021578769
0.0021264805
0.0020947882
0.0020631681
0.0020305087
0.0019962208
0.0019613082
0.001926398
0.0018903768
0.0018523556
0.0018133579
0.0017740356
0.0017332759
0.0016901574
0.0016456332
0.00160035
0.0015529485
0.0015025715
0.0014506928
0.0013967769
0.0013395275
0.0012794714
0.0012182425
0.0011563607
0.0010947794
0.0010350615
0.0009762913
0.00091755915
0.00085964345
0.00080328094
0.00074764107
0.00069199018
0.00063715956
0.00058358785
0.0005313255
0.00047972529
0.00042873706
0.00037942651
0.00033206755
0.00028844091
0.00024606396
0.00021704114
0.00017633694
0.00029636876
-0.00022738305
0.0040407137
0.0040603821
0.0041038763
0.0041590229
0.0042238592
0.0042984375
0.0043821879
0.0044743853
0.0045746731
0.0046830999
0.004800024
0.0049261043
0.0050623815
0.0052104248
0.0053725435
0.0055521824
0.005754442
0.0059876213
0.006264181
0.0066105365
0.0070609335
0.0077609063
0.0087353744
0.012115614
0.0090803487
0.004174744
0.0041850094
0.0046213781
0.0046627127
0.0044712416
0.0042969301
0.0042037228
0.0041320695
0.004057904
0.0039863457
0.0039210088
0.0038597334
0.0038021266
0.0037474989
0.0036966873
0.0036489125
0.003603638
0.0035606916
0.0035192931
0.0034800088
0.0034415977
0.0034052111
0.0033701947
0.0033351387
0.0033023966
0.003270532
0.0032381931
0.0032079441
0.0031783781
0.003148269
0.0031194561
0.0030915624
0.0030633915
0.0030351456
0.0030085651
0.00298232
0.0029550884
0.0029281619
0.0029027283
0.0028773774
0.0028508972
0.0028247883
0.002799923
0.0027751835
0.0027493259
0.0027235435
0.0026985572
0.0026739071
0.0026484211
0.0026224585
0.0025967206
0.0025718153
0.0025465697
0.0025200289
0.0024935751
0.0024676065
0.0024416597
0.0024147162
0.0023871869
0.0023595854
0.0023325532
0.0023050167
0.0022759754
0.0022467524
0.0022176856
0.0021883757
0.0021578781
0.0021264817
0.0020947894
0.0020631692
0.0020305098
0.0019962218
0.0019613092
0.001926399
0.0018903777
0.0018523565
0.0018133587
0.0017740364
0.0017332766
0.0016901581
0.0016456339
0.0016003506
0.0015529491
0.0015025721
0.0014506933
0.0013967775
0.001339528
0.0012794719
0.001218243
0.0011563612
0.0010947798
0.0010350619
0.00097629169
0.00091755952
0.00085964381
0.00080328128
0.00074764139
0.00069199049
0.00063715986
0.00058358814
0.00053132578
0.00047972557
0.00042873732
0.00037942676
0.00033206779
0.00028844116
0.0002460642
0.00021704138
0.00017633716
0.00029636903
-0.00022738288
0.0040407137
0.0040603821
0.0041038763
0.0041590229
0.0042238592
0.0042984375
0.0043821879
0.0044743853
0.0045746731
0.0046830999
0.004800024
0.0049261043
0.0050623815
0.0052104248
0.0053725435
0.0055521823
0.005754442
0.0059876213
0.0062641809
0.0066105363
0.0070609331
0.0077609039
0.0087353757
0.012112469
0.0090806961
0.0041754072
0.0041850644
0.0046214082
0.0046627598
0.0044712905
0.004296973
0.0042037593
0.0041321009
0.0040579313
0.0039863698
0.0039210305
0.0038597531
0.0038021447
0.0037475155
0.0036967025
0.0036489266
0.003603651
0.0035607037
0.0035193043
0.0034800193
0.0034416075
0.0034052204
0.0033702034
0.0033351468
0.0033024043
0.0032705393
0.0032382001
0.0032079506
0.0031783843
0.0031482749
0.0031194617
0.0030915677
0.0030633967
0.0030351505
0.0030085698
0.0029823245
0.0029550927
0.002928166
0.0029027322
0.0028773812
0.0028509009
0.0028247918
0.0027999263
0.0027751867
0.002749329
0.0027235465
0.0026985601
0.0026739098
0.0026484238
0.002622461
0.002596723
0.0025718177
0.002546572
0.0025200311
0.0024935773
0.0024676086
0.0024416617
0.0024147181
0.0023871887
0.0023595872
0.0023325549
0.0023050183
0.002275977
0.0022467539
0.002217687
0.0021883771
0.0021578795
0.002126483
0.0020947906
0.0020631704
0.0020305109
0.0019962229
0.0019613103
0.0019264
0.0018903787
0.0018523575
0.0018133597
0.0017740373
0.0017332775
0.0016901589
0.0016456347
0.0016003514
0.0015529498
0.0015025728
0.001450694
0.0013967781
0.0013395286
0.0012794725
0.0012182435
0.0011563616
0.0010947802
0.0010350623
0.00097629212
0.00091755993
0.0008596442
0.00080328166
0.00074764175
0.00069199084
0.0006371602
0.00058358846
0.00053132609
0.00047972587
0.00042873762
0.00037942704
0.00033206807
0.00028844142
0.00024606446
0.00021704164
0.00017633741
0.00029636933
-0.00022738269
0.0040407137
0.0040603821
0.0041038764
0.0041590229
0.0042238592
0.0042984375
0.0043821879
0.0044743853
0.0045746731
0.0046830999
0.004800024
0.0049261044
0.0050623815
0.0052104248
0.0053725435
0.0055521823
0.005754442
0.0059876212
0.0062641808
0.006610536
0.0070609325
0.0077609009
0.0087353774
0.012108926
0.0090808151
0.0041763417
0.0041851685
0.0046214556
0.0046628209
0.0044713527
0.0042970272
0.0042038052
0.0041321402
0.0040579654
0.0039863998
0.0039210573
0.0038597775
0.0038021669
0.0037475359
0.0036967212
0.0036489437
0.0036036669
0.0035607183
0.003519318
0.0034800321
0.0034416194
0.0034052315
0.0033702138
0.0033351567
0.0033024136
0.0032705481
0.0032382084
0.0032079585
0.0031783917
0.003148282
0.0031194685
0.0030915742
0.0030634028
0.0030351563
0.0030085754
0.0029823298
0.0029550978
0.0029281709
0.0029027369
0.0028773857
0.0028509052
0.002824796
0.0027999303
0.0027751905
0.0027493326
0.00272355
0.0026985635
0.0026739131
0.0026484269
0.0026224641
0.002596726
0.0025718205
0.0025465747
0.0025200337
0.0024935798
0.002467611
0.002441664
0.0024147204
0.0023871909
0.0023595893
0.0023325569
0.0023050202
0.0022759788
0.0022467557
0.0022176888
0.0021883788
0.002157881
0.0021264845
0.0020947921
0.0020631718
0.0020305123
0.0019962242
0.0019613115
0.0019264012
0.0018903798
0.0018523586
0.0018133607
0.0017740383
0.0017332785
0.0016901598
0.0016456356
0.0016003522
0.0015529506
0.0015025735
0.0014506947
0.0013967788
0.0013395292
0.0012794731
0.0012182441
0.0011563622
0.0010947808
0.0010350628
0.00097629261
0.0009175604
0.00085964465
0.00080328209
0.00074764217
0.00069199124
0.00063716058
0.00058358883
0.00053132644
0.00047972621
0.00042873795
0.00037942737
0.00033206838
0.00028844173
0.00024606475
0.00021704193
0.00017633769
0.00029636968
-0.00022738248
0.0040407137
0.0040603821
0.0041038764
0.0041590229
0.0042238592
0.0042984375
0.0043821879
0.0044743853
0.0045746731
0.0046830999
0.004800024
0.0049261044
0.0050623815
0.0052104248
0.0053725435
0.0055521823
0.0057544419
0.0059876211
0.0062641805
0.0066105355
0.0070609318
0.0077608969
0.0087353794
0.012104911
0.0090803729
0.0041776765
0.0041853716
0.0046215357
0.0046629047
0.0044714358
0.0042970993
0.0042038659
0.0041321919
0.0040580101
0.003986439
0.0039210922
0.0038598091
0.0038021957
0.0037475622
0.0036967452
0.0036489658
0.0036036872
0.0035607371
0.0035193354
0.0034800483
0.0034416346
0.0034052458
0.0033702272
0.0033351692
0.0033024254
0.0032705592
0.0032382189
0.0032079685
0.0031784012
0.0031482909
0.003119477
0.0030915823
0.0030634105
0.0030351637
0.0030085824
0.0029823365
0.0029551042
0.0029281771
0.0029027428
0.0028773913
0.0028509106
0.0028248012
0.0027999353
0.0027751953
0.0027493372
0.0027235544
0.0026985677
0.0026739172
0.0026484308
0.0026224678
0.0025967296
0.002571824
0.002546578
0.0025200369
0.0024935829
0.002467614
0.0024416669
0.0024147231
0.0023871935
0.0023595918
0.0023325593
0.0023050226
0.0022759811
0.0022467579
0.0022176909
0.0021883808
0.002157883
0.0021264864
0.0020947939
0.0020631736
0.002030514
0.0019962258
0.0019613131
0.0019264027
0.0018903812
0.0018523599
0.001813362
0.0017740395
0.0017332796
0.001690161
0.0016456367
0.0016003532
0.0015529516
0.0015025745
0.0014506956
0.0013967796
0.00133953
0.0012794739
0.0012182448
0.0011563629
0.0010947814
0.0010350635
0.0009762932
0.00091756096
0.00085964519
0.0008032826
0.00074764266
0.00069199171
0.00063716104
0.00058358927
0.00053132687
0.00047972662
0.00042873834
0.00037942775
0.00033206875
0.00028844209
0.0002460651
0.00021704228
0.00017633803
0.00029637009
-0.00022738222
0.0040407137
0.0040603821
0.0041038764
0.0041590229
0.0042238592
0.0042984375
0.0043821879
0.0044743853
0.0045746731
0.0046830999
0.004800024
0.0049261044
0.0050623815
0.0052104248
0.0053725435
0.0055521823
0.0057544418
0.0059876209
0.0062641803
0.0066105349
0.0070609309
0.0077608919
0.0087353821
0.012100345
0.0090791094
0.0041795242
0.004185751
0.0046216721
0.004663023
0.0044715494
0.0042971975
0.0042039484
0.0041322618
0.0040580705
0.0039864917
0.0039211391
0.0038598515
0.0038022342
0.0037475973
0.0036967773
0.0036489951
0.0036037142
0.0035607621
0.0035193586
0.0034800699
0.0034416548
0.0034052646
0.0033702448
0.0033351858
0.003302441
0.0032705739
0.0032382328
0.0032079816
0.0031784136
0.0031483027
0.0031194882
0.0030915929
0.0030634206
0.0030351733
0.0030085916
0.0029823452
0.0029551126
0.0029281851
0.0029027504
0.0028773987
0.0028509176
0.0028248079
0.0027999418
0.0027752015
0.0027493432
0.0027235601
0.0026985732
0.0026739224
0.0026484359
0.0026224727
0.0025967343
0.0025718285
0.0025465824
0.0025200411
0.0024935869
0.0024676178
0.0024416706
0.0024147267
0.002387197
0.0023595952
0.0023325625
0.0023050257
0.0022759841
0.0022467607
0.0022176936
0.0021883834
0.0021578855
0.0021264888
0.0020947962
0.0020631758
0.0020305161
0.0019962279
0.001961315
0.0019264046
0.001890383
0.0018523616
0.0018133637
0.0017740411
0.0017332811
0.0016901624
0.001645638
0.0016003545
0.0015529528
0.0015025756
0.0014506967
0.0013967807
0.001339531
0.0012794748
0.0012182457
0.0011563637
0.0010947822
0.0010350642
0.00097629394
0.00091756167
0.00085964586
0.00080328325
0.00074764328
0.00069199231
0.00063716161
0.00058358982
0.0005313274
0.00047972713
0.00042873884
0.00037942823
0.00033206921
0.00028844254
0.00024606554
0.00021704272
0.00017633844
0.0002963706
-0.00022738191
0.0040407137
0.0040603821
0.0041038764
0.0041590229
0.0042238592
0.0042984375
0.0043821879
0.0044743853
0.0045746731
0.0046830999
0.004800024
0.0049261044
0.0050623815
0.0052104248
0.0053725435
0.0055521822
0.0057544417
0.0059876208
0.0062641799
0.0066105342
0.0070609297
0.0077608853
0.0087353854
0.012095144
0.0090773881
0.0041819677
0.0041864108
0.0046219014
0.0046631896
0.0044717041
0.0042973308
0.0042040603
0.0041323566
0.0040581521
0.0039865629
0.0039212024
0.0038599085
0.003802286
0.0037476445
0.0036968204
0.0036490346
0.0036037506
0.0035607957
0.0035193897
0.0034800989
0.0034416818
0.0034052898
0.0033702685
0.003335208
0.0033024619
0.0032705936
0.0032382513
0.0032079991
0.0031784302
0.0031483185
0.0031195031
0.0030916071
0.0030634341
0.0030351862
0.0030086038
0.0029823569
0.0029551238
0.0029281958
0.0029027607
0.0028774085
0.002850927
0.0028248169
0.0027999504
0.0027752097
0.0027493511
0.0027235677
0.0026985805
0.0026739294
0.0026484426
0.0026224791
0.0025967405
0.0025718345
0.0025465881
0.0025200466
0.0024935922
0.0024676229
0.0024416755
0.0024147314
0.0023872015
0.0023595995
0.0023325667
0.0023050297
0.0022759879
0.0022467644
0.0022176972
0.0021883869
0.0021578888
0.002126492
0.0020947993
0.0020631787
0.0020305189
0.0019962305
0.0019613176
0.001926407
0.0018903854
0.0018523639
0.0018133658
0.0017740431
0.0017332831
0.0016901643
0.0016456398
0.0016003562
0.0015529544
0.0015025772
0.0014506982
0.0013967821
0.0013395323
0.0012794761
0.0012182469
0.0011563649
0.0010947833
0.0010350652
0.0009762949
0.00091756259
0.00085964674
0.00080328409
0.00074764409
0.00069199308
0.00063716235
0.00058359053
0.00053132809
0.00047972779
0.00042873948
0.00037942885
0.00033206981
0.00028844312
0.00024606611
0.00021704328
0.00017633898
0.00029637126
-0.0002273815
0.0040407137
0.0040603821
0.0041038764
0.0041590229
0.0042238592
0.0042984375
0.0043821879
0.0044743853
0.0045746731
0.0046830999
0.004800024
0.0049261044
0.0050623815
0.0052104248
0.0053725434
0.0055521821
0.0057544416
0.0059876205
0.0062641794
0.0066105332
0.0070609282
0.007760877
0.0087353896
0.012089214
0.0090756182
0.0041851017
0.0041874727
0.0046222804
0.00466342
0.0044719094
0.0042975076
0.0042042091
0.0041324827
0.0040582607
0.0039866579
0.0039212866
0.0038599841
0.0038023546
0.003747707
0.0036968775
0.003649087
0.0036037987
0.0035608402
0.003519431
0.0034801373
0.0034417176
0.0034053234
0.0033702999
0.0033352375
0.0033024896
0.0032706197
0.003238276
0.0032080225
0.0031784523
0.0031483394
0.003119523
0.003091626
0.0030634521
0.0030352033
0.0030086202
0.0029823725
0.0029551387
0.00292821
0.0029027743
0.0028774215
0.0028509395
0.0028248289
0.0027999619
0.0027752207
0.0027493616
0.0027235778
0.0026985902
0.0026739388
0.0026484516
0.0026224878
0.0025967488
0.0025718425
0.0025465958
0.002520054
0.0024935993
0.0024676297
0.0024416821
0.0024147377
0.0023872076
0.0023596053
0.0023325723
0.0023050351
0.0022759931
0.0022467694
0.002217702
0.0021883915
0.0021578932
0.0021264962
0.0020948033
0.0020631826
0.0020305226
0.0019962341
0.001961321
0.0019264103
0.0018903885
0.0018523669
0.0018133687
0.0017740459
0.0017332857
0.0016901668
0.0016456422
0.0016003585
0.0015529566
0.0015025792
0.0014507001
0.0013967839
0.0013395341
0.0012794777
0.0012182484
0.0011563663
0.0010947847
0.0010350666
0.00097629618
0.0009175638
0.0008596479
0.0008032852
0.00074764515
0.0006919941
0.00063716333
0.00058359148
0.000531329
0.00047972867
0.00042874032
0.00037942967
0.00033207061
0.0002884439
0.00024606686
0.00021704403
0.00017633969
0.00029637213
-0.00022738095
0.0040407137
0.0040603821
0.0041038764
0.0041590229
0.0042238592
0.0042984375
0.0043821879
0.0044743853
0.0045746731
0.0046830999
0.004800024
0.0049261044
0.0050623815
0.0052104247
0.0053725434
0.005552182
0.0057544414
0.0059876202
0.0062641788
0.0066105319
0.0070609262
0.0077608663
0.0087353949
0.012082447
0.0090738537
0.0041891487
0.0041890489
0.0046228766
0.0046637394
0.0044721787
0.0042977382
0.0042044033
0.0041326472
0.0040584024
0.0039867819
0.0039213954
0.0038600809
0.0038024425
0.0037477873
0.0036969509
0.0036491543
0.0036038608
0.0035608975
0.0035194842
0.0034801869
0.003441764
0.0034053668
0.0033703406
0.0033352758
0.0033025256
0.0032706536
0.0032383081
0.0032080529
0.0031784811
0.0031483667
0.003119549
0.0030916506
0.0030634756
0.0030352257
0.0030086416
0.0029823929
0.0029551582
0.0029282287
0.0029027922
0.0028774386
0.0028509559
0.0028248446
0.0027999769
0.0027752351
0.0027493755
0.0027235911
0.002698603
0.002673951
0.0026484634
0.0026224991
0.0025967596
0.0025718529
0.0025466058
0.0025200637
0.0024936086
0.0024676387
0.0024416907
0.002414746
0.0023872155
0.002359613
0.0023325797
0.0023050422
0.0022759999
0.002246776
0.0022177082
0.0021883975
0.002157899
0.0021265018
0.0020948087
0.0020631878
0.0020305276
0.0019962388
0.0019613256
0.0019264147
0.0018903927
0.0018523709
0.0018133725
0.0017740495
0.0017332892
0.0016901701
0.0016456454
0.0016003615
0.0015529595
0.001502582
0.0014507027
0.0013967864
0.0013395364
0.0012794799
0.0012182505
0.0011563683
0.0010947866
0.0010350684
0.00097629787
0.00091756542
0.00085964944
0.00080328668
0.00074764657
0.00069199546
0.00063716463
0.00058359273
0.0005313302
0.00047972984
0.00042874145
0.00037943075
0.00033207166
0.00028844492
0.00024606785
0.00021704502
0.00017634064
0.00029637329
-0.00022738024
0.0040407137
0.0040603821
0.0041038764
0.0041590229
0.0042238592
0.0042984375
0.0043821879
0.0044743853
0.0045746732
0.0046830999
0.004800024
0.0049261043
0.0050623815
0.0052104247
0.0053725433
0.0055521819
0.0057544411
0.0059876197
0.006264178
0.0066105302
0.0070609237
0.0077608526
0.0087354015
0.012074709
0.0090720949
0.0041945288
0.004191243
0.0046237638
0.0046641825
0.0044725302
0.0042980352
0.0042046525
0.0041328574
0.0040585827
0.0039869389
0.003921533
0.003860203
0.0038025534
0.0037478885
0.0036970436
0.0036492394
0.0036039392
0.0035609701
0.0035195517
0.0034802498
0.0034418228
0.0034054218
0.0033703922
0.0033353244
0.0033025714
0.0032706968
0.0032383489
0.0032080916
0.0031785178
0.0031484016
0.0031195821
0.0030916822
0.0030635056
0.0030352544
0.0030086689
0.0029824191
0.0029551832
0.0029282526
0.002902815
0.0028774602
0.0028509766
0.0028248644
0.0027999959
0.0027752534
0.002749393
0.0027236079
0.0026986192
0.0026739666
0.0026484783
0.0026225134
0.0025967735
0.0025718662
0.0025466186
0.002520076
0.0024936204
0.0024676501
0.0024417017
0.0024147566
0.0023872257
0.0023596228
0.0023325891
0.0023050513
0.0022760087
0.0022467844
0.0022177163
0.0021884053
0.0021579065
0.002126509
0.0020948156
0.0020631944
0.0020305339
0.0019962449
0.0019613314
0.0019264202
0.001890398
0.001852376
0.0018133774
0.0017740542
0.0017332937
0.0016901744
0.0016456494
0.0016003654
0.0015529632
0.0015025855
0.001450706
0.0013967895
0.0013395394
0.0012794828
0.0012182532
0.0011563709
0.001094789
0.0010350707
0.00097630007
0.00091756751
0.00085965145
0.0008032886
0.0007476484
0.00069199722
0.00063716633
0.00058359437
0.00053133178
0.00047973135
0.00042874291
0.00037943217
0.00033207303
0.00028844626
0.00024606915
0.00021704631
0.00017634187
0.0002963748
-0.0002273793
0.0040407137
0.0040603821
0.0041038764
0.0041590229
0.0042238592
0.0042984376
0.0043821879
0.0044743854
0.0045746732
0.0046830999
0.004800024
0.0049261043
0.0050623814
0.0052104246
0.0053725432
0.0055521817
0.0057544408
0.0059876191
0.006264177
0.0066105281
0.0070609205
0.0077608352
0.0087354097
0.012065836
0.0090703793
0.0042013913
0.0041941388
0.0046250376
0.0046647929
0.0044729869
0.0042984147
0.0042049692
0.0041331235
0.00405881
0.0039871362
0.0039217063
0.0038603577
0.0038026936
0.0037480164
0.0036971605
0.0036493466
0.0036040379
0.0035610614
0.0035196364
0.0034803287
0.0034418965
0.0034054908
0.003370457
0.0033353852
0.0033026287
0.0032707509
0.0032384
0.00320814
0.0031785636
0.0031484451
0.0031196235
0.0030917215
0.0030635431
0.0030352902
0.0030087031
0.0029824517
0.0029552144
0.0029282825
0.0029028433
0.0028774872
0.0028510023
0.0028248891
0.0028000196
0.0027752761
0.0027494148
0.0027236289
0.0026986393
0.0026739859
0.0026484969
0.0026225314
0.0025967907
0.0025718828
0.0025466346
0.0025200914
0.0024936353
0.0024676644
0.0024417154
0.0024147698
0.0023872384
0.0023596351
0.002332601
0.0023050627
0.0022760196
0.0022467949
0.0022177265
0.002188415
0.0021579159
0.002126518
0.0020948242
0.0020632027
0.0020305419
0.0019962526
0.0019613388
0.0019264273
0.0018904048
0.0018523825
0.0018133836
0.0017740602
0.0017332994
0.0016901798
0.0016456546
0.0016003704
0.0015529679
0.00150259
0.0014507103
0.0013967936
0.0013395433
0.0012794864
0.0012182567
0.0011563741
0.0010947921
0.0010350736
0.00097630284
0.00091757016
0.00085965398
0.00080329102
0.00074765072
0.00069199945
0.00063716847
0.00058359643
0.00053133377
0.00047973327
0.00042874476
0.00037943396
0.00033207477
0.00028844795
0.00024607079
0.00021704794
0.00017634343
0.00029637671
-0.0002273781
0.0040407137
0.0040603821
0.0041038764
0.0041590229
0.0042238593
0.0042984376
0.0043821879
0.0044743854
0.0045746732
0.0046830999
0.004800024
0.0049261043
0.0050623814
0.0052104245
0.005372543
0.0055521814
0.0057544403
0.0059876183
0.0062641756
0.0066105254
0.0070609163
0.0077608128
0.00873542
0.012055649
0.0090687658
0.0042094847
0.0041977367
0.0046268047
0.0046656307
0.0044735803
0.0042988989
0.004205372
0.0041334612
0.0040590977
0.0039873855
0.0039219254
0.0038605533
0.0038028705
0.0037481774
0.0036973075
0.0036494812
0.0036041618
0.0035611758
0.0035197424
0.0034804274
0.0034419887
0.003405577
0.0033705377
0.0033354611
0.0033027002
0.0032708182
0.0032384636
0.0032082001
0.0031786206
0.0031484991
0.0031196748
0.0030917704
0.0030635896
0.0030353345
0.0030087454
0.002982492
0.0029552529
0.0029283194
0.0029028786
0.0028775208
0.0028510345
0.00282492
0.0028000492
0.0027753045
0.0027494421
0.0027236551
0.0026986645
0.0026740102
0.0026485202
0.0026225538