/*--------------------------------*- C++ -*----------------------------------*\
  =========                 |
  \\      /  F ield         | OpenFOAM: The Open Source CFD Toolbox
   \\    /   O peration     | Website:  https://openfoam.org
    \\  /    A nd           | Version:  12
     \\/     M anipulation  |
\*---------------------------------------------------------------------------*/
FoamFile
{
    format      ascii;
    class       surfaceScalarField;
    location    "300";
    object      phi;
}
// * * * * * * * * * * * * * * * * * * * * * * * * * * * * * * * * * * * * * //

dimensions      [0 3 -1 0 0 0 0];

internalField   nonuniform List<scalar> 
25880
(
2.0046395e-06
1.4605707e-11
2.0046005e-06
3.9083381e-11
2.0045478e-06
5.2689364e-11
2.0044892e-06
5.8602256e-11
2.0044242e-06
6.4949502e-11
2.0043518e-06
7.2386664e-11
2.0042714e-06
8.0387265e-11
2.0041824e-06
8.902372e-11
2.0040838e-06
9.8667114e-11
2.0039741e-06
1.0967576e-10
2.0038517e-06
1.2240451e-10
2.0037143e-06
1.3732805e-10
2.0035592e-06
1.5513415e-10
2.0033823e-06
1.7691094e-10
2.0031781e-06
2.0415425e-10
2.0029382e-06
2.3993202e-10
2.0026511e-06
2.8708519e-10
2.0022918e-06
3.5931099e-10
2.0018388e-06
4.5304783e-10
2.0011696e-06
6.6920788e-10
2.0002866e-06
8.8292776e-10
1.9976186e-06
2.6680789e-09
1.995815e-06
1.8035678e-09
1.024654e-06
9.71161e-07
3.9380644e-08
9.8527334e-07
2.5530311e-08
1.3850333e-08
2.5138188e-08
3.9212307e-10
2.4864759e-08
2.7342935e-10
2.4278066e-08
5.8669313e-10
2.3649355e-08
6.2871107e-10
2.3085641e-08
5.6371398e-10
2.2598792e-08
4.8684897e-10
2.2173822e-08
4.2496956e-10
2.1797276e-08
3.7654615e-10
2.1459821e-08
3.3745469e-10
2.1152081e-08
3.0774019e-10
2.0867164e-08
2.8491671e-10
2.0602513e-08
2.6465138e-10
2.0356191e-08
2.463217e-10
2.0126689e-08
2.295022e-10
1.9912169e-08
2.1452039e-10
1.9710728e-08
2.0144069e-10
1.9520928e-08
1.8980047e-10
1.9341402e-08
1.7952568e-10
1.9170983e-08
1.7041854e-10
1.900882e-08
1.621629e-10
1.8854199e-08
1.5462141e-10
1.8706497e-08
1.4770205e-10
1.8565014e-08
1.414827e-10
1.8429305e-08
1.3570935e-10
1.8298942e-08
1.3036292e-10
1.8173289e-08
1.2565264e-10
1.8052039e-08
1.2124986e-10
1.7934943e-08
1.1709649e-10
1.7821544e-08
1.1339945e-10
1.7711597e-08
1.0994641e-10
1.7604955e-08
1.0664178e-10
1.7501262e-08
1.0369319e-10
1.7400245e-08
1.0101749e-10
1.7301851e-08
9.83934e-11
1.7205907e-08
9.594467e-11
1.7112108e-08
9.3798982e-11
1.7020313e-08
9.1794552e-11
1.6930319e-08
8.9994166e-11
1.6841928e-08
8.8390782e-11
1.6755127e-08
8.680122e-11
1.6669892e-08
8.5234962e-11
1.6586195e-08
8.3696436e-11
1.6503916e-08
8.2279376e-11
1.6422897e-08
8.101943e-11
1.6343065e-08
7.9831536e-11
1.6264376e-08
7.8688811e-11
1.6186738e-08
7.7637953e-11
1.6110052e-08
7.6686144e-11
1.6034253e-08
7.5799104e-11
1.5959277e-08
7.4976291e-11
1.5885069e-08
7.4207348e-11
1.5811577e-08
7.3491987e-11
1.5738735e-08
7.2842688e-11
1.5666487e-08
7.2247504e-11
1.559478e-08
7.1707101e-11
1.5523562e-08
7.1218081e-11
1.5452806e-08
7.0756519e-11
1.5382473e-08
7.0332816e-11
1.5312478e-08
6.9994968e-11
1.5242769e-08
6.9708748e-11
1.5173343e-08
6.942562e-11
1.510417e-08
6.9173081e-11
1.5035182e-08
6.898838e-11
1.4966315e-08
6.8867089e-11
1.4897549e-08
6.8766056e-11
1.4828879e-08
6.8670289e-11
1.4760247e-08
6.863122e-11
1.4691565e-08
6.8682737e-11
1.4622796e-08
6.8768739e-11
1.4553952e-08
6.8843785e-11
1.4484983e-08
6.8968778e-11
1.4415783e-08
6.9199968e-11
1.4346296e-08
6.9486948e-11
1.4276518e-08
6.9778014e-11
1.4206417e-08
7.0101803e-11
1.4135901e-08
7.0515693e-11
1.4064917e-08
7.0983476e-11
1.3993472e-08
7.1445199e-11
1.3921497e-08
7.197515e-11
1.3848862e-08
7.2635187e-11
1.3775523e-08
7.333851e-11
1.3701466e-08
7.4057604e-11
1.3626566e-08
7.4899675e-11
1.3550706e-08
7.5860203e-11
1.3473851e-08
7.6854975e-11
1.339592e-08
7.7930764e-11
1.3316727e-08
7.9193553e-11
1.3239566e-08
7.7160491e-11
1.3166221e-08
7.3344609e-11
1.3096213e-08
7.0008674e-11
1.3029286e-08
6.6927237e-11
1.2965378e-08
6.3907743e-11
1.2904258e-08
6.1119517e-11
1.2845668e-08
5.8590395e-11
1.2789431e-08
5.6237263e-11
1.2735426e-08
5.4004485e-11
1.26835e-08
5.1926237e-11
1.2633471e-08
5.0029159e-11
1.2585194e-08
4.8277051e-11
1.2538582e-08
4.6611791e-11
1.2493555e-08
4.502714e-11
1.2449998e-08
4.355687e-11
1.2407764e-08
4.2234336e-11
1.2366756e-08
4.100803e-11
1.2326763e-08
3.9992072e-11
1.2287907e-08
3.8856395e-11
1.224914e-08
3.8767045e-11
1.2212042e-08
3.7097912e-11
1.2166676e-08
4.5366535e-11
2.8481197e-11
2.0345132e-06
2.9496624e-11
2.0344733e-06
7.8988563e-11
2.0344194e-06
1.0655054e-10
2.0343595e-06
1.1853367e-10
2.0342931e-06
1.313715e-10
2.034219e-06
1.4640522e-10
2.0341368e-06
1.6257396e-10
2.0340458e-06
1.8002296e-10
2.033945e-06
1.995015e-10
2.033833e-06
2.2173328e-10
2.0337079e-06
2.4743457e-10
2.0335677e-06
2.7756305e-10
2.0334093e-06
3.1350613e-10
2.0332288e-06
3.5745892e-10
2.0330205e-06
4.1243825e-10
2.0327758e-06
4.8463292e-10
2.0324831e-06
5.7976856e-10
2.0321169e-06
7.2547593e-10
2.0316554e-06
9.1453927e-10
2.0309742e-06
1.35049e-09
2.0300758e-06
1.7813402e-09
2.0273624e-06
5.3813877e-09
2.025519e-06
3.6469806e-09
1.0913079e-06
1.9053721e-06
1.1797414e-07
1.9586071e-06
7.8120034e-08
5.3704437e-08
7.6920916e-08
1.5912405e-09
7.6082295e-08
1.1120502e-09
7.4285379e-08
2.3836096e-09
7.2361353e-08
2.5527364e-09
7.0637124e-08
2.2879435e-09
6.9147719e-08
1.9762538e-09
6.7847411e-08
1.7252777e-09
6.6695276e-08
1.5286807e-09
6.5662782e-08
1.3699491e-09
6.4721197e-08
1.2493253e-09
6.384944e-08
1.1566735e-09
6.3039687e-08
1.0744049e-09
6.2286021e-08
9.9998733e-10
6.1583814e-08
9.3170871e-10
6.0927444e-08
8.7089051e-10
6.0311092e-08
8.1779249e-10
5.9730353e-08
7.705399e-10
5.9181054e-08
7.2882477e-10
5.8659616e-08
6.9185678e-10
5.8163442e-08
6.5833612e-10
5.7690341e-08
6.2772335e-10
5.7238404e-08
5.996382e-10
5.6805509e-08
5.7437845e-10
5.6390271e-08
5.5094657e-10
5.5991387e-08
5.2924719e-10
5.5606927e-08
5.1011311e-10
5.5235932e-08
4.9224459e-10
5.487764e-08
4.7538843e-10
5.4530669e-08
4.6037095e-10
5.4194262e-08
4.4635342e-10
5.386796e-08
4.3294319e-10
5.3550683e-08
4.2097066e-10
5.32416e-08
4.1010034e-10
5.294054e-08
3.9945288e-10
5.2646968e-08
3.8951738e-10
5.2359966e-08
3.808002e-10
5.2079104e-08
3.7265708e-10
5.1803745e-08
3.6535331e-10
5.1533287e-08
3.5884883e-10
5.1267698e-08
3.5238989e-10
5.1006906e-08
3.4602735e-10
5.0750816e-08
3.3978594e-10
5.0499058e-08
3.340375e-10
5.025116e-08
3.2891791e-10
5.0006899e-08
3.2409198e-10
4.9766133e-08
3.1945468e-10
4.9528579e-08
3.1519245e-10
4.9293938e-08
3.1132712e-10
4.9062014e-08
3.0772282e-10
4.883261e-08
3.0438062e-10
4.8605554e-08
3.0126275e-10
4.8380685e-08
2.9836128e-10
4.8157806e-08
2.9572128e-10
4.7936751e-08
2.9330313e-10
4.7717347e-08
2.9111087e-10
4.7499437e-08
2.8912846e-10
4.7282939e-08
2.8725371e-10
4.7067741e-08
2.8553162e-10
4.6853577e-08
2.8415869e-10
4.6640286e-08
2.829996e-10
4.6427859e-08
2.8185252e-10
4.6216208e-08
2.8082454e-10
4.6005123e-08
2.800735e-10
4.5794407e-08
2.7958226e-10
4.5583999e-08
2.7917423e-10
4.5373884e-08
2.7878504e-10
4.5163891e-08
2.7862504e-10
4.495374e-08
2.7883382e-10
4.4743323e-08
2.791853e-10
4.4532676e-08
2.794912e-10
4.4321647e-08
2.7999703e-10
4.4109913e-08
2.8093474e-10
4.3897298e-08
2.8210182e-10
4.368379e-08
2.8328527e-10
4.3469293e-08
2.8459882e-10
4.3253531e-08
2.8627849e-10
4.3036335e-08
2.8817949e-10
4.2817724e-08
2.9005553e-10
4.2597493e-08
2.9220623e-10
4.2375243e-08
2.9488567e-10
4.2150838e-08
2.9774301e-10
4.1924232e-08
3.0066361e-10
4.169505e-08
3.0408156e-10
4.1462928e-08
3.0798216e-10
4.1227761e-08
3.1202242e-10
4.0989301e-08
3.1639026e-10
4.0746977e-08
3.215177e-10
4.0510872e-08
3.1326547e-10
4.0286443e-08
2.9777413e-10
4.0072221e-08
2.8423039e-10
3.9867427e-08
2.7172096e-10
3.9671872e-08
2.5946298e-10
3.9484849e-08
2.4814283e-10
3.9305564e-08
2.3787468e-10
3.913348e-08
2.2832204e-10
3.8968226e-08
2.192578e-10
3.8809333e-08
2.1081985e-10
3.8656244e-08
2.0311762e-10
3.8508517e-08
1.9600439e-10
3.8365885e-08
1.8924408e-10
3.8228101e-08
1.8281046e-10
3.8094818e-08
1.7684052e-10
3.7965581e-08
1.7147067e-10
3.7840098e-08
1.6649117e-10
3.7717724e-08
1.6236635e-10
3.7598829e-08
1.5775087e-10
3.7480205e-08
1.573913e-10
3.736676e-08
1.505431e-10
3.7227666e-08
1.8446095e-10
1.1522584e-10
2.0947057e-06
4.4902815e-11
2.0946643e-06
1.2034193e-10
2.0946084e-06
1.6244066e-10
2.0945462e-06
1.8075322e-10
2.0944773e-06
2.003292e-10
2.0944004e-06
2.2323915e-10
2.0943151e-06
2.4787216e-10
2.0942207e-06
2.7444773e-10
2.0941161e-06
3.0410621e-10
2.0939999e-06
3.3794951e-10
2.0938702e-06
3.7706742e-10
2.0937249e-06
4.2291632e-10
2.0935608e-06
4.7760575e-10
2.0933738e-06
5.4447346e-10
2.0931581e-06
6.281055e-10
2.0929048e-06
7.3791198e-10
2.092602e-06
8.8258975e-10
2.0922233e-06
1.1041531e-09
2.0917463e-06
1.3915743e-09
2.0910425e-06
2.0542969e-09
2.090115e-06
2.7088806e-09
2.087315e-06
8.1813683e-09
2.0854065e-06
5.5554265e-09
1.175134e-06
2.8156447e-06
2.0101522e-07
2.9327258e-06
1.3538885e-07
1.1933081e-07
1.3330773e-07
3.6723543e-09
1.3185118e-07
2.5686059e-09
1.287349e-07
5.4998875e-09
1.2539998e-07
5.8876526e-09
1.2241278e-07
5.2751456e-09
1.1983211e-07
4.556922e-09
1.1757878e-07
3.9786079e-09
1.1558221e-07
3.52525e-09
1.1379301e-07
3.1591532e-09
1.1216133e-07
2.8809999e-09
1.1065066e-07
2.6673521e-09
1.0924742e-07
2.4776406e-09
1.0794138e-07
2.3060246e-09
1.0672451e-07
2.1485762e-09
1.0558707e-07
2.008333e-09
1.0451897e-07
1.8858903e-09
1.0351259e-07
1.7769278e-09
1.0256068e-07
1.6807275e-09
1.0165706e-07
1.5954821e-09
1.0079722e-07
1.5181751e-09
9.9977357e-08
1.4475858e-09
9.9194169e-08
1.3828267e-09
9.8443987e-08
1.3245605e-09
9.7724399e-08
1.2705339e-09
9.7033145e-08
1.2205015e-09
9.6366898e-08
1.1763602e-09
9.5723981e-08
1.1351614e-09
9.5103072e-08
1.0962979e-09
9.4501789e-08
1.0616538e-09
9.3918814e-08
1.0293288e-09
9.3353344e-08
9.9841269e-10
9.2803516e-08
9.7079911e-10
9.2267896e-08
9.4571954e-10
9.1746175e-08
9.2117415e-10
9.1237422e-08
8.9827101e-10
9.0740063e-08
8.7815826e-10
9.0253351e-08
8.5936998e-10
8.9776169e-08
8.4253446e-10
8.9307476e-08
8.2754226e-10
8.8847227e-08
8.1263901e-10
8.8395294e-08
7.9795979e-10
8.7951506e-08
7.8357393e-10
8.7515219e-08
7.7032449e-10
8.7085626e-08
7.5851118e-10
8.6662342e-08
7.4737615e-10
8.6245112e-08
7.3668516e-10
8.5833442e-08
7.2686236e-10
8.5426822e-08
7.1794684e-10
8.5024915e-08
7.0962939e-10
8.4627377e-08
7.0191915e-10
8.4233904e-08
6.9473527e-10
8.3844217e-08
6.8804857e-10
8.3457984e-08
6.8195432e-10
8.3074913e-08
6.7637436e-10
8.2694702e-08
6.7132159e-10
8.2317076e-08
6.6675475e-10
8.1941899e-08
6.6243036e-10
8.1568975e-08
6.584555e-10
8.1197847e-08
6.5528736e-10
8.0828227e-08
6.5261931e-10
8.0460101e-08
6.499781e-10
8.0093322e-08
6.4760349e-10
7.9727526e-08
6.458693e-10
7.936237e-08
6.4473858e-10
7.8997743e-08
6.438014e-10
7.8633624e-08
6.4290368e-10
7.8269717e-08
6.425324e-10
7.7905537e-08
6.4301358e-10
7.7540894e-08
6.4382831e-10
7.7175849e-08
6.4453623e-10
7.6810146e-08
6.4570037e-10
7.6443219e-08
6.4786172e-10
7.6074764e-08
6.5055671e-10
7.570476e-08
6.5328952e-10
7.5333041e-08
6.5631801e-10
7.4959128e-08
6.6019089e-10
7.4582729e-08
6.6457851e-10
7.4203877e-08
6.6890809e-10
7.3822215e-08
6.7386728e-10
7.3437054e-08
6.8004678e-10
7.3048157e-08
6.8664022e-10
7.2655442e-08
6.9337831e-10
7.2258264e-08
7.0126039e-10
7.1855988e-08
7.1025821e-10
7.1448431e-08
7.1957933e-10
7.1035167e-08
7.296539e-10
7.0615204e-08
7.4148099e-10
7.0206015e-08
7.2245376e-10
6.9817059e-08
6.8673021e-10
6.9445793e-08
6.5549658e-10
6.9090865e-08
6.2664928e-10
6.8751946e-08
5.9838182e-10
6.8427813e-08
5.7227547e-10
6.8117093e-08
5.4859534e-10
6.7818848e-08
5.2656684e-10
6.7532442e-08
5.0566416e-10
6.7257057e-08
4.8620404e-10
6.6991734e-08
4.6844087e-10
6.6735702e-08
4.5203686e-10
6.6488499e-08
4.3644716e-10
6.6249699e-08
4.2160974e-10
6.6018699e-08
4.078406e-10
6.5794714e-08
3.9545573e-10
6.5577234e-08
3.8397109e-10
6.5365144e-08
3.7445682e-10
6.5159087e-08
3.6380798e-10
6.4953505e-08
3.6297271e-10
6.4756948e-08
3.4710029e-10
6.4515686e-08
4.2572257e-10
2.6529243e-10
2.1861141e-06
6.106577e-11
2.1860706e-06
1.6380514e-10
2.1860118e-06
2.2126961e-10
2.1859462e-06
2.4628118e-10
2.1858736e-06
2.7295404e-10
2.1857927e-06
3.0414725e-10
2.1857029e-06
3.376765e-10
2.1856035e-06
3.7383797e-10
2.1854934e-06
4.1418214e-10
2.1853712e-06
4.6020786e-10
2.1852348e-06
5.1339639e-10
2.185082e-06
5.7572617e-10
2.1849096e-06
6.5006241e-10
2.1847131e-06
7.4093866e-10
2.1844866e-06
8.5458223e-10
2.1842208e-06
1.0037743e-09
2.1839031e-06
1.2003139e-09
2.1835059e-06
1.5012686e-09
2.1830059e-06
1.8915768e-09
2.1822687e-06
2.7915025e-09
2.1812978e-06
3.679782e-09
2.1783686e-06
1.1110587e-08
2.1763652e-06
7.5588421e-09
1.2794839e-06
3.712526e-06
2.9315166e-07
3.919058e-06
2.0075719e-07
2.1172529e-07
1.976675e-07
6.7620358e-09
1.9549979e-07
4.7363205e-09
1.908762e-07
1.0123481e-08
1.8593086e-07
1.0832993e-08
1.8150333e-07
9.702669e-09
1.7767798e-07
8.3822773e-09
1.7433736e-07
7.3192273e-09
1.7137734e-07
6.4852667e-09
1.6872479e-07
5.8117004e-09
1.6630577e-07
5.3000233e-09
1.640661e-07
4.9070185e-09
1.6198572e-07
4.5580274e-09
1.6004943e-07
4.2423131e-09
1.5824533e-07
3.9526758e-09
1.5655897e-07
3.6946928e-09
1.5497541e-07
3.4694515e-09
1.5348333e-07
3.2690067e-09
1.5207203e-07
3.0920289e-09
1.507323e-07
2.9352127e-09
1.4945749e-07
2.7929872e-09
1.4824193e-07
2.6631366e-09
1.4708075e-07
2.5440111e-09
1.4596851e-07
2.4367987e-09
1.4490163e-07
2.3374206e-09
1.4387674e-07
2.2453886e-09
1.4288894e-07
2.1641584e-09
1.4193573e-07
2.0883758e-09
1.4101513e-07
2.0168912e-09
1.4012365e-07
1.953138e-09
1.3925931e-07
1.8936701e-09
1.3842091e-07
1.8368082e-09
1.3760571e-07
1.7860005e-09
1.3681159e-07
1.7398438e-09
1.3603806e-07
1.6947009e-09
1.3528375e-07
1.6525801e-09
1.3454635e-07
1.6155621e-09
1.3382473e-07
1.5809813e-09
1.3311725e-07
1.5500194e-09
1.3242234e-07
1.5224506e-09
1.3173996e-07
1.4950212e-09
1.3106991e-07
1.4680049e-09
1.3041194e-07
1.4415511e-09
1.2976507e-07
1.4171869e-09
1.2912814e-07
1.3954427e-09
1.2850057e-07
1.3749473e-09
1.2788197e-07
1.355284e-09
1.2727161e-07
1.3372229e-09
1.2666874e-07
1.3208185e-09
1.2607286e-07
1.3055072e-09
1.2548346e-07
1.2913183e-09
1.2490009e-07
1.2781122e-09
1.2432232e-07
1.2658176e-09
1.2374968e-07
1.2545967e-09
1.2318172e-07
1.2443249e-09
1.2261801e-07
1.2350342e-09
1.2205813e-07
1.2266406e-09
1.2150187e-07
1.2186841e-09
1.2094896e-07
1.2113654e-09
1.2039872e-07
1.2055342e-09
1.198507e-07
1.2006343e-09
1.193049e-07
1.1957823e-09
1.1876109e-07
1.1914083e-09
1.1821875e-07
1.1882142e-09
1.1767735e-07
1.186138e-09
1.1713673e-07
1.1844207e-09
1.1659686e-07
1.1827697e-09
1.1605731e-07
1.1820832e-09
1.1551736e-07
1.1829689e-09
1.1497671e-07
1.1844756e-09
1.1443546e-07
1.1857831e-09
1.1389324e-07
1.1879218e-09
1.1334921e-07
1.1918971e-09
1.128029e-07
1.1968619e-09
1.1225429e-07
1.2018973e-09
1.1170314e-07
1.2074696e-09
1.1114874e-07
1.2145949e-09
1.1059064e-07
1.2226745e-09
1.100289e-07
1.2306467e-09
1.09463e-07
1.239771e-09
1.088919e-07
1.2511422e-09
1.0831526e-07
1.2632811e-09
1.0773296e-07
1.2756841e-09
1.0714403e-07
1.2901872e-09
1.0654754e-07
1.3067474e-09
1.0594321e-07
1.3239046e-09
1.0533042e-07
1.342445e-09
1.0470769e-07
1.3642113e-09
1.0410093e-07
1.3292128e-09
1.0352417e-07
1.2634935e-09
1.0297364e-07
1.2060321e-09
1.0244732e-07
1.1529615e-09
1.0194475e-07
1.1009574e-09
1.014641e-07
1.0529268e-09
1.0100333e-07
1.0093603e-09
1.0056106e-07
9.6883483e-10
1.0013635e-07
9.3037945e-10
9.9727977e-08
8.9457522e-10
9.9334524e-08
8.6189345e-10
9.8954847e-08
8.3171382e-10
9.8588262e-08
8.0303275e-10
9.8234138e-08
7.757336e-10
9.789158e-08
7.5039834e-10
9.7559426e-08
7.2761035e-10
9.7236917e-08
7.0647942e-10
9.6922404e-08
6.8897013e-10
9.6616838e-08
6.6937419e-10
9.6311997e-08
6.6781299e-10
9.6020566e-08
6.3853153e-10
9.5662669e-08
7.8361988e-10
4.8767588e-10
2.3101005e-06
7.8242639e-11
2.3100542e-06
2.1008793e-10
2.3099915e-06
2.8401921e-10
2.3099215e-06
3.162212e-10
2.309844e-06
3.5047003e-10
2.3097577e-06
3.9049061e-10
2.3096619e-06
4.3349391e-10
2.3095558e-06
4.7985623e-10
2.3094385e-06
5.315637e-10
2.3093081e-06
5.9053727e-10
2.3091628e-06
6.5867377e-10
2.3090001e-06
7.3850514e-10
2.3088164e-06
8.336975e-10
2.3086073e-06
9.5005176e-10
2.3083664e-06
1.0955337e-09
2.3080836e-06
1.2864973e-09
2.3077459e-06
1.5380209e-09
2.3073241e-06
1.9231275e-09
2.3067932e-06
2.4224291e-09
2.3060111e-06
3.5736206e-09
2.3049818e-06
4.7090755e-09
2.3018785e-06
1.4213867e-08
2.2997482e-06
9.6891669e-09
1.4079807e-06
4.6042935e-06
3.9930865e-07
4.9277301e-06
2.7811445e-07
3.3291949e-07
2.7381903e-07
1.1057453e-08
2.7079584e-07
7.759515e-09
2.6438833e-07
1.6530987e-08
2.5753968e-07
1.7681641e-08
2.5141125e-07
1.5831101e-08
2.4611569e-07
1.3677838e-08
2.4149039e-07
1.1944531e-08
2.3739191e-07
1.0583748e-08
2.3371915e-07
9.484453e-09
2.3036967e-07
8.6495043e-09
2.2726847e-07
8.008225e-09
2.2438777e-07
7.4387285e-09
2.2170656e-07
6.9235188e-09
2.1920836e-07
6.4508784e-09
2.1687315e-07
6.0298986e-09
2.1468026e-07
5.6623415e-09
2.1261403e-07
5.3352415e-09
2.1065963e-07
5.0464212e-09
2.0880434e-07
4.7905122e-09
2.0703892e-07
4.5583985e-09
2.0535556e-07
4.3465027e-09
2.0374746e-07
4.1521058e-09
2.0220716e-07
3.9771056e-09
2.0072964e-07
3.8149403e-09
1.9931026e-07
3.6647606e-09
1.9794227e-07
3.5321572e-09
1.9662215e-07
3.4084927e-09
1.9534719e-07
3.2918464e-09
1.9411256e-07
3.1877714e-09
1.9291551e-07
3.0907171e-09
1.9175438e-07
2.9979386e-09
1.9062538e-07
2.9150064e-09
1.8952557e-07
2.8396495e-09
1.8845428e-07
2.7659943e-09
1.8740958e-07
2.6972731e-09
1.8638832e-07
2.6368315e-09
1.8538893e-07
2.5803679e-09
1.844091e-07
2.5298504e-09
1.8344667e-07
2.4848757e-09
1.825016e-07
2.4400931e-09
1.8157362e-07
2.395984e-09
1.8066234e-07
2.3528287e-09
1.7976645e-07
2.3130814e-09
1.7888432e-07
2.2775767e-09
1.7801515e-07
2.2441104e-09
1.7715841e-07
2.2120269e-09
1.7631307e-07
2.1825655e-09
1.754781e-07
2.1557892e-09
1.7465282e-07
2.130785e-09
1.7383651e-07
2.1076218e-09
1.7302854e-07
2.0860846e-09
1.7222833e-07
2.0660307e-09
1.7143522e-07
2.0477039e-09
1.7064862e-07
2.03093e-09
1.6986788e-07
2.0157754e-09
1.6909243e-07
2.0020905e-09
1.68322e-07
1.989105e-09
1.6755622e-07
1.9771513e-09
1.6679412e-07
1.9676313e-09
1.6603511e-07
1.9596492e-09
1.6527915e-07
1.9517434e-09
1.6452596e-07
1.9445983e-09
1.6377479e-07
1.9393803e-09
1.6302493e-07
1.9359999e-09
1.6227614e-07
1.9332101e-09
1.6152839e-07
1.9305189e-09
1.6078108e-07
1.9293947e-09
1.600332e-07
1.9308432e-09
1.5928436e-07
1.9333176e-09
1.5853468e-07
1.9354625e-09
1.5778365e-07
1.9389509e-09
1.5703011e-07
1.9454401e-09
1.5627341e-07
1.9535571e-09
1.5551352e-07
1.9617918e-09
1.547501e-07
1.9708921e-09
1.5398217e-07
1.982525e-09
1.5320911e-07
1.9957282e-09
1.5243101e-07
2.0087554e-09
1.5164712e-07
2.0236528e-09
1.5085604e-07
2.042221e-09
1.5005727e-07
2.0620526e-09
1.4925065e-07
2.0823115e-09
1.4843484e-07
2.1059918e-09
1.4760855e-07
2.133037e-09
1.467714e-07
2.1610603e-09
1.459225e-07
2.1913371e-09
1.4505983e-07
2.2268824e-09
1.4421927e-07
2.1697712e-09
1.4342026e-07
2.0625089e-09
1.4265757e-07
1.9687215e-09
1.4192843e-07
1.8820998e-09
1.4123217e-07
1.7972182e-09
1.4056628e-07
1.7188188e-09
1.3992793e-07
1.6477068e-09
1.393152e-07
1.581562e-09
1.3872679e-07
1.5187938e-09
1.3816102e-07
1.4603483e-09
1.3761591e-07
1.4070004e-09
1.3708988e-07
1.3577393e-09
1.3658199e-07
1.3109245e-09
1.3609137e-07
1.2663616e-09
1.3561676e-07
1.225002e-09
1.3515657e-07
1.1878012e-09
1.3470974e-07
1.1533074e-09
1.34274e-07
1.1247172e-09
1.3385064e-07
1.0927275e-09
1.3342833e-07
1.0901268e-09
1.3302461e-07
1.042252e-09
1.3252865e-07
1.2795768e-09
7.9568838e-10
2.4685127e-06
9.6711008e-11
2.4684628e-06
2.5996258e-10
2.4683951e-06
3.5176484e-10
2.4683195e-06
3.9178531e-10
2.4682358e-06
4.3422174e-10
2.4681425e-06
4.837636e-10
2.468039e-06
5.3697762e-10
2.4679245e-06
5.943248e-10
2.4677978e-06
6.5825937e-10
2.4676572e-06
7.311564e-10
2.4675005e-06
8.1535912e-10
2.4673251e-06
9.139931e-10
2.4671272e-06
1.031583e-09
2.4669019e-06
1.1752884e-09
2.4666425e-06
1.3549377e-09
2.4663383e-06
1.5907144e-09
2.4659751e-06
1.9012031e-09
2.4655217e-06
2.3765322e-09
2.4649515e-06
2.992616e-09
2.4641121e-06
4.4130082e-09
2.4630084e-06
5.8128475e-09
2.4596832e-06
1.7539003e-08
2.4573915e-06
1.1980924e-08
1.5646544e-06
5.4970306e-06
5.2491248e-07
5.967472e-06
3.7199566e-07
4.858363e-07
3.6618719e-07
1.6865925e-08
3.6209527e-07
1.185144e-08
3.5352806e-07
2.5098194e-08
3.4438041e-07
2.6829288e-08
3.3619877e-07
2.4012747e-08
3.2912778e-07
2.0748827e-08
3.229504e-07
1.8121912e-08
3.1747619e-07
1.6057951e-08
3.1257045e-07
1.4390201e-08
3.0809626e-07
1.3123694e-08
3.0395349e-07
1.2150989e-08
3.0010512e-07
1.12871e-08
2.965231e-07
1.0505535e-08
2.9318543e-07
9.788553e-09
2.9006539e-07
9.1499402e-09
2.8713538e-07
8.5923537e-09
2.8437449e-07
8.096122e-09
2.8176298e-07
7.6579376e-09
2.792838e-07
7.2696891e-09
2.7692468e-07
6.9175218e-09
2.7467512e-07
6.5960575e-09
2.725261e-07
6.3011306e-09
2.7046764e-07
6.0355674e-09
2.6849303e-07
5.7895471e-09
2.6659608e-07
5.5617056e-09
2.6476779e-07
5.360456e-09
2.6300344e-07
5.1728375e-09
2.6129941e-07
4.9958729e-09
2.5964927e-07
4.8379147e-09
2.5804934e-07
4.6906475e-09
2.5649738e-07
4.5499021e-09
2.5498834e-07
4.4240446e-09
2.5351833e-07
4.30966e-09
2.520864e-07
4.1979271e-09
2.5068999e-07
4.0936828e-09
2.4932489e-07
4.0019295e-09
2.4798904e-07
3.9162118e-09
2.4667932e-07
3.8395744e-09
2.4539284e-07
3.7713587e-09
2.4412955e-07
3.7033845e-09
2.428891e-07
3.6364281e-09
2.4167096e-07
3.5709725e-09
2.4047335e-07
3.5106849e-09
2.3929415e-07
3.4567848e-09
2.3813228e-07
3.4059781e-09
2.36987e-07
3.3573074e-09
2.3585694e-07
3.3126267e-09
2.3474073e-07
3.2719924e-09
2.3363749e-07
3.2340289e-09
2.3254624e-07
3.1988733e-09
2.314661e-07
3.1662189e-09
2.3039633e-07
3.1358085e-09
2.2933605e-07
3.1079818e-09
2.2828446e-07
3.0825156e-09
2.272407e-07
3.0595358e-09
2.26204e-07
3.038795e-09
2.2517401e-07
3.019095e-09
2.2415021e-07
3.0009453e-09
2.2313135e-07
2.9864991e-09
2.2211658e-07
2.9744147e-09
2.2110588e-07
2.9624432e-09
2.2009888e-07
2.9515968e-09
2.1909459e-07
2.9436763e-09
2.1809202e-07
2.938565e-09
2.1709087e-07
2.934358e-09
2.1609111e-07
2.930286e-09
2.1509192e-07
2.928581e-09
2.1409197e-07
2.9307914e-09
2.1309071e-07
2.9345782e-09
2.1208832e-07
2.9378585e-09
2.1108411e-07
2.9431573e-09
2.1007653e-07
2.9530157e-09
2.0906473e-07
2.9653645e-09
2.0804862e-07
2.9778979e-09
2.0702778e-07
2.9917288e-09
2.0600091e-07
3.0093994e-09
2.0496716e-07
3.0294736e-09
2.0392664e-07
3.0492799e-09
2.0287838e-07
3.0719092e-09
2.0182049e-07
3.1001163e-09
2.0075228e-07
3.1302576e-09
1.9967355e-07
3.161042e-09
1.9858253e-07
3.1970103e-09
1.9747747e-07
3.2380981e-09
1.9635786e-07
3.2806769e-09
1.9522252e-07
3.3266705e-09
1.9406874e-07
3.3806674e-09
1.929445e-07
3.2940062e-09
1.9187581e-07
3.1312039e-09
1.9085568e-07
2.9888485e-09
1.8988041e-07
2.8573659e-09
1.8894911e-07
2.7285228e-09
1.8805841e-07
2.6095141e-09
1.8720455e-07
2.5015689e-09
1.8638495e-07
2.4011686e-09
1.8559785e-07
2.3058891e-09
1.8484103e-07
2.2171642e-09
1.8411186e-07
2.1361786e-09
1.8340819e-07
2.0614013e-09
1.8272878e-07
1.9903368e-09
1.8207246e-07
1.9226842e-09
1.8143757e-07
1.8598912e-09
1.8082196e-07
1.8034129e-09
1.8022422e-07
1.7510477e-09
1.796413e-07
1.7076304e-09
1.7907497e-07
1.6590664e-09
1.7851007e-07
1.6550267e-09
1.7797005e-07
1.582273e-09
1.7730649e-07
1.943136e-09
1.2076851e-09
2.6637113e-06
1.1677411e-10
2.663657e-06
3.1428022e-10
2.6635831e-06
4.2570014e-10
2.6635005e-06
4.7432301e-10
2.663409e-06
5.2570673e-10
2.6633072e-06
5.856297e-10
2.6631942e-06
6.4996657e-10
2.6630692e-06
7.1926863e-10
2.662931e-06
7.9649832e-10
2.6627776e-06
8.8452451e-10
2.6626068e-06
9.8617481e-10
2.6624156e-06
1.105218e-09
2.6622001e-06
1.2471084e-09
2.6619549e-06
1.4204769e-09
2.6616727e-06
1.6371672e-09
2.6613419e-06
1.92151e-09
2.6609472e-06
2.2958747e-09
2.6604548e-06
2.8689131e-09
2.659836e-06
3.6113837e-09
2.658926e-06
5.3230886e-09
2.6577303e-06
7.0085205e-09
2.6541318e-06
2.1137533e-08
2.6516408e-06
1.4471916e-08
1.7540513e-06
6.3946201e-06
6.7607437e-07
7.0454489e-06
4.8771443e-07
6.7419623e-07
4.7987902e-07
2.4701336e-08
4.7440445e-07
1.7326014e-08
4.6319693e-07
3.630571e-08
4.5124989e-07
3.8776331e-08
4.4056898e-07
3.4693656e-08
4.3133526e-07
2.9982546e-08
4.232659e-07
2.6191273e-08
4.1611392e-07
2.3209929e-08
4.0970388e-07
2.0800244e-08
4.0385701e-07
1.8970563e-08
3.9844264e-07
1.7565364e-08
3.9341247e-07
1.6317267e-08
3.8872995e-07
1.5188056e-08
3.8436638e-07
1.4152119e-08
3.8028693e-07
1.3229389e-08
3.7645559e-07
1.2423695e-08
3.7284511e-07
1.1706608e-08
3.6942969e-07
1.1073352e-08
3.6618712e-07
1.0512264e-08
3.6310136e-07
1.0003284e-08
3.601587e-07
9.5387083e-09
3.5734738e-07
9.1124586e-09
3.5465439e-07
8.7285527e-09
3.5207095e-07
8.3729863e-09
3.4958898e-07
8.0436806e-09
3.4719673e-07
7.7527037e-09
3.4488804e-07
7.4815222e-09
3.4265817e-07
7.2257456e-09
3.4049874e-07
6.9973454e-09
3.3840494e-07
6.7844523e-09
3.363738e-07
6.5810341e-09
3.3439879e-07
6.3990609e-09
3.324748e-07
6.2336438e-09
3.3060057e-07
6.0721585e-09
3.2877275e-07
5.9215008e-09
3.2698589e-07
5.7887962e-09
3.2523728e-07
5.6648158e-09
3.2352282e-07
5.5540423e-09
3.2183871e-07
5.4554644e-09
3.2018493e-07
5.3571674e-09
3.1856102e-07
5.2603331e-09
3.1696625e-07
5.1657461e-09
3.1539831e-07
5.0786245e-09
3.1385443e-07
5.0006664e-09
3.1233322e-07
4.9271806e-09
3.1083369e-07
4.8568388e-09
3.0935404e-07
4.7922817e-09
3.078925e-07
4.7335356e-09
3.064479e-07
4.6786236e-09
3.0501898e-07
4.6277934e-09
3.0360457e-07
4.5806293e-09
3.0220368e-07
4.5367004e-09
3.0081521e-07
4.4964536e-09
2.994381e-07
4.4596252e-09
2.980712e-07
4.4264361e-09
2.9671349e-07
4.3964984e-09
2.9536455e-07
4.3680357e-09
2.9402371e-07
4.3417912e-09
2.9268929e-07
4.320919e-09
2.913602e-07
4.3035045e-09
2.9003639e-07
4.2862493e-09
2.8871741e-07
4.2705784e-09
2.8740195e-07
4.2591398e-09
2.8608871e-07
4.2517961e-09
2.847773e-07
4.2457729e-09
2.8346766e-07
4.2399235e-09
2.8215876e-07
4.2374806e-09
2.8084884e-07
4.2407192e-09
2.7953715e-07
4.2462679e-09
2.7822393e-07
4.2510744e-09
2.7690832e-07
4.2587699e-09
2.7558826e-07
4.2730701e-09
2.7426262e-07
4.2910038e-09
2.7293131e-07
4.3092157e-09
2.7159375e-07
4.3292807e-09
2.7024826e-07
4.3548935e-09
2.6889372e-07
4.3840159e-09
2.6753025e-07
4.4127502e-09
2.6615661e-07
4.4455459e-09
2.647703e-07
4.4864229e-09
2.6337044e-07
4.5301244e-09
2.6195673e-07
4.5747486e-09
2.6052688e-07
4.626861e-09
2.5907858e-07
4.686401e-09
2.5761114e-07
4.7481092e-09
2.5612306e-07
4.8147517e-09
2.5461074e-07
4.8929867e-09
2.531371e-07
4.7676481e-09
2.5173621e-07
4.5320956e-09
2.5039894e-07
4.3261174e-09
2.4912045e-07
4.1358615e-09
2.4789955e-07
3.9494218e-09
2.4673186e-07
3.7772049e-09
2.4561242e-07
3.6209997e-09
2.4453787e-07
3.4757189e-09
2.4350592e-07
3.3378396e-09
2.4251365e-07
3.2094338e-09
2.415576e-07
3.0922301e-09
2.4063499e-07
2.9840172e-09
2.3974415e-07
2.8811754e-09
2.3888357e-07
2.7832601e-09
2.3805109e-07
2.6923727e-09
2.3724388e-07
2.6106272e-09
2.3646008e-07
2.5348405e-09
2.3569573e-07
2.4719804e-09
2.349531e-07
2.4016961e-09
2.3421243e-07
2.3957052e-09
2.3350436e-07
2.290335e-09
2.3263414e-07
2.8133596e-09
1.7479389e-09
2.8986053e-06
1.3876677e-10
2.8985456e-06
3.7398945e-10
2.8984641e-06
5.0716578e-10
2.8983731e-06
5.6535516e-10
2.8982722e-06
6.2661344e-10
2.8981598e-06
6.9796344e-10
2.8980353e-06
7.7453129e-10
2.8978976e-06
8.5696539e-10
2.8977453e-06
9.487849e-10
2.8975764e-06
1.0534005e-09
2.8973884e-06
1.1741702e-09
2.8971781e-06
1.3155659e-09
2.8969411e-06
1.4840574e-09
2.8966717e-06
1.6898829e-09
2.8963618e-06
1.9470857e-09
2.8959988e-06
2.2845264e-09
2.895566e-06
2.728695e-09
2.8950264e-06
3.4084777e-09
2.8943489e-06
4.2889189e-09
2.8933533e-06
6.3185985e-09
2.8920467e-06
8.3151624e-09
2.8881187e-06
2.5065575e-08
2.8853866e-06
1.7204002e-08
1.9813223e-06
7.2986843e-06
8.5971542e-07
8.1670559e-06
6.3137477e-07
9.0253688e-07
6.2057264e-07
3.5503468e-08
6.1324797e-07
2.4650686e-08
5.9882262e-07
5.073105e-08
5.8348873e-07
5.4110221e-08
5.6978402e-07
4.8398371e-08
5.5793047e-07
4.1836091e-08
5.4756684e-07
3.6554903e-08
5.3837868e-07
3.2398096e-08
5.301416e-07
2.9037317e-08
5.2262644e-07
2.6485727e-08
5.1566568e-07
2.4526125e-08
5.0919741e-07
2.2785535e-08
5.0317483e-07
2.1210642e-08
4.9756126e-07
1.9765683e-08
4.9231213e-07
1.8478521e-08
4.8738131e-07
1.7354516e-08
4.827339e-07
1.6354014e-08
4.7833688e-07
1.5470376e-08
4.7416173e-07
1.4687416e-08
4.7018791e-07
1.3977105e-08
4.6639784e-07
1.3328778e-08
4.6277642e-07
1.2733877e-08
4.5930704e-07
1.2197933e-08
4.5597837e-07
1.1701656e-08
4.5278005e-07
1.1242001e-08
4.4969705e-07
1.0835699e-08
4.4672143e-07
1.0457148e-08
4.4384708e-07
1.0100099e-08
4.4106329e-07
9.781134e-09
4.3836385e-07
9.4838879e-09
4.3574496e-07
9.1999281e-09
4.3319822e-07
8.9458023e-09
4.307171e-07
8.7147557e-09
4.2829993e-07
8.4893299e-09
4.2594241e-07
8.2790212e-09
4.2363757e-07
8.0936381e-09
4.2138195e-07
7.9204356e-09
4.1917022e-07
7.7657762e-09
4.169975e-07
7.6281782e-09
4.1486378e-07
7.4908881e-09
4.1276849e-07
7.3556261e-09
4.1071063e-07
7.223608e-09
4.0868725e-07
7.1020065e-09
4.0669481e-07
6.9931058e-09
4.0473154e-07
6.8904515e-09
4.0279611e-07
6.7922664e-09
4.0088621e-07
6.7021835e-09
3.9899958e-07
6.6201636e-09
3.9713474e-07
6.5434611e-09
3.9529004e-07
6.4724925e-09
3.9346396e-07
6.4067153e-09
3.9165521e-07
6.3454446e-09
3.8986242e-07
6.2892433e-09
3.8808422e-07
6.2378245e-09
3.863191e-07
6.1915547e-09
3.8456575e-07
6.149849e-09
3.8282363e-07
6.1101619e-09
3.8109188e-07
6.0735391e-09
3.7936835e-07
6.0444505e-09
3.776516e-07
6.0202559e-09
3.7594157e-07
5.9962783e-09
3.7423769e-07
5.9744544e-09
3.7253828e-07
5.9585469e-09
3.7084167e-07
5.948411e-09
3.691473e-07
5.9401406e-09
3.6745514e-07
5.9320827e-09
3.6576386e-07
5.9287624e-09
3.6407116e-07
5.9334148e-09
3.6237609e-07
5.9413424e-09
3.6067895e-07
5.9482185e-09
3.5897863e-07
5.9590902e-09
3.5727248e-07
5.9792132e-09
3.5555902e-07
6.0044644e-09
3.5383811e-07
6.0301246e-09
3.5210905e-07
6.0583438e-09
3.5036963e-07
6.094312e-09
3.4861841e-07
6.1352389e-09
3.4685553e-07
6.1756239e-09
3.4507942e-07
6.2216584e-09
3.4328683e-07
6.2790183e-09
3.4147658e-07