/*--------------------------------*- C++ -*----------------------------------*\
  =========                 |
  \\      /  F ield         | OpenFOAM: The Open Source CFD Toolbox
   \\    /   O peration     | Website:  https://openfoam.org
    \\  /    A nd           | Version:  12
     \\/     M anipulation  |
\*---------------------------------------------------------------------------*/
FoamFile
{
    format      ascii;
    class       surfaceScalarField;
    location    "300";
    object      phi;
}
// * * * * * * * * * * * * * * * * * * * * * * * * * * * * * * * * * * * * * //

dimensions      [0 3 -1 0 0 0 0];

internalField   nonuniform List<scalar> 
14782
(
0.00079839101
1.0680629e-06
-0.00079945908
0.0007969559
1.435118e-06
0.00079532445
1.631447e-06
0.00079361727
1.7071828e-06
0.00079183493
1.7823379e-06
0.00078997602
1.8589075e-06
0.00078804317
1.9328546e-06
0.00078603305
2.0101171e-06
0.00078393543
2.097616e-06
0.00078175037
2.1850649e-06
0.00077940387
2.3465023e-06
0.00077700903
2.3948367e-06
0.00077343095
3.578083e-06
0.00076709257
6.3383727e-06
0.0007581596
8.9329751e-06
0.00074743719
1.0722406e-05
0.00073578327
1.1653917e-05
0.00072358959
1.2193682e-05
0.00071114123
1.2448364e-05
0.00069868532
1.2455912e-05
0.00068637182
1.23135e-05
0.0006742809
1.2090914e-05
0.00066235856
1.1922339e-05
0.00065055036
1.1808207e-05
0.00063895013
1.1600226e-05
0.00062770275
1.124738e-05
0.00061701432
1.0688431e-05
0.00060696343
1.0050893e-05
0.00059749685
9.4665772e-06
0.00058864657
8.8502782e-06
0.00058046304
8.183531e-06
0.00057297717
7.4858671e-06
0.00056619268
6.78449e-06
0.00056009077
6.1019149e-06
0.00055463413
5.4566323e-06
0.00054977167
4.8624608e-06
0.00054544497
4.326701e-06
0.00054160311
3.841858e-06
0.00053820239
3.4007207e-06
0.00053519499
3.0074044e-06
0.00053252781
2.6671811e-06
0.00053014593
2.3818759e-06
0.00052799958
2.1463534e-06
0.0005260496
1.9499742e-06
0.00052425304
1.7965685e-06
0.00052256741
1.6856266e-06
0.00052096076
1.6066481e-06
0.00051940434
1.5564202e-06
0.00051787537
1.5289729e-06
0.00051635197
1.5233962e-06
0.00051480853
1.5434397e-06
0.00051322107
1.5874598e-06
0.00051157757
1.6435018e-06
0.00050987733
1.7002386e-06
0.00050812577
1.751562e-06
0.00050633242
1.7933469e-06
0.00050450816
1.8242651e-06
0.00050266766
1.8405029e-06
0.00050082369
1.8439686e-06
0.00049898134
1.8423478e-06
0.00049714333
1.8380131e-06
0.00049531173
1.8315956e-06
0.0004934917
1.8200327e-06
0.00049168824
1.8034546e-06
0.00048990393
1.7843144e-06
0.00048814137
1.7625599e-06
0.00048640474
1.7366261e-06
0.00048469655
1.7081974e-06
0.00048301438
1.6821621e-06
0.00048135443
1.6599531e-06
0.00047971495
1.6394813e-06
0.00047809532
1.6196321e-06
0.00047649485
1.6004701e-06
0.00047491406
1.5807918e-06
0.00047335498
1.5590755e-06
0.00047181873
1.5362465e-06
0.0004703032
1.5155294e-06
0.00046880638
1.4968282e-06
0.00046732679
1.4795818e-06
0.00046586404
1.4627583e-06
0.00046441821
1.4458221e-06
0.00046299073
1.4274861e-06
0.00046158232
1.408405e-06
0.00046019073
1.391594e-06
0.00045881489
1.3758399e-06
0.00045745407
1.3608148e-06
0.00045610732
1.3467553e-06
0.00045477616
1.3311626e-06
0.00045346093
1.3152226e-06
0.00045215951
1.3014198e-06
0.00045087122
1.2882926e-06
0.00044959528
1.2759362e-06
0.00044833094
1.2643437e-06
0.00044707858
1.252362e-06
0.0004458353
1.2432747e-06
0.00044459862
1.2366817e-06
0.00044335867
1.2399567e-06
0.00044208506
1.273606e-06
0.00044085503
1.2300254e-06
1.4793506e-06
0.00082684499
1.0459831e-06
-0.00082682291
0.0008268773
1.4028082e-06
0.00082688374
1.6250105e-06
0.00082686719
1.723734e-06
0.00082683799
1.8115341e-06
0.00082679207
1.9048306e-06
0.00082672876
1.996165e-06
0.00082664563
2.0932422e-06
0.00082653746
2.2057848e-06
0.00082639235
2.3301785e-06
0.0008261991
2.539752e-06
0.00082583124
2.7626986e-06
0.00082540485
4.0044737e-06
0.00082491377
6.8294493e-06
0.00082395967
9.8870722e-06
0.0008222942
1.2387881e-05
0.00081984719
1.4100928e-05
0.00081669121
1.534966e-05
0.00081289956
1.6240017e-05
0.0008085254
1.6830065e-05
0.0008035891
1.7249802e-05
0.00079811799
1.7562027e-05
0.00079224239
1.7797936e-05
0.00078606343
1.7987175e-05
0.00077959975
1.8063899e-05
0.00077287426
1.7972869e-05
0.00076586802
1.7694677e-05
0.00075863695
1.728196e-05
0.00075129354
1.6809988e-05
0.00074389652
1.6247299e-05
0.00073649998
1.5580067e-05
0.00072915486
1.4830986e-05
0.00072191414
1.4025213e-05
0.00071483191
1.3184149e-05
0.00070795885
1.2329686e-05
0.00070134012
1.1481196e-05
0.00069502349
1.0643333e-05
0.00068902595
9.8393926e-06
0.00068332327
9.1034034e-06
0.00067790248
8.4281934e-06
0.00067276594
7.8037225e-06
0.00066791349
7.2343196e-06
0.00066333571
6.7241336e-06
0.00065901066
6.2750301e-06
0.00065491769
5.8895352e-06
0.00065103929
5.5640303e-06
0.00064735247
5.2934641e-06
0.00064383834
5.0705501e-06
0.00064048555
4.8817704e-06
0.00063725327
4.7556714e-06
0.00063409772
4.6989919e-06
0.00063101235
4.6728236e-06
0.00062799908
4.6567782e-06
0.00062506004
4.639272e-06
0.00062219351
4.6181006e-06
0.000619395
4.5918508e-06
0.00061665898
4.5602842e-06
0.00061397599
4.5235005e-06
0.0006113345
4.4854505e-06
0.00060872897
4.4478767e-06
0.00060615966
4.4073318e-06
0.00060362806
4.3631879e-06
0.00060113708
4.3110168e-06
0.000598689
4.2515298e-06
0.00059628417
4.1891456e-06
0.00059392314
4.1235919e-06
0.00059160646
4.0533066e-06
0.0005893314
3.9832545e-06
0.00058709287
3.9206976e-06
0.00058488786
3.8649644e-06
0.00058271662
3.8107161e-06
0.00058058007
3.7561817e-06
0.00057847804
3.7025017e-06
0.00057641059
3.6482398e-06
0.00057437829
3.5913802e-06
0.00057237983
3.534707e-06
0.00057041168
3.483677e-06
0.00056847179
3.4367142e-06
0.0005665597
3.3916803e-06
0.00056467552
3.3469323e-06
0.00056281935
3.3019893e-06
0.00056099151
3.2553327e-06
0.00055919105
3.2088621e-06
0.00055741522
3.1674293e-06
0.00055566292
3.1281345e-06
0.00055393392
3.0898152e-06
0.00055222773
3.0529471e-06
0.0005505449
3.0139907e-06
0.00054888465
2.9754741e-06
0.00054724465
2.9414156e-06
0.00054562407
2.9088762e-06
0.00054402255
2.8774583e-06
0.00054243914
2.8477499e-06
0.00054087367
2.8178308e-06
0.00053932113
2.7958129e-06
0.00053778425
2.7735702e-06
0.00053623597
2.7882332e-06
0.00053471138
2.7981954e-06
0.00053297366
2.9677411e-06
2.9628496e-06
0.00085447071
1.0423064e-06
-0.00085446703
0.00085448556
1.387955e-06
0.0008544973
1.6132702e-06
0.00085449109
1.7299494e-06
0.00085447148
1.8311446e-06
0.00085443855
1.9377545e-06
0.00085438988
2.0448331e-06
0.00085432369
2.1594341e-06
0.00085423549
2.2939846e-06
0.00085411277
2.4528997e-06
0.00085394536
2.7071623e-06
0.00085364001
3.0680456e-06
0.00085337172
4.2727689e-06
0.00085335778
6.8433897e-06
0.00085349664
9.7482059e-06
0.00085369304
1.2191487e-05
0.00085383876
1.3955208e-05
0.0008538876
1.5300813e-05
0.00085378509
1.6342533e-05
0.00085349153
1.7123622e-05
0.00085299209
1.7749242e-05
0.00085227031
1.8283801e-05
0.00085131141
1.8756844e-05
0.00085009887
1.9199708e-05
0.00084857586
1.9586908e-05
0.00084665579
1.9892944e-05
0.00084424039
2.0110076e-05
0.00084127558
2.0246768e-05
0.00083775997
2.0325603e-05
0.00083366455
2.034272e-05
0.000828995
2.0249616e-05
0.00082379428
2.0031707e-05
0.00081810523
1.9714261e-05
0.00081198809
1.9301283e-05
0.00080552126
1.8796522e-05
0.00079879804
1.8204419e-05
0.00079191897
1.7522398e-05
0.00078499069
1.6767676e-05
0.00077811475
1.5979338e-05
0.00077137294
1.5170009e-05
0.00076483076
1.4345898e-05
0.0007585361
1.3528986e-05
0.00075248274
1.2777493e-05
0.00074664364
1.2114128e-05
0.00074102782
1.1505356e-05
0.00073565152
1.0940325e-05
0.00073052658
1.0418411e-05
0.00072565321
9.9439129e-06
0.0007210125
9.5224875e-06
0.00071658343
9.1847353e-06
0.00071235021
8.9322102e-06
0.00070829471
8.7283299e-06
0.00070440205
8.5494341e-06
0.00070066242
8.3788995e-06
0.00069706247
8.2180498e-06
0.00069358669
8.0676356e-06
0.00069021871
7.9282603e-06
0.00068693059
7.8116233e-06
0.00068370442
7.7116186e-06
0.00068054424
7.6080641e-06
0.00067745246
7.4991025e-06
0.00067442717
7.3884779e-06
0.0006714665
7.2716966e-06
0.00066856954
7.1484852e-06
0.00066573474
7.023945e-06
0.000662961
6.8973307e-06
0.00066024477
6.7695389e-06
0.00065757835
6.6496699e-06
0.00065495627
6.5427802e-06
0.00065237795
6.443288e-06
0.00064984503
6.343634e-06
0.00064735844
6.242772e-06
0.00064491751
6.1434334e-06
0.00064252178
6.0439668e-06
0.00064017051
5.9426515e-06
0.00063786023
5.844982e-06
0.0006355866
5.7573068e-06
0.00063334821
5.6751063e-06
0.00063114537
5.5945251e-06
0.00062897835
5.5139544e-06
0.00062684706
5.4332789e-06
0.00062475097
5.3514237e-06
0.00062268783
5.2719976e-06
0.00062065453
5.200731e-06
0.00061865024
5.1324188e-06
0.00061667507
5.0649879e-06
0.0006147287
4.9993165e-06
0.00061281108
4.9316142e-06
0.00061092056
4.8659886e-06
0.00060905464
4.8073366e-06
0.00060721253
4.750984e-06
0.00060539413
4.6958641e-06
0.0006035983
4.643576e-06
0.00060182441
4.5917203e-06
0.00060006646
4.5537626e-06
0.00059832911
4.5109263e-06
0.00059657844
4.5389028e-06
0.00059487584
4.500798e-06
0.00059285404
4.9895336e-06
4.5294434e-06
0.00088301898
1.0500294e-06
-0.0008830267
0.00088303029
1.3766439e-06
0.00088303999
1.6035762e-06
0.00088303176
1.738174e-06
0.00088301049
1.8524196e-06
0.00088297618
1.9720589e-06
0.00088292591
2.095101e-06
0.00088285775
2.2275995e-06
0.00088276743
2.3843009e-06
0.00088264321
2.5771176e-06
0.00088247398
2.8763927e-06
0.00088220417
3.3378593e-06
0.00088195794
4.5189987e-06
0.00088193416
6.867168e-06
0.00088208458
9.5977926e-06
0.00088232794
1.1948122e-05
0.00088258823
1.3694922e-05
0.00088284914
1.5039896e-05
0.00088308938
1.6102297e-05
0.00088329394
1.6919063e-05
0.00088346489
1.7578295e-05
0.00088360347
1.8145216e-05
0.0008837078
1.8652517e-05
0.00088377806
1.9129442e-05
0.00088380703
1.9557942e-05
0.00088377976
1.9920217e-05
0.00088367583
2.0214001e-05
0.0008834689
2.0453702e-05
0.00088312769
2.0666809e-05
0.00088261439
2.0856021e-05
0.00088185765
2.100636e-05
0.00088076706
2.1122297e-05
0.00087926472
2.1216597e-05
0.00087727163
2.1294375e-05
0.00087471056
2.1357589e-05
0.0008715113
2.1403682e-05
0.0008676144
2.1419297e-05
0.00086301911
2.1362964e-05
0.00085778357
2.1214877e-05
0.00085197548
2.0978106e-05
0.00084568628
2.0635097e-05
0.00083904491
2.0170355e-05
0.0008322083
1.9614099e-05
0.00082532388
1.8998545e-05
0.0008185065
1.8322744e-05
0.00081184636
1.7600458e-05
0.00080541959
1.6845181e-05
0.00079922591
1.61376e-05
0.00079322601
1.552238e-05
0.0007874505
1.4960255e-05
0.00078193946
1.4443247e-05
0.00077670291
1.396488e-05
0.00077173183
1.3520508e-05
0.00076699668
1.3114052e-05
0.00076246288
1.275185e-05
0.00075810684
1.2423674e-05
0.00075391249
1.2122611e-05
0.00074986943
1.1854689e-05
0.00074596979
1.1611252e-05
0.00074219985
1.1378005e-05
0.00073854422
1.1154735e-05
0.00073498845
1.0944243e-05
0.00073152456
1.0735594e-05
0.00072815025
1.0522796e-05
0.00072486234
1.0311849e-05
0.00072165649
1.010318e-05
0.00071852074
9.9052969e-06
0.00071544203
9.7283751e-06
0.00071242016
9.5646554e-06
0.000709459
9.4044422e-06
0.00070655949
9.2431457e-06
0.00070372055
9.0817076e-06
0.00070094022
8.9237624e-06
0.00069821737
8.7668192e-06
0.00069554894
8.6110793e-06
0.00069292841
8.4655158e-06
0.00069035161
8.3341117e-06
0.00068781895
8.2077647e-06
0.00068533138
8.0820958e-06
0.00068288876
7.9565755e-06
0.00068049053
7.8315078e-06
0.00067813482
7.7071323e-06
0.0006758177
7.5891123e-06
0.00067353606
7.4823796e-06
0.00067128976
7.3787172e-06
0.00066907921
7.2755333e-06
0.00066690409
7.1744407e-06
0.00066476347
7.0722276e-06
0.00066265466
6.9748059e-06
0.00066057504
6.8869501e-06
0.00065852415
6.8018809e-06
0.00065650208
6.717932e-06
0.0006545074
6.6382523e-06
0.00065253882
6.5602985e-06
0.00065058965
6.5029353e-06
0.0006486657
6.4348746e-06
0.00064672899
6.4756121e-06
0.00064485755
6.3722443e-06
0.00064259739
7.249687e-06
6.2047108e-06
0.00091252402
1.0647122e-06
-0.00091253871
0.00091252956
1.3711055e-06
0.00091253353
1.5996024e-06
0.00091252205
1.7496579e-06
0.00091249788
1.8765844e-06
0.00091246127
2.0086729e-06
0.00091240931
2.1470654e-06
0.00091233948
2.2974278e-06
0.00091224758
2.4762025e-06
0.00091212283
2.7018604e-06
0.00091195636
3.0428625e-06
0.00091171331
3.5809161e-06
0.00091148902
4.7432891e-06
0.00091145751
6.8986711e-06
0.00091159809
9.4572101e-06
0.00091183064
1.1715576e-05
0.00091208675
1.3438808e-05
0.00091234852
1.4778135e-05
0.00091259966
1.5851155e-05
0.00091282602
1.6692696e-05
0.00091302822
1.7376104e-05
0.00091321044
1.7962994e-05
0.00091337536
1.8487592e-05
0.00091352934
1.8975464e-05
0.00091367285
1.941443e-05
0.00091380399
1.9789081e-05
0.00091392105
2.0096937e-05
0.00091402283
2.0351926e-05
0.00091411048
2.0579157e-05
0.00091418275
2.0783747e-05
0.00091423384
2.0955272e-05
0.00091425663
2.1099507e-05
0.00091424101
2.1232224e-05
0.00091417031
2.1365072e-05
0.00091401918
2.1508718e-05
0.00091375084
2.1672022e-05
0.00091330899
2.1861151e-05
0.00091259739
2.207456e-05
0.00091149933
2.2312939e-05
0.00090990114
2.2576292e-05
0.0009076822
2.2854039e-05
0.00090472184
2.313071e-05
0.0009009532
2.3382744e-05
0.00089640051
2.3551238e-05
0.00089113327
2.358998e-05
0.00088523972
2.349401e-05
0.000878848
2.3236895e-05
0.00087213605
2.284955e-05
0.00086528197
2.2376467e-05
0.00085843448
2.1807744e-05
0.00085171769
2.1160037e-05
0.00084523535
2.0447219e-05
0.00083900606
1.9749793e-05
0.0008329822
1.9137914e-05
0.00082716161
1.857244e-05
0.00082156598
1.8019302e-05
0.00081621611
1.7472486e-05
0.00081112799
1.6942812e-05
0.00080628439
1.645485e-05
0.00080164242
1.6019977e-05
0.0007971719
1.5625256e-05
0.00079285562
1.5260521e-05
0.00078868715
1.4904059e-05
0.00078466024
1.4549708e-05
0.00078076119
1.42109e-05
0.0007769746
1.3889767e-05
0.00077329027
1.3589625e-05
0.0007697047
1.3313949e-05
0.00076621438
1.3054974e-05
0.00076281334
1.280548e-05
0.00075949516
1.256133e-05
0.00075625528
1.2321587e-05
0.00075309067
1.2088374e-05
0.00074999928
1.1858206e-05
0.0007469734
1.1636965e-05
0.00074400273
1.1436184e-05
0.00074108638
1.1250459e-05
0.0007382278
1.1066348e-05
0.00073542724
1.0882655e-05
0.00073268316
1.0700658e-05
0.00072999416
1.0520504e-05
0.00072735604
1.0345254e-05
0.00072476278
1.0182373e-05
0.00072221233
1.0032831e-05
0.00071970577
9.8852755e-06
0.0007172435
9.7377973e-06
0.00071482481
9.5931379e-06
0.0007124473
9.4497344e-06
0.00071010688
9.3152298e-06
0.00070780132
9.1925088e-06
0.0007055307
9.0724969e-06
0.00070329527
8.9533589e-06
0.00070109295
8.8405742e-06
0.00069892148
8.7317756e-06
0.00069677366
8.6507549e-06
0.00069465633
8.5521981e-06
0.00069252848
8.603468e-06
0.00069048118
8.4195437e-06
0.00068798809
9.7427717e-06
8.0060731e-06
0.00094301472
1.0851251e-06
-0.00094303513
0.00094301358
1.3722517e-06
0.00094301236
1.6008175e-06
0.00094299856
1.7634587e-06
0.00094297248
1.9026673e-06
0.00094293434
2.0468107e-06
0.00094288135
2.2000512e-06
0.00094281049
2.3682866e-06
0.00094271764
2.5690574e-06
0.00094259357
2.8259324e-06
0.00094243122
3.2052058e-06
0.00094221068
3.801463e-06
0.00094200857
4.9454004e-06
0.00094197332
6.9339129e-06
0.00094210387
9.3266609e-06
0.0009423258
1.1493649e-05
0.00094257526
1.318935e-05
0.00094283118
1.4522208e-05
0.00094307874
1.5603601e-05
0.00094330444
1.6466995e-05
0.00094350828
1.7172262e-05
0.00094369417
1.7777102e-05
0.00094386458
1.8317186e-05
0.00094402514
1.8814903e-05
0.00094417684
1.9262734e-05
0.00094431841
1.9647505e-05
0.00094444788
1.9967463e-05
0.00094456452
2.0235287e-05
0.00094467046
2.0473217e-05
0.00094476677
2.068744e-05
0.0009448525
2.0869538e-05
0.00094492767
2.102434e-05
0.00094499294
2.1166951e-05
0.0009450489
2.1309116e-05
0.00094509619
2.1461433e-05
0.00094513487
2.1633342e-05
0.00094516388
2.183214e-05
0.00094517881
2.2059624e-05
0.00094517159
2.2320163e-05
0.0009451284
2.2619478e-05
0.00094502454
2.2957901e-05
0.00094481739
2.3337861e-05
0.00094443974
2.3760394e-05
0.00094376992
2.4221056e-05
0.00094264875
2.4711152e-05
0.00094092483
2.521793e-05
0.00093844079
2.5720931e-05
0.00093509559
2.6194752e-05
0.00093089503
2.6577025e-05
0.00092590285
2.6799924e-05
0.00092021461
2.6848283e-05
0.00091396953
2.6692298e-05
0.00090736293
2.6356395e-05
0.00090059686
2.5903978e-05
0.00089383499
2.5334314e-05
0.00088719695
2.4657345e-05
0.00088077823
2.3891206e-05
0.0008745865
2.3134543e-05
0.00086856866
2.2472689e-05
0.00086273414
2.1854497e-05
0.00085711828
2.1241112e-05
0.00085174781
2.0630988e-05
0.00084661679
2.0035079e-05
0.00084168718
1.9479325e-05
0.00083692915
1.8968923e-05
0.00083232729
1.8491629e-05
0.00082788458
1.803234e-05
0.00082360809
1.759044e-05
0.00081948395
1.7179115e-05
0.00081548973
1.6799695e-05
0.0008116109
1.644016e-05
0.00080784216
1.6090329e-05
0.00080417884
1.575169e-05
0.00080061342
1.5423627e-05
0.0007971383
1.5112088e-05
0.00079374861
1.4825873e-05
0.00079044071
1.4558361e-05
0.00078721104
1.4296022e-05
0.00078405552
1.4038172e-05
0.00078097046
1.3785717e-05
0.0007779535
1.3537457e-05
0.00077499656
1.3302194e-05
0.00077209189
1.3087044e-05
0.00076924076
1.2883962e-05
0.00076644529
1.2680746e-05
0.00076370491
1.2478175e-05
0.00076101797
1.2280081e-05
0.00075837974
1.2087967e-05
0.00075578469
1.1910284e-05
0.00075323194
1.1745249e-05
0.00075072223
1.1582211e-05
0.00074825558
1.1420011e-05
0.00074582872
1.1267437e-05
0.00074343812
1.1122374e-05
0.00074107645
1.101242e-05
0.00073875169
1.0876963e-05
0.00073641996
1.0935195e-05
0.00073418398
1.0655525e-05
0.00073144973
1.2477017e-05
9.9495086e-06
0.0009745237
1.1101529e-06
-0.00097454873
0.00097451636
1.3795882e-06
0.00097451051
1.6066677e-06
0.00097449424
1.7797313e-06
0.00097446602
1.9308917e-06
0.00097442596
2.0868669e-06
0.00097437153
2.2544816e-06
0.00097429946
2.4403596e-06
0.00097420582
2.662698e-06
0.00097408298
2.9487734e-06
0.00097392571
3.3624714e-06
0.000973725
4.0021758e-06
0.00097354382
5.12658e-06
0.00097350709
6.9706412e-06
0.00097362762
9.2061279e-06
0.00097383983
1.1281438e-05
0.00097408337
1.2945814e-05
0.00097433503
1.4270545e-05
0.00097458103
1.5357603e-05
0.00097480804
1.6239989e-05
0.00097501468
1.6965622e-05
0.00097520351
1.7588267e-05
0.00097537731
1.8143387e-05
0.0009755406
1.8651612e-05
0.00097569437
1.9108967e-05
0.00097583762
1.9504257e-05
0.00097596898
1.9836104e-05
0.00097608811
2.0116156e-05
0.000976197
2.0364319e-05
0.00097629683
2.058761e-05
0.00097638672
2.0779649e-05
0.00097646663
2.0944438e-05
0.00097653738
2.1096197e-05
0.0009765995
2.1246999e-05
0.00097665376
2.1407169e-05
0.00097670128
2.1585823e-05
0.00097674326
2.179016e-05
0.00097678045
2.2022432e-05
0.0009768137
2.2286912e-05
0.00097684395
2.2589229e-05
0.00097687151
2.293034e-05
0.00097689629
2.3313085e-05
0.00097691693
2.3739752e-05
0.00097692848
2.4209505e-05
0.00097691929
2.4720345e-05
0.00097686843
2.5268783e-05
0.0009767365
2.5852861e-05
0.00097646031
2.6470943e-05
0.00097591708
2.7120258e-05
0.0009749239
2.77931e-05
0.00097329813
2.8474058e-05
0.00097085497
2.9135455e-05
0.00096747602
2.9735345e-05
0.00096319389
3.0186107e-05
0.00095811061
3.0417599e-05
0.00095234733
3.0420619e-05
0.00094607236
3.016618e-05
0.00093949732
2.9709583e-05
0.00093281977
2.9150235e-05
0.00092618196
2.8492308e-05
0.00091968595
2.7737129e-05
0.00091340727
2.690966e-05
0.00090730541
2.6136937e-05
0.00090132183
2.5462905e-05
0.00089550172
2.4789043e-05
0.00088989467
2.4098676e-05
0.00088451716
2.3409849e-05
0.00087934685
2.276075e-05
0.00087435997
2.2165996e-05
0.0008695439
2.1615763e-05
0.000864896
2.1088054e-05
0.00086041283
2.0573498e-05
0.00085608044
2.0084087e-05
0.00085188087
1.9623199e-05
0.00084780855
1.9184399e-05
0.00084386767
1.8766757e-05
0.00084005034
1.8375696e-05
0.000836342
1.8004357e-05
0.00083273244
1.7647736e-05
0.00082921591
1.7302242e-05
0.00082578761
1.6965755e-05
0.00082244233
1.6647481e-05
0.00081917514
1.6354227e-05
0.00081598192
1.6077182e-05
0.00081285995
1.5802722e-05
0.0008098061
1.553202e-05
0.00080681738
1.5268806e-05
0.00080388556
1.5019788e-05
0.00080100438
1.4791459e-05
0.00079817594
1.4573694e-05
0.00079540097
1.4357177e-05
0.00079267863
1.4142349e-05
0.00079000373
1.3942341e-05
0.00078737132
1.3754785e-05
0.00078477461
1.360913e-05
0.00078222282
1.3428748e-05
0.00077966896
1.3489053e-05
0.00077722674
1.3097747e-05
0.00077423466
1.5469104e-05
1.2052097e-05
0.001007085
1.1388283e-06
-0.0010071137
0.0010070721
1.392504e-06
0.0010070617
1.617054e-06
0.0010070426
1.7987771e-06
0.0010070122
1.961292e-06
0.0010069703
2.1287683e-06
0.0010069146
2.3101871e-06
0.0010068418
2.5132152e-06
0.0010067481
2.7564182e-06
0.0010066273
3.0694927e-06
0.0010064762
3.5135776e-06
0.0010062934
4.1850528e-06
0.0010061315
5.2884227e-06
0.0010060953
7.0068851e-06
0.0010062064
9.0950289e-06
0.0010064091
1.1078716e-05
0.0010066464
1.2708507e-05
0.0010068937
1.4023294e-05
0.0010071378
1.5113488e-05
0.001007366
1.6011728e-05
0.0010075754
1.675628e-05
0.0010077676
1.7396038e-05
0.0010079453
1.7965679e-05
0.0010081122
1.8484722e-05
0.0010082694
1.8951807e-05
0.0010084159
1.9357763e-05
0.0010085504
1.9701578e-05
0.0010086726
1.9993921e-05
0.0010087843
2.025266e-05
0.0010088865
2.0485355e-05
0.0010089787
2.0687495e-05
0.0010090605
2.0862576e-05
0.0010091329
2.1023877e-05
0.0010091964
2.1183436e-05
0.0010092523
2.1351333e-05
0.0010093016
2.1536484e-05
0.0010093457
2.1746037e-05
0.0010093854
2.1982784e-05
0.0010094215
2.2250786e-05
0.0010094551
2.2555609e-05
0.0010094866
2.289885e-05
0.0010095166
2.3283084e-05
0.0010095457
2.371062e-05
0.0010095745
2.4180717e-05
0.0010096034
2.4691515e-05
0.0010096322
2.5239968e-05
0.0010096607
2.5824368e-05
0.0010096876
2.6444032e-05
0.0010097086
2.709922e-05
0.0010097118
2.7789922e-05
0.0010096736
2.8512298e-05
0.0010095481
2.9260891e-05
0.001009256
3.0027469e-05
0.0010086398
3.0802289e-05
0.0010074842
3.1573258e-05
0.0010055873
3.2317432e-05
0.0010027456
3.3007933e-05
0.00099889286
3.3562308e-05
0.00099415056
3.3892542e-05
0.00098867072
3.3972142e-05
0.00098261894
3.3788909e-05
0.00097619866
3.3329942e-05
0.00096961967
3.2715925e-05
0.00096303507
3.2047513e-05
0.00095653732
3.1286788e-05
0.00095021212
3.0423873e-05
0.0009440377
2.958427e-05
0.00093794889
2.8849562e-05
0.00093199045
2.812444e-05
0.00092623006
2.7376149e-05
0.00092069216
2.6625952e-05
0.00091535118
2.5914477e-05
0.00091018367
2.52516e-05
0.00090518284
2.4624029e-05
0.00090035345
2.4013793e-05
0.00089569815
2.3422052e-05
0.00089120454
2.2869307e-05
0.0008868568
2.2352101e-05
0.00088264561
2.1858926e-05
0.00087856451
2.1383342e-05
0.00087460306
2.0927199e-05
0.00087075733
2.0493216e-05
0.00086702659
2.0084965e-05
0.00086340093
1.9702848e-05
0.0008598703
1.9333347e-05
0.00085642745
1.8974872e-05
0.00085306687
1.8629386e-05
0.00084978441
1.8302251e-05
0.0008465756
1.8000267e-05
0.00084343612
1.7713168e-05
0.00084036311
1.7430193e-05
0.00083735401
1.7151449e-05
0.00083440087
1.6895484e-05
0.0008314976
1.6658049e-05
0.00082863908
1.6467654e-05
0.00082583563
1.6232198e-05
0.00082303631
1.6288368e-05
0.0008203657
1.5768365e-05
0.00081709238
1.8742421e-05
1.4333146e-05
0.0010407337
1.1704323e-06
-0.0010407653
0.0010407158
1.4104213e-06
0.001040701
1.6318546e-06
0.0010406791
1.8206798e-06
0.0010406466
1.9937686e-06
0.001040603
2.1723844e-06
0.0010405461
2.3670595e-06
0.0010404727
2.5866191e-06
0.0010403793
2.8497966e-06
0.0010402613
3.1875702e-06
0.0010401169
3.6579842e-06
0.00103995
4.3519591e-06
0.0010398057
5.4326664e-06
0.0010397715
7.041144e-06
0.0010398739
8.9925931e-06
0.0010400672
1.0885397e-05
0.0010402981
1.2477659e-05
0.0010405408
1.3780519e-05
0.0010407828
1.4871499e-05
0.0010410119
1.5782615e-05
0.0010412237
1.6544496e-05
0.0010414192
1.7200518e-05
0.0010416008
1.7784162e-05
0.0010417713
1.8314138e-05
0.0010419321
1.8791058e-05
0.0010420821
1.9207705e-05
0.0010422203
1.9563439e-05
0.0010423462
1.9868031e-05
0.0010424613
2.0137564e-05
0.0010425667
2.0379928e-05
0.0010426619
2.0592288e-05
0.0010427466
2.0777832e-05
0.0010428216
2.0948908e-05
0.0010428876
2.1117434e-05
0.0010429457
2.1293284e-05
0.001042997
2.1485172e-05
0.0010430428
2.1700193e-05
0.001043084
2.1941627e-05
0.0010431213
2.2213468e-05
0.0010431558
2.2521087e-05
0.0010431882
2.2866486e-05
0.0010432192
2.3252111e-05
0.0010432495
2.3680233e-05
0.0010432799
2.415034e-05
0.0010433108
2.4660615e-05
0.0010433425
2.5208319e-05
0.0010433749
2.5791972e-05
0.0010434079
2.6411016e-05
0.0010434416
2.7065517e-05
0.0010434763
2.7755215e-05
0.0010435119
2.8476711e-05
0.0010435478
2.922498e-05
0.0010435823
2.9992942e-05
0.0010436086
3.0775971e-05
0.0010436095
3.1572419e-05
0.0010435489
3.2377993e-05
0.0010433629
3.3193955e-05
0.0010429087
3.4016499e-05
0.0010419619
3.4839343e-05
0.0010402879
3.5646162e-05
0.001037671
3.640579e-05
0.0010339716
3.7029333e-05
0.0010292855
3.740202e-05
0.0010238433
3.7489741e-05
0.0010178346
3.7295524e-05
0.0010114633
3.679514e-05
0.0010049313
3.6116293e-05
0.00099838021
3.5400609e-05
0.00099189214
3.4612515e-05
0.0009855477
3.3720588e-05
0.00097932341
3.2850248e-05
0.00097315978
3.2078098e-05
0.00096711366
3.1297729e-05
0.00096125554
3.0482144e-05
0.00095560144
2.966789e-05
0.00095012642
2.8897073e-05
0.00094482141
2.8174323e-05
0.00093969241
2.7481094e-05
0.00093474267
2.680867e-05
0.00092996339
2.6162616e-05
0.00092533856
2.5552033e-05
0.00092086137
2.4970408e-05
0.00091653307
2.4413264e-05
0.00091234532
2.3890599e-05
0.00090828507
2.3393594e-05
0.00090434279
2.291715e-05
0.00090051008
2.2462104e-05
0.00089678577
2.2026556e-05
0.00089316722
2.161882e-05
0.00088964291
2.1237472e-05
0.00088620475
2.0868355e-05
0.0008828467
2.0509505e-05
0.0008795627
2.0179476e-05
0.00087634914
1.9871609e-05
0.00087319643
1.9620366e-05
0.00087011141
1.9317216e-05
0.00086703794
1.9361839e-05
0.00086411179
1.8694511e-05
0.00086052757
2.2326644e-05
1.6814946e-05
0.0010755062
1.2044494e-06
-0.0010755402
0.0010754838
1.4327719e-06
0.0010754648
1.6508597e-06
0.0010754401
1.845449e-06
0.0010754056
2.0282679e-06
0.0010753603
2.2176277e-06
0.0010753024
2.4250021e-06
0.0010752287
2.6603337e-06
0.0010751361
2.9423824e-06
0.0010750212
3.3024688e-06
0.0010748839
3.7952359e-06
0.0010747316
4.5042862e-06
0.0010746034
5.5608141e-06
0.0010745724
7.0722366e-06
0.0010746671
8.8978435e-06
0.0010748512
1.0701287e-05
0.0010750755
1.2253385e-05
0.0010753137
1.354226e-05
0.0010755534
1.463187e-05
0.0010757829
1.5553081e-05
0.0010759969
1.6330543e-05
0.0010761955
1.7001909e-05
0.0010763806
1.7599024e-05
0.0010765548
1.8139937e-05
0.0010767191
1.8626778e-05
0.0010768727
1.9054125e-05
0.0010770144
1.9421722e-05
0.0010771439
1.9738516e-05
0.0010772624
2.0019027e-05
0.0010773711
2.0271304e-05
0.0010774694
2.0493984e-05
0.0010775571
2.0690105e-05
0.0010776349
2.0871122e-05
0.0010777035
2.1048761e-05
0.0010777641
2.1232726e-05
0.0010778177
2.1431533e-05
0.0010778657
2.1652224e-05
0.0010779088
2.1898499e-05
0.001077948
2.2174336e-05
0.0010779841
2.2484921e-05
0.001078018
2.2832601e-05
0.0010780504
2.3219746e-05
0.001078082
2.3648581e-05
0.0010781136
2.4118821e-05
0.0010781454
2.4628793e-05
0.0010781777
2.5175982e-05
0.0010782108
2.5758937e-05
0.0010782447
2.6377109e-05
0.0010782797
2.7030483e-05
0.0010783163
2.771865e-05
0.0010783547
2.8438271e-05
0.001078395
2.9184672e-05
0.0010784365
2.99515e-05
0.0010784785
3.0733936e-05
0.0010785209
3.153e-05
0.0010785628
3.2336081e-05
0.0010786033
3.3153489e-05
0.0010786381
3.3981694e-05
0.0010786533
3.4824143e-05
0.0010786149
3.5684534e-05
0.0010784615
3.6559193e-05
0.0010780451
3.7445702e-05
0.001077117
3.8330158e-05
0.0010754133
3.919344e-05
0.0010727017
4.0007109e-05
0.0010688478
4.0649054e-05
0.0010639699
4.0994196e-05
0.0010583466
4.1023883e-05
0.001052215
4.0744135e-05
0.0010457884
4.0147189e-05
0.0010392481
3.9390592e-05
0.0010327061
3.862006e-05
0.00102623
3.7773858e-05
0.0010198789
3.6833239e-05
0.0010136066
3.5940216e-05
0.0010073734
3.5130199e-05
0.0010012666
3.428117e-05
0.00099534337
3.3404306e-05
0.00098960326
3.2548776e-05
0.00098403333
3.1732551e-05
0.00097863508
3.095028e-05
0.00097341577
3.0189723e-05
0.00096837623
2.9452801e-05
0.00096350557
2.8761258e-05
0.00095879463
2.810454e-05
0.00095423896
2.747282e-05
0.00094982795
2.6873113e-05
0.00094555376
2.6300744e-05
0.00094141345
2.5759128e-05
0.0009373985
2.5252423e-05
0.00093349824
2.4768617e-05
0.00092970257
2.430517e-05
0.00092600746
2.3874593e-05
0.00092241174
2.3467322e-05
0.00091890027
2.3131839e-05
0.00091547476
2.2742723e-05
0.00091207269
2.276391e-05
0.00090884827
2.1918939e-05
0.00090491609
2.6258816e-05
1.952359e-05
0.00111144
1.2405027e-06
-0.001111476
0.0011114137
1.4590204e-06
0.0011113908
1.6738088e-06
0.0011113631
1.873059e-06
0.0011113267
2.0647439e-06
0.0011112799
2.2643828e-06
0.0011112211
2.4838611e-06
0.0011111473
2.734089e-06
0.0011110559
3.0337368e-06
0.0011109447
3.4137305e-06
0.0011108149
3.9250654e-06
0.0011106759
4.6432237e-06
0.0011105624
5.6743221e-06
0.0011105352
7.0994136e-06
0.0011106233
8.8097894e-06
0.0011107984
1.0526146e-05
0.001111016
1.2035806e-05
0.0011112497
1.3308609e-05
0.0011114867
1.439484e-05
0.0011117162
1.5323536e-05
0.0011119321
1.6114715e-05
0.0011121336
1.6800421e-05
0.0011123221
1.7410433e-05
0.0011124999
1.796219e-05
0.0011126677
1.8458996e-05
0.0011128248
1.8897026e-05
0.0011129701
1.9276411e-05
0.0011131032
1.9605353e-05
0.0011132253
1.9896991e-05
0.0011133372
2.0159406e-05
0.0011134387
2.0392508e-05
0.0011135295
2.0599307e-05
0.0011136102
2.0790424e-05
0.0011136816
2.0977327e-05
0.0011137447
2.1169567e-05
0.0011138008
2.1375475e-05
0.001113851
2.1602033e-05
0.0011138962
2.1853301e-05
0.0011139373
2.2133273e-05
0.0011139752
2.2446972e-05
0.0011140108
2.2797033e-05
0.0011140447
2.3185794e-05
0.0011140779
2.3615435e-05
0.0011141108
2.4085879e-05
0.001114144
2.4595614e-05
0.0011141776
2.5142339e-05
0.0011142119
2.5724647e-05
0.001114247
2.6341993e-05
0.0011142832
2.6994291e-05
0.0011143208
2.7681054e-05
0.00111436
2.8399095e-05
0.0011144008
2.9143836e-05
0.0011144431
2.9909206e-05
0.0011144866
3.0690438e-05
0.0011145313
3.148535e-05
0.0011145768
3.2290528e-05
0.001114623
3.3107358e-05
0.0011146687
3.3935913e-05
0.001114714
3.4778857e-05
0.0011147587
3.563986e-05
0.0011148018
3.6516066e-05
0.0011148401
3.7407435e-05
0.0011148587
3.8311568e-05
0.0011148184
3.9233726e-05
0.0011146487
4.0176813e-05