/*--------------------------------*- C++ -*----------------------------------*\
  =========                 |
  \\      /  F ield         | OpenFOAM: The Open Source CFD Toolbox
   \\    /   O peration     | Website:  https://openfoam.org
    \\  /    A nd           | Version:  12
     \\/     M anipulation  |
\*---------------------------------------------------------------------------*/
FoamFile
{
    format      ascii;
    class       volScalarField;
    location    "300";
    object      yPlus;
}
// * * * * * * * * * * * * * * * * * * * * * * * * * * * * * * * * * * * * * //

dimensions      [];

internalField   uniform 0;

boundaryField
{
    inlet
    {
        type            calculated;
        value           uniform 0;
    }
    top
    {
        type            calculated;
        value           uniform 0;
    }
    outlet
    {
        type            calculated;
        value           uniform 0;
    }
    slipsurface
    {
        type            calculated;
        value           uniform 0;
    }
    bottom
    {
        type            calculated;
        value           nonuniform List<scalar> 
100
(
1.3594195
1.3429104
1.3266898
1.3127336
1.302801
1.2983002
1.3009513
1.308178
1.3219862
1.336126
1.3800072
1.371421
8.1210352
41.994695
67.285129
83.771876
93.462116
98.420517
100.96838
100.87817
100.3377
99.328176
98.073391
96.731215
95.354774
93.971026
92.606024
91.296879
90.082199
88.948095
87.895966
86.932427
86.061871
85.284148
84.594679
83.986079
83.448672
82.97309
82.553091
82.184003
81.859208
81.570608
81.310992
81.073085
80.853819
80.643655
80.440703
80.241714
80.043473
79.843853
79.640528
79.430704
79.212539
78.985912
78.75206
78.512706
78.269524
78.024238
77.778398
77.533026
77.288621
77.045436
76.803813
76.564333
76.327564
76.093826
75.863428
75.636606
75.413143
75.192455
74.974109
74.758065
74.544443
74.333318
74.124871
73.91931
73.716455
73.515871
73.317297
73.120748
72.926321
72.734193
72.544505
72.357051
72.171479
71.987695
71.805703
71.625634
71.447628
71.271493
71.096945
70.923899
70.752423
70.582429
70.414122
70.245888
70.08105
69.906414
69.758314
69.486907
)
;
    }
    frontandback
    {
        type            empty;
    }
}


// ************************************************************************* //
