/*--------------------------------*- C++ -*----------------------------------*\
  =========                 |
  \\      /  F ield         | OpenFOAM: The Open Source CFD Toolbox
   \\    /   O peration     | Website:  https://openfoam.org
    \\  /    A nd           | Version:  12
     \\/     M anipulation  |
\*---------------------------------------------------------------------------*/
FoamFile
{
    format      ascii;
    class       surfaceScalarField;
    location    "900";
    object      phi;
}
// * * * * * * * * * * * * * * * * * * * * * * * * * * * * * * * * * * * * * //

dimensions      [0 3 -1 0 0 0 0];

internalField   nonuniform List<scalar> 
5870
(
-3.79187750302e-07
1.61328522821e-06
-1.45383764e-06
4.40734193721e-06
-3.06654771913e-06
6.56184039188e-06
-5.08128155551e-06
8.18222457718e-06
-7.38655013478e-06
9.36376112724e-06
-9.88353872174e-06
1.0178523234e-05
-1.24795706789e-05
1.06824612585e-05
-1.50850523985e-05
1.0920357511e-05
-1.76130863996e-05
1.09297466293e-05
-1.99810252391e-05
1.07439201146e-05
-2.21131552126e-05
1.0393959347e-05
-2.39436922619e-05
9.90981437738e-06
-2.54193968846e-05
9.32057343265e-06
-2.6501337055e-05
8.65416225985e-06
-2.71655812125e-05
7.93674180781e-06
-2.74028303055e-05
7.19204296803e-06
-2.72171592445e-05
6.44081118031e-06
-2.66241258151e-05
5.70045727594e-06
-2.56485259939e-05
4.98494339744e-06
-2.43220480736e-05
4.30488403912e-06
-2.26810244023e-05
3.66781432968e-06
-2.07644170114e-05
3.07856762945e-06
-1.86121137571e-05
2.53970703214e-06
-1.62635624923e-05
2.05196513116e-06
-1.37567348792e-05
1.61465901002e-06
-1.1127388411e-05
1.22605992042e-06
-8.40858299996e-06
8.83707693082e-07
-5.63040451302e-06
5.84667578943e-07
-2.81984811766e-06
3.2573161339e-07
1.02751482725e-07
-2.12896567572e-07
1.826181796e-06
-7.03341560927e-07
4.89778692982e-06
-1.41430296721e-06
7.27280179804e-06
-2.30030351067e-06
9.06822512104e-06
-3.30079264981e-06
1.03642502666e-05
-4.34777340509e-06
1.12255039906e-05
-5.3714060004e-06
1.17060938544e-05
-6.30564258711e-06
1.18545940984e-05
-7.09364310244e-06
1.17177471447e-05
-7.69218361908e-06
1.13424606299e-05
-8.07437276517e-06
1.07761484949e-05
-8.23036992095e-06
1.00658115301e-05
-8.16622056067e-06
9.25642407551e-06
-7.90124464873e-06
8.38918634562e-06
-7.46457126209e-06
7.50006842093e-06
-6.89141414602e-06
6.618885852e-06
-6.21957365801e-06
5.76897069196e-06
-5.48648915377e-06
4.9673727717e-06
-4.72700110246e-06
4.22545534762e-06
-3.97184631901e-06
3.54972925552e-06
-3.24681636512e-06
2.94278437506e-06
-2.57245837806e-06
2.40420964263e-06
-1.96418104374e-06
1.93142969814e-06
-1.43263522383e-06
1.52041931092e-06
-9.84258410665e-07
1.16628219685e-06
-6.21896585577e-07
8.63698095346e-07
-3.45440905596e-07
6.07252013142e-07
-1.52437491913e-07
3.91664165265e-07
-3.86461917384e-08
2.11940313229e-07
6.41052909833e-08
-1.73034825102e-07
1.99921662129e-06
-6.86878058282e-07
5.41163016242e-06
-1.42800907446e-06
8.01393281412e-06
-2.28210247981e-06
9.92231852669e-06
-3.15188853746e-06
1.12340363245e-05
-3.95549961112e-06
1.20291150652e-05
-4.62847730372e-06
1.23790715475e-05
-5.12635581406e-06
1.23524726092e-05
-5.42599329517e-06
1.20173846259e-05
-5.52473862356e-06
1.14412059574e-05
-5.43739923555e-06
1.06888091081e-05
-5.1916282904e-06
9.82004058315e-06
-4.82265718245e-06
8.88745296931e-06
-4.36827741205e-06
7.93480657401e-06
-3.86473208582e-06
6.99652309459e-06
-3.34384925474e-06
6.09800302092e-06
-2.83144825911e-06
5.25656969617e-06
-2.34683946616e-06
4.48276397875e-06
-1.90313171895e-06
3.781747601e-06
-1.50804350095e-06
3.15464103747e-06
-1.16495261176e-06
2.59969348561e-06
-8.73984849162e-07
2.11324188012e-06
-6.33012040653e-07
1.69045688974e-06
-4.38490319702e-07
1.32589758987e-06
-2.86115065047e-07
1.01390694219e-06
-1.71298929303e-07
7.48881959604e-07
-8.94962533367e-08
5.25449337187e-07
-3.64042955665e-08
3.38572207495e-07
-8.0721619781e-09
1.83608179644e-07
5.60331290044e-08
-1.0933593355e-07
2.10855255495e-06
-3.64528601868e-07
5.66682283038e-06
-7.05828839615e-07
8.35523305181e-06
-1.07688372834e-06
1.02933734156e-05
-1.42373467609e-06
1.15808872724e-05
-1.70304123257e-06
1.23084216222e-05
-1.88689400494e-06
1.256292432e-05
-1.96438491437e-06
1.24299635189e-05
-1.94008278977e-06
1.19930825013e-05
-1.83019734001e-06
1.13313205073e-05
-1.65764324039e-06
1.05162550088e-05
-1.4472233055e-06
9.60962064769e-06
-1.2218155736e-06
8.66204523791e-06
-9.99973753048e-07
7.71296475314e-06
-7.94921352843e-07
6.79147069435e-06
-6.14642952291e-07
5.91772462037e-06
-4.62668976358e-07
5.10459572021e-06
-3.39173420153e-07
4.35926842254e-06
-2.42097655659e-07
3.68467183658e-06
-1.68125673803e-07
3.08066905561e-06
-1.13433693898e-07
2.54500150567e-06
-7.42058708188e-08
2.07401405705e-06
-4.69471254296e-08
1.66319814436e-06
-2.86401315745e-08
1.30759059601e-06
-1.67943489888e-08
1.0020611596e-06
-9.42789471026e-09
7.41515505325e-07
-5.01313417497e-09
5.21034576652e-07
-2.40718202505e-09
3.35966255345e-07
-7.80472437989e-10
1.81981470057e-07
5.52526565662e-08
-8.89974438904e-08
2.19754999893e-06
-3.31785249422e-07
5.90961063562e-06
-6.58611409581e-07
8.68205921192e-06
-1.00270325973e-06
1.06374652659e-05
-1.31211479711e-06
1.18902988098e-05
-1.55262807392e-06
1.25489348994e-05
-1.70790286384e-06
1.27181991101e-05
-1.77687594831e-06
1.24989366035e-05
-1.76935538088e-06
1.19855619339e-05
-1.70111648607e-06
1.12630816122e-05
-1.58963534601e-06
1.04047738691e-05
-1.45110431201e-06
9.47108961318e-06
-1.29884338198e-06
8.50978430835e-06
-1.14284889304e-06
7.55697026389e-06
-9.90067302295e-07
6.63868910357e-06
-8.45003128906e-07
5.77266044699e-06
-7.10381717398e-07
4.96997430866e-06
-5.87714957129e-07
4.23660166227e-06
-4.77718344008e-07
3.57467522361e-06
-3.80587911339e-07
2.98353862292e-06
-2.96171116567e-07
2.46058471083e-06
-2.2406904937e-07
2.00191198987e-06
-1.63699904809e-07
1.60282899982e-06
-1.14343465017e-07
1.25823415619e-06
-7.51774566254e-08
9.62895151208e-07
-4.53104872865e-08
7.11648535986e-07
-2.38127160895e-08
4.99536805458e-07
-9.74381032379e-09
3.2189734958e-07
-2.17735195674e-09
1.74415011691e-07
5.30753046094e-08
-6.2009474842e-08
2.25955947384e-06
-2.11748246204e-07
6.05934940679e-06
-4.02169411409e-07
8.87248037709e-06
-5.91609268584e-07
1.08269051231e-05
-7.49214343848e-07
1.20479038851e-05
-8.57765809683e-07
1.26574863655e-05
-9.12540399178e-07
1.27729736997e-05
-9.17973834201e-07
1.25043700386e-05
-8.83704226638e-07
1.19512923263e-05
-8.21143935139e-07
1.12005213206e-05
-7.4113305819e-07
1.03247629924e-05
-6.52708033916e-07
9.38266458866e-06
-5.62719845747e-07
8.4197961204e-06
-4.75958538007e-07
7.47020895601e-06
-3.95500537641e-07
6.5582311032e-06
-3.2310092812e-07
5.70026083747e-06
-2.59545593132e-07
4.90641897366e-06
-2.04937222671e-07
4.18199329181e-06
-1.58917447651e-07
3.52865544864e-06
-1.20836237912e-07
2.94545741318e-06
-8.98796350683e-08
2.42962810797e-06
-6.51643419461e-08
1.97719669676e-06
-4.58054448852e-08
1.58347010277e-06
-3.09622340975e-08
1.24339094539e-06
-1.98664505702e-08
9.51799367681e-07
-1.18369201608e-08
7.03619005576e-07
-6.28416788157e-09
4.9398405318e-07
-2.70813466862e-09
3.18321316366e-07
-6.91549392426e-10
1.72398426414e-07
5.2383755217e-08
-4.85749739422e-08
2.30813444783e-06
-1.73964647693e-07
6.18473908038e-06
-3.35215333779e-07
9.03373106316e-06
-4.96254089279e-07
1.09879438787e-05
-6.32354178955e-07
1.21840039749e-05
-7.30627064334e-07
1.27557592511e-05
-7.87831922633e-07
1.28301785581e-05
-8.07136866163e-07
1.25236749822e-05
-7.95050145616e-07
1.19392056058e-05
-7.5913627118e-07
1.1164607446e-05
-7.06625677157e-07
1.02722523985e-05
-6.43743490701e-07
9.31978240198e-06
-5.75503783414e-07
8.35155641333e-06
-5.05753430482e-07
7.40045860293e-06
-4.37323098248e-07
6.48980077095e-06
-3.72206957357e-07
5.63514469658e-06
-3.11734364234e-07
4.84594638052e-06
-2.56719349329e-07
4.1269782769e-06
-2.07584537504e-07
3.47952063688e-06
-1.64460842749e-07
2.90233371842e-06
-1.27266137947e-07
2.39243340314e-06
-9.57666078281e-08
1.94569716665e-06
-6.96243162544e-08
1.55732781121e-06
-4.84340127102e-08
1.22220064184e-06
-3.17515863466e-08
9.35116941319e-07
-1.91159907039e-08
6.90983409932e-07
-1.00659831323e-08
4.84934045611e-07
-4.15267457064e-09
3.12408007804e-07
-9.48655853674e-10
1.69194407698e-07
5.14350993634e-08
-3.52642152209e-08
2.34339866309e-06
-1.21710212286e-07
6.27118507734e-06
-2.30244393527e-07
9.14226524438e-06
-3.3625833729e-07
1.10939578225e-05
-4.23328277694e-07
1.22710739153e-05
-4.83477381404e-07
1.28159083549e-05
-5.1531551219e-07
1.2862016689e-05
-5.21618625703e-07
1.25299780958e-05
-5.0722250542e-07
1.19248094855e-05
-4.77542222012e-07
1.11349271625e-05
-4.37693021275e-07
1.02324031979e-05
-3.92058089235e-07
9.27414746979e-06
-3.44140829518e-07
8.30363915374e-06
-2.96578205395e-07
7.35289597872e-06
-2.51234709381e-07
6.44445727492e-06
-2.09328896894e-07
5.59323888409e-06
-1.715653072e-07
4.80818279081e-06
-1.38257299393e-07
4.0936702691e-06
-1.09433916752e-07
3.45069725427e-06
-8.49283927493e-08
2.87782819441e-06
-6.44485142308e-08
2.37195352461e-06
-4.76304715361e-08
1.92887912396e-06
-3.40784906142e-08
1.54377583029e-06
-2.33927445091e-08
1.21151489572e-06
-1.51879643458e-08
9.26912161154e-07
-9.10493387188e-09
6.84900379459e-07
-4.81673796601e-09
4.80645849706e-07
-2.0312976197e-09
3.09622567457e-07
-4.91394710411e-10
1.67654504788e-07
5.09437046529e-08
-2.70627693874e-08
2.3704614325e-06
-9.55099329841e-08
6.33963224085e-06
-1.82365790868e-07
9.22912110225e-06
-2.6807175764e-07
1.11796637893e-05
-3.39715828139e-07
1.23427179858e-05
-3.90906431311e-07
1.28670989582e-05
-4.20246497652e-07
1.28913567553e-05
-4.29515040074e-07
1.25392466383e-05
-4.22126207508e-07
1.19174206529e-05
-4.0204026385e-07
1.11148412188e-05
-3.73094898329e-07
1.02034578324e-05
-3.38654224406e-07
9.23970679574e-06
-3.01469996831e-07
8.26645492627e-06
-2.63670848212e-07
7.31509683002e-06
-2.26819906858e-07
6.40760633356e-06
-1.92001910514e-07
5.55842088775e-06
-1.59916441827e-07
4.77609732211e-06
-1.30964697389e-07
4.06471852466e-06
-1.0532418242e-07
3.42505673933e-06
-8.30098862736e-08
2.85551389826e-06
-6.39227078738e-08
2.35286634619e-06
-4.78868698703e-08
1.91284328596e-06
-3.4678304015e-08
1.53056726444e-06
-2.40458642361e-08
1.20088245594e-06
-1.57269471731e-08
9.1859324409e-07
-9.45879425706e-09
6.78632226541e-07
-4.98647359698e-09
4.76173529047e-07
-2.06831522047e-09
3.0670440908e-07
-4.7940007678e-10
1.66065589645e-07
5.04643045761e-08
-2.01605187673e-08
2.39062195129e-06
-7.00768434506e-08
6.38954856546e-06
-1.32922306347e-07
9.29196656513e-06
-1.94534273996e-07
1.1241275757e-05
-2.45553659136e-07
1.23937373709e-05
-2.81394174809e-07
1.29029394739e-05
-3.01134812365e-07
1.29110973929e-05
-3.06189580353e-07
1.25443014063e-05
-2.99172877701e-07
1.19104039503e-05
-2.83089761858e-07
1.10987581029e-05
-2.60833974232e-07
1.01812020448e-05
-2.34923309878e-07
9.2137961313e-06
-2.07396088697e-07
8.23892770516e-06
-1.79805595077e-07
7.28750633635e-06
-1.53266886624e-07
6.3810676251e-06
-1.28526144136e-07
5.53368014526e-06
-1.06034736725e-07
4.75360591469e-06
-8.601841811e-08
4.04470220604e-06
-6.85372756738e-08
3.40757559692e-06
-5.35351075812e-08
2.84051173016e-06
-4.08785528105e-08
2.34020979141e-06
-3.03870922539e-08
1.9023518254e-06
-2.18553359441e-08
1.52203550814e-06
-1.50690376313e-08
1.19409615762e-06
-9.81616540046e-09
9.13340371859e-07
-5.89418247745e-09
6.74710243617e-07
-3.11449961598e-09
4.73393846185e-07
-1.30487383254e-09
3.04894783298e-07
-3.10359264835e-10
1.65071075076e-07
5.01539453113e-08
-1.54496433182e-08
2.40607159462e-06
-5.42648152364e-08
6.42836373733e-06
-1.03439083436e-07
9.34114083332e-06
-1.51939352879e-07
1.12897760264e-05
-1.92456108591e-07
1.24342541267e-05
-2.21347517404e-07
1.29318308828e-05
-2.37797639598e-07
1.29275475151e-05
-2.42806823566e-07
1.25493105903e-05
-2.38324569802e-07
1.19059216965e-05
-2.26625443767e-07
1.10870589768e-05
-2.0991894966e-07
1.01644955508e-05
-1.90141859142e-07
9.19401904072e-06
-1.68875182726e-07
8.21766102881e-06
-1.4733713384e-07
7.26596828742e-06
-1.26416706748e-07
6.360147198e-06
-1.06724693219e-07
5.51398813173e-06
-8.86483275545e-08
4.73552954903e-06
-7.24022102015e-08
4.02845608869e-06
-5.807224872e-08
3.39324563546e-06
-4.56517412152e-08
2.82809122266e-06
-3.50699850996e-08
2.32962803529e-06
-2.62143571705e-08
1.89349619747e-06
-1.8946975036e-08
1.51476812601e-06
-1.31170085633e-08
1.18826619115e-06
-8.56957793546e-09
9.08792941231e-07
-5.15201662901e-09
6.71292682311e-07
-2.71812560819e-09
4.70959955163e-07
-1.13091335874e-09
3.03307571049e-07
-2.64208149773e-10
1.64204369867e-07
4.98897371616e-08
-1.17085381755e-08
2.41778013281e-06
-4.08612499359e-08
6.45751644905e-06
-7.76858330092e-08
9.37796541638e-06
-1.13917837756e-07
1.13260080312e-05
-1.44068049698e-07
1.24644043386e-05
-1.65410187296e-07
1.29531730204e-05
-1.77354734152e-07
1.2939492062e-05
-1.806861814e-07
1.25526420375e-05
-1.76904327662e-07
1.19021398428e-05
-1.67749444562e-07
1.10779040937e-05
-1.54905773578e-07
1.01516518798e-05
-1.39844273685e-07
9.17895754077e-06
-1.23760359366e-07
8.20157711453e-06
-1.07569428681e-07
7.24977735671e-06
-9.1933243152e-08
6.34451101247e-06
-7.72995860097e-08
5.49935447459e-06
-6.39447408247e-08
4.72217470384e-06
-5.20131952095e-08
4.01652454307e-06
-4.15520329273e-08
3.38278447318e-06
-3.25392656028e-08
2.81907845533e-06
-2.49063144907e-08
2.32199508417e-06
-1.85553055462e-08
1.88714518853e-06
-1.33720009852e-08
1.50958482145e-06
-9.23519272097e-09
1.18412938288e-06
-6.02330796995e-09
9.05581056481e-07
-3.61887064195e-09
6.68888244984e-07
-1.91134968073e-09
4.69252434203e-07
-7.98820203814e-10
3.02195041571e-07
-1.88770627982e-10
1.63594320291e-07
4.97009665337e-08
-8.99492802282e-09
2.42677506084e-06
-3.15350427824e-08
6.48005656378e-06
-6.00860282815e-08
9.40651640188e-06
-8.82518434078e-08
1.13541738463e-05
-1.1177895307e-07
1.24879314483e-05
-1.28540565141e-07
1.29699346325e-05
-1.38056641745e-07
1.29490081386e-05
-1.40909113151e-07
1.2555494509e-05
-1.38236037069e-07
1.18994667667e-05
-1.3136629983e-07
1.10710343564e-05
-1.21590974265e-07
1.01418765543e-05
-1.10041553196e-07
9.16740811966e-06
-9.76411974078e-08
8.18917675878e-06
-8.51004811429e-08
7.23723664042e-06
-7.29369408416e-08
6.33234747217e-06
-6.15048968625e-08
5.48792243061e-06
-5.10274849407e-08
4.71169729191e-06
-4.16265899838e-08
4.00712364812e-06
-3.33487471599e-08
3.37450663037e-06
-2.61864626592e-08
2.81191617083e-06
-2.00951441582e-08
2.31590376566e-06
-1.50061692531e-08
1.88205621363e-06
-1.0836728e-08
1.5054153802e-06
-7.49706266121e-09
1.18078971754e-06
-4.89565913155e-09
9.02979652951e-07
-2.94285704619e-09
6.66935442898e-07
-1.55325845377e-09
4.67862835612e-07
-6.472373286e-10
3.01289020445e-07
-1.51786485685e-10
1.63098869448e-07
4.95491800481e-08
-6.88061835525e-09
2.43365567921e-06
-2.4055014878e-08
6.49723096029e-06
-4.57806005382e-08
9.42824198753e-06
-6.71894997399e-08
1.13755827456e-05
-8.50418801446e-08
1.25057838287e-05
-9.77207140166e-08
1.29826134664e-05
-1.04866799906e-07
1.29561542245e-05
-1.06931870561e-07
1.25575595796e-05
-1.04791579755e-07
1.18973264759e-05
-9.94659821524e-08
1.10657087588e-05
-9.19446485552e-08
1.01343552207e-05
-8.3093613862e-08
9.15855708493e-06
-7.36182185096e-08
8.17970136345e-06
-6.40600124209e-08
7.22767843431e-06
-5.48118928375e-08
6.32309935258e-06
-4.61411329202e-08
5.47925167068e-06
-3.82141337829e-08
4.70377029277e-06
-3.11195941887e-08
4.00002910852e-06
-2.48885968356e-08
3.36827563303e-06
-1.95111674851e-08
2.80653874148e-06
-1.49494300328e-08
2.3113420282e-06
-1.11477469705e-08
1.87825453057e-06
-8.04032679243e-09
1.50230796002e-06
-5.55677885999e-09
1.1783061696e-06
-3.62605021512e-09
9.01048924305e-07
-2.17911531902e-09
6.65488508003e-07
-1.15072376079e-09
4.66834444053e-07
-4.80450085908e-10
3.0061874677e-07
-1.13237010503e-10
1.62731656373e-07
4.94359430374e-08
-5.29644441292e-09
2.43895212362e-06
-1.85528730435e-08
6.5104873889e-06
-3.5341514603e-08
9.44503062909e-06
-5.19035764047e-08
1.13921448074e-05
-6.57366482652e-08
1.25196169006e-05
-7.5588430489e-08
1.29924652487e-05
-8.11757331139e-08
1.29617415271e-05
-8.28408407459e-08
1.25592246873e-05
-8.12538633373e-08
1.18957394985e-05
-7.71976114053e-08
1.10616525068e-05
-7.14328405715e-08
1.01285904499e-05
-6.4626397759e-08
9.1517506421e-06
-5.73223713182e-08
8.17239733703e-06
-4.99394773092e-08
7.22029554029e-06
-4.27825076422e-08
6.31594238291e-06
-3.60598742055e-08
5.47252903725e-06
-2.9902495032e-08
4.6976129136e-06
-2.43814753128e-08
3.9945080888e-06
-1.95234307859e-08
3.36341758851e-06
-1.53231181146e-08
2.80233842881e-06
-1.17534735501e-08
2.30777238364e-06
-8.77336367214e-09
1.87527442069e-06
-6.33341922653e-09
1.49986801557e-06
-4.380318696e-09
1.17635306907e-06
-2.85985014996e-09
8.99528455759e-07
-1.71902972446e-09
6.64347687576e-07
-9.07504290958e-10
4.66022918621e-07
-3.78419930771e-10
3.0008966241e-07
-8.88984789402e-11
1.62442134921e-07
4.93470445587e-08
-4.07043955364e-09
2.44302256318e-06
-1.42408847657e-08
6.52065783409e-06
-2.71135262558e-08
9.45790327057e-06
-3.98060752382e-08
1.14048373563e-05
-5.03992660444e-08
1.25302100914e-05
-5.79334903141e-08
1.29999994729e-05
-6.21932731154e-08
1.29660013099e-05
-6.34433166561e-08
1.25604747308e-05
-6.21998048249e-08
1.18944959866e-05
-5.90651145384e-08
1.10585178165e-05
-5.46242920075e-08
1.01241496274e-05
-4.93898691753e-08
9.14651621924e-06
-4.37797274127e-08
8.16678719528e-06
-3.81151241613e-08
7.21463093702e-06
-3.26295309217e-08
6.31045678967e-06
-2.74821646617e-08
5.46738167098e-06
-2.27725603897e-08
4.69290330932e-06
-1.85542247682e-08
3.99028975318e-06
-1.48464795495e-08
3.35970984329e-06
-1.16442304733e-08
2.79913617973e-06
-8.92573340091e-09
2.30505388656e-06
-6.65858721187e-09
1.8730072745e-06
-4.8042371352e-09
1.4980136655e-06
-3.32127114225e-09
1.17487010308e-06
-2.1677644681e-09
8.98374949084e-07
-1.30288965415e-09
6.63482812761e-07
-6.87970640006e-10
4.65407999607e-07
-2.8712375473e-10
2.99688815524e-07
-6.759755174e-11
1.62222608718e-07
4.92794470069e-08
-3.13738036048e-09
2.44615994354e-06
-1.09856522919e-08
6.52850610602e-06
-2.09239312305e-08
9.46784154951e-06
-3.07276927352e-08
1.14146411179e-05
-3.89155662265e-08
1.25383979649e-05
-4.47460810138e-08
1.30058299878e-05
-4.80514905726e-08
1.29693067195e-05
-4.90344188229e-08
1.25614576591e-05
-4.80916758871e-08
1.18935532437e-05
-4.56868906221e-08
1.10561130313e-05
-4.22706986316e-08
1.01207334354e-05
-3.82381590295e-08
9.14248367963e-06
-3.39116317752e-08
8.16246066804e-06
-2.95391964067e-08
7.21025850164e-06
-2.53014086477e-08
6.30621900191e-06
-2.13216797933e-08
5.46340194213e-06
-1.76774628779e-08
4.6892590924e-06
-1.44107345568e-08
3.98702302486e-06
-1.15370866384e-08
3.35683619538e-06
-9.05322495952e-09
2.79665231805e-06
-6.94293247408e-09
2.30294359407e-06
-5.18167430725e-09
1.87124601633e-06
-3.74006335699e-09
1.49657205455e-06
-2.58640333291e-09
1.17371644305e-06
-1.68850423146e-09
8.97477049983e-07
-1.01493591438e-09
6.62809244444e-07
-5.35855519641e-10
4.64928919212e-07
-2.23517167227e-10
2.99376477172e-07
-5.25489952636e-11
1.62051640546e-07
4.92268980114e-08
-2.4169318774e-09
2.44857687542e-06
-8.45850764692e-09
6.53454768177e-06
-1.61069463503e-08
9.4754899882e-06
-2.36502018599e-08
1.14221843734e-05
-2.99481096242e-08
1.25446958726e-05
-3.44302232591e-08
1.30103121014e-05
-3.69678897569e-08
1.2971844386e-05
-3.77176233834e-08
1.25622073927e-05
-3.69853993211e-08
1.18928210196e-05
-3.51285533925e-08
1.10542561853e-05
-3.24943153622e-08
1.01180991974e-05
-2.93870185493e-08
9.1393763828e-06
-2.60549197745e-08
8.15912856927e-06
-2.26889897991e-08
7.20689257166e-06
-1.94281270681e-08
6.30295813918e-06
-1.63671642493e-08
5.46034097931e-06
-1.35654989545e-08
4.68645742711e-06
-1.1055184127e-08
3.98451271003e-06
-8.84794815156e-09
3.3546289594e-06
-6.940987117e-09
2.79474535701e-06
-5.32157141183e-09
2.30132417837e-06
-3.97060247685e-09
1.8698950474e-06
-2.86528770299e-09
1.49546673977e-06
-1.98110069612e-09
1.17283225605e-06
-1.2931777925e-09
8.96789127079e-07
-7.77279290599e-10
6.62293345941e-07
-4.10420882114e-10
4.64562060804e-07
-1.71259679249e-10
2.99137315969e-07
-4.03009946739e-11
1.61920681862e-07
4.91865970168e-08
-1.86452786445e-09
2.45044140329e-06
-6.52760997436e-09
6.53921076388e-06
-1.24321395721e-08
9.4813945178e-06
-1.8256622666e-08
1.14280088565e-05
-2.31209734024e-08
1.25495602233e-05
-2.65846683795e-08
1.30137757964e-05
-2.8548038363e-08
1.2973807756e-05
-2.9131462801e-08
1.25627908171e-05
-2.8570705052e-08
1.18922602619e-05
-2.71412460917e-08
1.10528267264e-05
-2.51108652935e-08
1.01160688166e-05
-2.2714334003e-08
9.1369798515e-06
-2.01432329884e-08
8.15655746827e-06
-1.75450034826e-08
7.20429434215e-06
-1.50269541764e-08
6.30044008987e-06
-1.26624239095e-08
5.45797644904e-06
-1.04974270892e-08
4.68429243029e-06
-8.55688354178e-09
3.98257216648e-06
-6.85002417135e-09
3.35292210003e-06
-5.37485126554e-09
2.79327018411e-06
-4.12168627382e-09
2.30007101337e-06
-3.07591005426e-09
1.86884927118e-06
-2.22002509308e-09
1.49461085481e-06
-1.53516843696e-09
1.17214739939e-06
-1.00219128631e-09
8.96256149929e-07
-6.02403877426e-10
6.61893558532e-07
-3.18066514286e-10
4.64277723441e-07
-1.32691458021e-10
2.98951940912e-07
-3.12063704396e-11
1.61819196775e-07
4.91553906464e-08
-1.43821229993e-09
2.45187961559e-06
-5.03396103858e-09
6.54280651261e-06
-9.58648678447e-09
9.48594704354e-06
-1.40768741812e-08
1.14324992438e-05
-1.7826534836e-08
1.2553309884e-05
-2.04958676049e-08
1.30164451291e-05
-2.20081395468e-08
1.29753200279e-05
-2.24563093179e-08
1.25632389869e-05
-2.20223002985e-08
1.18918262528e-05
-2.09186423574e-08
1.10517230684e-05
-1.93519012396e-08
1.01145020755e-05
-1.75031630214e-08
9.13513111327e-06
-1.55201826321e-08
8.15457448788e-06
-1.3516653727e-08
7.20229081323e-06
-1.15753011319e-08
6.29849873727e-06
-9.75263655124e-09
5.45615378446e-06
-8.08408743176e-09
4.68262388117e-06
-6.58880596841e-09
3.98107688501e-06
-5.27384271401e-09
3.35160713678e-06
-4.13759085759e-09
2.79213393225e-06
-3.17252605482e-09
2.29910594857e-06
-2.3673224956e-09
1.86804406762e-06
-1.70844494734e-09
1.49395197726e-06
-1.18131612655e-09
1.17162027057e-06
-7.71148990213e-10
8.95845982793e-07
-4.63520213906e-10
6.61585929755e-07
-2.44747487101e-10
4.64058950714e-07
-1.02120719933e-10
2.98809314146e-07
-2.40264736267e-11
1.61741102528e-07
4.91313641726e-08
-1.11013628608e-09
2.45298975188e-06
-3.88624610216e-09
6.54558262243e-06
-7.40135306178e-09
9.4894621505e-06
-1.08687819835e-08
1.14359666728e-05
-1.37646115796e-08
1.25562057136e-05
-1.58265932931e-08
1.30185071109e-05
-1.699538929e-08
1.29764888239e-05
-1.73426567697e-08
1.25635862544e-05
-1.70087435991e-08
1.18914923397e-05
-1.61576469843e-08
1.10508719718e-05
-1.49487858215e-08
1.01132932143e-05
-1.35219346739e-08
9.13370426212e-06
-1.19911594964e-08
8.15304371271e-06
-1.04442497127e-08
7.20074390345e-06
-8.94510096916e-09
6.29699958853e-06
-7.53738204478e-09
5.45474606554e-06
-6.24849020133e-09
4.68133498932e-06
-5.09326001871e-09
3.97992165483e-06
-4.07718227079e-09
3.35059105903e-06
-3.19906036636e-09
2.79125581035e-06
-2.45312366431e-09
2.29836001187e-06
-1.8306599227e-09
1.86742160388e-06
-1.32124387721e-09
1.49344256122e-06
-9.13638556618e-10
1.17121266525e-06
-5.96438333542e-10
8.9552878257e-07
-3.58512486398e-10
6.61348003908e-07
-1.89297470809e-10
4.63889735698e-07
-7.89764672859e-11
2.98698993143e-07
-1.85764472355e-11
1.61680702508e-07
4.91127877253e-08
-8.56914708963e-10
2.45384666659e-06
-2.99950406062e-09
6.54772521177e-06
-5.71231821712e-09
9.49217496465e-06
-8.38823269743e-09
1.14386425872e-05
-1.06229031654e-08
1.2558440384e-05
-1.22139512321e-08
1.30200981589e-05
-1.3115610601e-08
1.29773904833e-05
-1.33832174469e-08
1.25638538612e-05
-1.31251202115e-08
1.18912342424e-05
-1.2467914857e-08
1.10502147664e-05
-1.15346581225e-08
1.01123599576e-05
-1.04332394415e-08
9.13260284343e-06
-9.25170063183e-09
8.1518621739e-06
-8.05779775949e-09
7.19955000057e-06
-6.90084056789e-09
6.29584263133e-06
-5.81452326219e-09
5.45365974823e-06
-4.81997819954e-09
4.68034044426e-06
-3.92863952858e-09
3.97903031616e-06
-3.14472877197e-09
3.34980714827e-06
-2.46730626945e-09
2.79057838784e-06
-1.8919032723e-09
2.29778460887e-06
-1.41178264308e-09
1.86694148325e-06
-1.01888757318e-09
1.49304966615e-06
-7.04537418309e-10
1.17089831509e-06
-4.59923987279e-10
8.95284169138e-07
-2.7645367138e-10
6.61164533592e-07
-1.45972701348e-10
4.63759254727e-07
-6.09053279495e-11
2.9861392577e-07
-1.43283530605e-11
1.61634125533e-07
4.90984593722e-08
-6.61683853915e-10
2.45450835044e-06
-2.31628157727e-09
6.54937980949e-06
-4.41131283081e-09
9.4942699959e-06
-6.47792720563e-09
1.14407092016e-05
-8.20387022346e-09
1.25601663271e-05
-9.43284201054e-09
1.30213271307e-05
-1.01294744403e-08
1.29780871157e-05
-1.03364700821e-08
1.25640608569e-05
-1.01374708646e-08
1.18910352432e-05
-9.63021542734e-09
1.1049707511e-05
-8.90971653958e-09
1.01116394587e-05
-8.05928175395e-09
9.13175240864e-06
-7.14689839206e-09
8.15094979053e-06
-6.2248939594e-09
7.19862799614e-06
-5.33135526087e-09
6.29494909264e-06
-4.49231309166e-09
5.45282070606e-06
-3.72409916801e-09
4.67957223033e-06
-3.03555646998e-09
3.97834177346e-06
-2.42995780284e-09
3.34920154961e-06
-1.90658928867e-09
2.79005501933e-06
-1.46201022411e-09
2.2973400298e-06
-1.09102633813e-09
1.86657049936e-06
-7.87422304167e-10
1.49274606211e-06
-5.44499118636e-10
1.1706553919e-06
-3.55457492996e-10
8.95095127512e-07
-2.13662294556e-10
6.61022738393e-07
-1.12816753899e-10
4.63658409186e-07
-4.70694581437e-11
2.98548178475e-07
-1.1072171353e-11
1.61598128246e-07
4.90873872006e-08
-5.10957565599e-10
2.45501930801e-06
-1.78857712054e-09
6.55065742904e-06
-3.40625100054e-09
9.49588766978e-06
-5.00195814352e-09
1.14423049088e-05
-6.33459177482e-09
1.25614989607e-05
-7.2834690372e-09
1.3022276008e-05
-7.82128711048e-09
1.29786249338e-05
-7.98102631307e-09
1.25642205961e-05
-7.82727794968e-09
1.18908814948e-05
-7.4355171824e-09
1.10493157502e-05
-6.87911323229e-09
1.01110830547e-05
-6.22239586572e-09
9.13109569127e-06
-5.517863971e-09
8.15024525864e-06
-4.80592332856e-09
7.19791605549e-06
-4.11598239627e-09
6.2942591517e-06
-3.46813933984e-09
5.452172863e-06
-2.875002145e-09
4.67897909314e-06
-2.34339562375e-09
3.97781016694e-06
-1.87584314552e-09
3.34873399713e-06
-1.4717896645e-09
2.78965096585e-06
-1.12857478992e-09
2.29699681493e-06
-8.42184520037e-10
1.86628410909e-06
-6.07816983813e-10
1.49251169458e-06
-4.20297461681e-10
1.17046787238e-06
-2.74374429507e-10
8.9494920448e-07
-1.64923702802e-10
6.60913287666e-07
-8.70828828031e-11
4.63580568366e-07
-3.63338861398e-11
2.98497429477e-07
-8.54748554094e-12
1.61570341846e-07
4.90788397149e-08
-3.94637313384e-10
2.45541394532e-06
-1.3814447052e-09
6.55164423643e-06
-2.63092478546e-09
9.49713714985e-06
-3.86345950842e-09
1.14435374435e-05
-4.8928225445e-09
1.25625283237e-05
-5.62579710465e-09
1.30230089825e-05
-6.04128811428e-09
1.29790404248e-05
-6.1647604467e-09
1.25643440684e-05
-6.04609486045e-09
1.18907628292e-05
-5.74358002757e-09
1.10490132354e-05
-5.31388009907e-09
1.01106533548e-05
-4.80667952473e-09
9.13058849069e-06
-4.26252680119e-09
8.14970110591e-06
-3.7126315731e-09
7.19736616026e-06
-3.17971058012e-09
6.29372623071e-06
-2.67929027549e-09
5.4516724427e-06
-2.22111229659e-09
4.67852091516e-06
-1.81045160401e-09
3.97739950625e-06
-1.44926070736e-09
3.34837280623e-06
-1.13711409258e-09
2.78933881923e-06
-8.71959698743e-10
2.29673166054e-06
-6.50699446495e-10
1.86606284884e-06
-4.69626186159e-10
1.49233062132e-06
-3.24744264293e-10
1.17032299046e-06
-2.11998224025e-10
8.9483645844e-07
-1.2743054667e-10
6.60828719989e-07
-6.72855679453e-11
4.63520423388e-07
-2.80732969618e-11
2.98458217206e-07
-6.60388992432e-12
1.61548872439e-07
4.90722358248e-08
-3.04811532398e-10
2.45571875686e-06
-1.06698696724e-09
6.55240641187e-06
-2.03203373408e-09
9.49810219662e-06
-2.98398702275e-09
1.14444893968e-05
-3.77901353391e-09
1.25633233502e-05
-4.34511744477e-09
1.30235750864e-05
-4.66600722651e-09
1.29793613146e-05
-4.76135242461e-09
1.25644394136e-05
-4.66968028914e-09
1.18906711571e-05
-4.43601183506e-09
1.10487795669e-05
-4.10411319797e-09
1.01103214561e-05
-3.71235948442e-09
9.13019673697e-06
-3.29206934755e-09
8.14928081577e-06
-2.8673482289e-09
7.19694143914e-06
-2.455741698e-09
6.29331462417e-06
-2.0692415491e-09
5.45128594255e-06
-1.71537135746e-09
4.67816704496e-06
-1.39820460717e-09
3.9770823395e-06
-1.11924852793e-09
3.34809385015e-06
-8.78173602569e-10
2.78909774431e-06
-6.73394052874e-10
2.29652688098e-06
-5.02516271719e-10
1.86589197106e-06
-3.62676354411e-10
1.4921907814e-06
-2.50787704344e-10
1.17021110181e-06
-1.6371768381e-10
8.94749388418e-07
-9.84094364736e-11
6.60763411741e-07
-5.19621363973e-11
4.63473976088e-07
-2.16802564925e-11
2.98427935326e-07
-5.10017556283e-12
1.61532292358e-07
4.90671356491e-08
-2.35454448278e-10
2.4559542113e-06
-8.24214129132e-10
6.55299517155e-06
-1.56969216205e-09
9.49884767465e-06
-2.30506174323e-09
1.14452247663e-05
-2.9192156089e-09
1.25639375041e-05
-3.35653796549e-09
1.30240124088e-05
-3.6044421168e-09
1.29796092187e-05
-3.67811982859e-09
1.25645130913e-05
-3.60732996347e-09
1.18906003672e-05
-3.42684805177e-09
1.1048599085e-05
-3.17048086426e-09
1.0110065089e-05
-2.86787140126e-09
9.12989412751e-06
-2.54321232679e-09
8.1489561567e-06
-2.2151247608e-09
7.19661335157e-06
-1.8971628443e-09
6.29299666226e-06
-1.59859080534e-09
5.45098737051e-06
-1.32522139346e-09
4.67789367555e-06
-1.08020229585e-09
3.9768373204e-06
-8.6469878283e-10
3.34787834664e-06
-6.78457203595e-10
2.78891150273e-06
-5.20253342079e-10
2.29636867712e-06
-3.88238817923e-10
1.86575995654e-06
-2.80201804284e-10
1.49208274439e-06
-1.93758302978e-10
1.17012465831e-06
-1.26488623322e-10
8.94682118739e-07
-7.60314985839e-11
6.60712954616e-07
-4.01460984873e-11
4.63438090688e-07
-1.67501083906e-11
2.98404539336e-07
-3.94030518409e-12
1.61519482554e-07
4.90631953441e-08
-1.81885221343e-10
2.45613609653e-06