#      distance             U_x             U_y             U_z wallShearStr... wallShearStr... wallShearStr...               p           omega               k             nut
    0.001215373      0.62966108   9.9086674e-05               0               0               0               0   0.00015909702       356.91808    0.0041861474   1.5160224e-05
   0.0020572852      0.68699706   0.00011979632               0               0               0               0   0.00016319913       180.47902    0.0041284573   2.5066842e-05
   0.0029273097      0.72303684   0.00014438147               0               0               0               0   0.00016843718       119.73089    0.0039714029    3.468097e-05
   0.0038263852      0.75019336   0.00017342951               0               0               0               0   0.00017437691       89.971532    0.0038431059   4.3783351e-05
   0.0047554818      0.77243458   0.00020676913               0               0               0               0   0.00018072036       72.469472    0.0037249235   5.2171723e-05
   0.0057156019      0.79159597   0.00024427244               0               0               0               0   0.00018725177       61.054634    0.0036077234   5.9648209e-05
   0.0067077814      0.80869493   0.00028590701               0               0               0               0   0.00019379468       53.114654    0.0034871942   6.6050997e-05
   0.0077330908      0.82435975   0.00033171723               0               0               0               0    0.0002001869       47.357817    0.0033608745   7.1239813e-05
   0.0087926364      0.83901909   0.00038191457               0               0               0               0   0.00020627214       43.072149    0.0032268993   7.5007007e-05
   0.0098875613      0.85301714   0.00043695101               0               0               0               0   0.00021188824       39.821118     0.003082839   7.6909757e-05
    0.011019047      0.86666132   0.00049753509               0               0               0               0   0.00021683985       37.303653    0.0029251192   7.6702587e-05
    0.012188314      0.88020114   0.00056474545               0               0               0               0   0.00022091838       35.292981     0.002749161    7.456949e-05
    0.013396624      0.89381903   0.00064004699               0               0               0               0   0.00022397276       33.604597    0.0025496424   7.0738474e-05
    0.014645281       0.9076414   0.00072498064               0               0               0               0   0.00022594713       32.078006    0.0023212283    6.546951e-05
    0.015935632      0.92171298   0.00082053377               0               0               0               0   0.00022686541       30.574027    0.0020602353   5.9222714e-05
    0.017269069      0.93591547   0.00092623053               0               0               0               0   0.00022679173       28.986452     0.001767836   5.2726283e-05
    0.018647031      0.94987196    0.0010390261               0               0               0               0   0.00022580326       27.282332    0.0014549656   4.6781902e-05
    0.020071004      0.96302248    0.0011538977               0               0               0               0    0.0002240382       25.486914    0.0011401078   4.1379368e-05
    0.021542526      0.97503612    0.0012669531               0               0               0               0   0.00022172852       23.532166   0.00083490134   3.4512924e-05
    0.023063183      0.98587104    0.0013756705               0               0               0               0   0.00021907803       21.086365   0.00054502908   2.5311706e-05
    0.024634616      0.99493412    0.0014702144               0               0               0               0   0.00021616393       17.524129   0.00029264227   1.5826249e-05
    0.026258521       1.0008277    0.0015306926               0               0               0               0   0.00021307956       12.689927    0.0001166175   8.1268754e-06
     0.02793665       1.0032282    0.0015525374               0               0               0               0   0.00021006449       8.3020063    3.125323e-05   3.1487039e-06
    0.029670814       1.0037132    0.0015543717               0               0               0               0   0.00020725322       6.2086377   5.6792585e-06    8.359774e-07
    0.031462883       1.0037475     0.001551338               0               0               0               0   0.00020454164       5.7843247   1.2886546e-06    2.213907e-07
    0.033314791       1.0037452    0.0015475932               0               0               0               0   0.00020178965       5.7421159   8.3847604e-07    1.460116e-07
    0.035228536       1.0037434    0.0015421423               0               0               0               0   0.00019888959       5.7389291   8.0335672e-07   1.3997927e-07
    0.037206184       1.0037423    0.0015390233               0               0               0               0    0.0001958437       5.7387065    8.008484e-07   1.3954734e-07
    0.039249867       1.0037405    0.0015413237               0               0               0               0   0.00019279363       5.7386879   8.0067777e-07   1.3951804e-07
     0.04136179       1.0037377    0.0015429401               0               0               0               0   0.00018980288        5.738682   8.0066588e-07   1.3951611e-07
    0.043544233       1.0037349    0.0015418997               0               0               0               0   0.00018681796       5.7386762   8.0066414e-07   1.3951594e-07
     0.04579955       1.0037319    0.0015399652               0               0               0               0   0.00018378662       5.7386695   8.0066291e-07   1.3951589e-07
    0.048130175       1.0037292    0.0015377456               0               0               0               0   0.00018067429       5.7386619   8.0066159e-07   1.3951585e-07
    0.050538621       1.0037313    0.0015367801               0               0               0               0   0.00017748587       5.7386542    8.006604e-07   1.3951583e-07
    0.053027488       1.0037426    0.0015423109               0               0               0               0   0.00017432239       5.7386456   8.0065915e-07   1.3951582e-07
    0.055599461       1.0037555    0.0015544653               0               0               0               0   0.00017137302       5.7386339   8.0065721e-07   1.3951577e-07
    0.058257315       1.0037637    0.0015646811               0               0               0               0   0.00016872271       5.7386203   8.0065482e-07   1.3951568e-07
    0.061003917        1.003769    0.0015709129               0               0               0               0   0.00016630529       5.7386058   8.0065242e-07   1.3951561e-07
    0.063842231       1.0037734    0.0015753722               0               0               0               0   0.00016406786       5.7385902   8.0064987e-07   1.3951555e-07
     0.06677532       1.0037769    0.0015776945               0               0               0               0   0.00016198812        5.738573   8.0064712e-07   1.3951549e-07
    0.069806347       1.0037801    0.0015777493               0               0               0               0   0.00016006198       5.7385541   8.0064414e-07   1.3951543e-07
    0.072938584       1.0037829    0.0015751027               0               0               0               0   0.00015829239       5.7385333   8.0064087e-07   1.3951536e-07
    0.076175409       1.0037832     0.001570032               0               0               0               0   0.00015663427       5.7385105   8.0063731e-07    1.395153e-07
    0.079520315       1.0037802    0.0015626946               0               0               0               0   0.00015501908       5.7384857   8.0063345e-07   1.3951523e-07
    0.082976911       1.0037754    0.0015548414               0               0               0               0   0.00015341618       5.7384588   8.0062924e-07   1.3951515e-07
    0.086548926       1.0037698    0.0015474071               0               0               0               0   0.00015183182       5.7384295   8.0062469e-07   1.3951507e-07
    0.090240215       1.0037637    0.0015403365               0               0               0               0   0.00015026895       5.7383982   8.0061978e-07   1.3951497e-07
     0.09405476       1.0037581    0.0015334679               0               0               0               0   0.00014872062       5.7383712   8.0061545e-07   1.3951487e-07
