# Selection         : all 
# Volume            : 1.395979868100e-03
# Time              	min(p)	location	cell	min(k)	location	cell	min(omega)	location	cell	min(nut)	location	cell	min(epsilon)	min(nuTilda)
0                   	0.000000000000e+00	(4.000000000000e-02 5.605608193476e-03 1.000000000000e-01)	0	1.500000000000e-04	(4.000000000000e-02 5.605608193476e-03 1.000000000000e-01)	0	7.500000000000e+00	(4.000000000000e-02 5.605608193476e-03 1.000000000000e-01)	0	2.000000000000e-05	(4.000000000000e-02 5.605608193476e-03 1.000000000000e-01)	0
1                   	2.963870408216e-03	(7.960000000000e+00 1.270066360871e-02 1.000000000000e-01)	2971	7.418259000402e-05	(1.480000000000e+00 8.851213587209e-02 1.000000000000e-01)	560	5.708086242365e+00	(7.960000000000e+00 2.679914685521e-02 1.000000000000e-01)	2973	1.703744863438e-07	(8.400000000000e-01 9.560463532282e-02 1.000000000000e-01)	325
2                   	2.720689067053e-03	(7.960000000000e+00 1.270066360871e-02 1.000000000000e-01)	2971	4.533953650195e-05	(1.480000000000e+00 9.016425328551e-02 1.000000000000e-01)	561	5.487159537232e-05	(4.000000000000e-02 9.309991496569e-02 1.000000000000e-01)	23	8.352237057394e-08	(7.960000000000e+00 9.956494065743e-02 1.000000000000e-01)	2999
3                   	1.957898803833e-03	(7.960000000000e+00 1.270066360871e-02 1.000000000000e-01)	2971	5.608111791950e-05	(1.400000000000e+00 8.851213587209e-02 1.000000000000e-01)	530	3.953563977553e+00	(7.960000000000e+00 3.312973965551e-02 1.000000000000e-01)	2974	9.191414349929e-09	(7.960000000000e+00 9.956494065743e-02 1.000000000000e-01)	2999
4                   	1.625432065596e-03	(7.960000000000e+00 1.270066360871e-02 1.000000000000e-01)	2971	9.600169504615e-06	(7.960000000000e+00 9.956494065743e-02 1.000000000000e-01)	2999	2.424263648277e+00	(4.000000000000e-02 9.169030822923e-02 1.000000000000e-01)	22	1.057556293760e-09	(7.960000000000e+00 9.956494065743e-02 1.000000000000e-01)	2999
5                   	1.516372122811e-03	(7.960000000000e+00 5.605608193476e-03 1.000000000000e-01)	2970	1.354071771828e-06	(7.960000000000e+00 9.956494065743e-02 1.000000000000e-01)	2999	3.117598147721e+00	(7.960000000000e+00 3.312973965551e-02 1.000000000000e-01)	2974	1.491647750397e-10	(7.960000000000e+00 9.956494065743e-02 1.000000000000e-01)	2999
6                   	1.447660911841e-03	(7.960000000000e+00 1.270066360871e-02 1.000000000000e-01)	2971	3.588034787446e-07	(7.960000000000e+00 9.956494065743e-02 1.000000000000e-01)	2999	2.861600427585e+00	(7.960000000000e+00 3.312973965551e-02 1.000000000000e-01)	2974	3.952585180782e-11	(7.960000000000e+00 9.956494065743e-02 1.000000000000e-01)	2999
7                   	1.386382913288e-03	(7.960000000000e+00 6.228352572410e-02 1.000000000000e-01)	2980	2.003666933799e-07	(7.960000000000e+00 9.956494065743e-02 1.000000000000e-01)	2999	2.672942718840e+00	(7.960000000000e+00 3.312973965551e-02 1.000000000000e-01)	2974	2.207242877763e-11	(7.960000000000e+00 9.956494065743e-02 1.000000000000e-01)	2999
8                   	1.335315753022e-03	(7.960000000000e+00 7.530531087350e-02 1.000000000000e-01)	2984	1.684600872165e-07	(7.960000000000e+00 9.956494065743e-02 1.000000000000e-01)	2999	2.534070934904e+00	(7.960000000000e+00 3.312973965551e-02 1.000000000000e-01)	2974	1.855759165477e-11	(7.960000000000e+00 9.956494065743e-02 1.000000000000e-01)	2999
9                   	1.295299064822e-03	(7.960000000000e+00 8.478723090457e-02 1.000000000000e-01)	2988	1.587091690550e-07	(7.960000000000e+00 9.956494065743e-02 1.000000000000e-01)	2999	2.430656234461e+00	(7.160000000000e+00 3.312973965551e-02 1.000000000000e-01)	2674	1.748342886351e-11	(7.960000000000e+00 9.956494065743e-02 1.000000000000e-01)	2999
10                  	1.264034273405e-03	(7.960000000000e+00 9.956494065743e-02 1.000000000000e-01)	2999	1.628613003627e-07	(7.960000000000e+00 9.956494065743e-02 1.000000000000e-01)	2999	2.350528508884e+00	(6.920000000000e+00 3.312973965551e-02 1.000000000000e-01)	2584	1.794082834951e-11	(7.960000000000e+00 9.956494065743e-02 1.000000000000e-01)	2999
11                  	1.240521575171e-03	(7.960000000000e+00 9.956494065743e-02 1.000000000000e-01)	2999	1.730691356001e-07	(7.960000000000e+00 9.956494065743e-02 1.000000000000e-01)	2999	2.286381020834e+00	(6.840000000000e+00 3.312973965551e-02 1.000000000000e-01)	2554	1.906532520300e-11	(7.960000000000e+00 9.956494065743e-02 1.000000000000e-01)	2999
12                  	1.223865152552e-03	(7.960000000000e+00 9.956494065743e-02 1.000000000000e-01)	2999	1.627150860984e-07	(1.200000000000e-01 9.956494065743e-02 1.000000000000e-01)	59	2.234433544046e+00	(6.760000000000e+00 3.312973965551e-02 1.000000000000e-01)	2524	1.792472136147e-11	(1.200000000000e-01 9.956494065743e-02 1.000000000000e-01)	59
13                  	1.215167124931e-03	(7.960000000000e+00 9.956494065743e-02 1.000000000000e-01)	2999	1.517582910742e-07	(1.200000000000e-01 9.956494065743e-02 1.000000000000e-01)	59	2.192649504078e+00	(6.840000000000e+00 3.312973965551e-02 1.000000000000e-01)	2554	1.671771897138e-11	(1.200000000000e-01 9.956494065743e-02 1.000000000000e-01)	59
14                  	1.215067114567e-03	(7.960000000000e+00 9.956494065743e-02 1.000000000000e-01)	2999	1.436651612392e-07	(1.200000000000e-01 9.956494065743e-02 1.000000000000e-01)	59	2.159782601358e+00	(7.640000000000e+00 2.679914685521e-02 1.000000000000e-01)	2853	1.582617842211e-11	(1.200000000000e-01 9.956494065743e-02 1.000000000000e-01)	59
15                  	1.224894973540e-03	(7.960000000000e+00 9.956494065743e-02 1.000000000000e-01)	2999	1.376006909426e-07	(1.200000000000e-01 9.956494065743e-02 1.000000000000e-01)	59	2.116325141999e+00	(7.800000000000e+00 2.679914685521e-02 1.000000000000e-01)	2913	1.515811535017e-11	(1.200000000000e-01 9.956494065743e-02 1.000000000000e-01)	59
16                  	1.245997041786e-03	(7.960000000000e+00 9.956494065743e-02 1.000000000000e-01)	2999	1.330835979910e-07	(1.200000000000e-01 9.956494065743e-02 1.000000000000e-01)	59	2.082420635085e+00	(7.960000000000e+00 2.679914685521e-02 1.000000000000e-01)	2973	1.466051162784e-11	(1.200000000000e-01 9.956494065743e-02 1.000000000000e-01)	59
17                  	1.279910314393e-03	(7.960000000000e+00 9.956494065743e-02 1.000000000000e-01)	2999	1.297475880486e-07	(1.200000000000e-01 9.956494065743e-02 1.000000000000e-01)	59	2.057782769058e+00	(7.960000000000e+00 2.679914685521e-02 1.000000000000e-01)	2973	1.429301620925e-11	(1.200000000000e-01 9.956494065743e-02 1.000000000000e-01)	59
18                  	1.328308979591e-03	(7.960000000000e+00 9.956494065743e-02 1.000000000000e-01)	2999	1.273460985242e-07	(1.200000000000e-01 9.956494065743e-02 1.000000000000e-01)	59	2.041411333322e+00	(7.960000000000e+00 2.679914685521e-02 1.000000000000e-01)	2973	1.402846771771e-11	(1.200000000000e-01 9.956494065743e-02 1.000000000000e-01)	59
19                  	1.392329250199e-03	(7.960000000000e+00 9.956494065743e-02 1.000000000000e-01)	2999	1.256811770235e-07	(1.200000000000e-01 9.956494065743e-02 1.000000000000e-01)	59	2.034293326281e+00	(7.960000000000e+00 2.679914685521e-02 1.000000000000e-01)	2973	1.384505968405e-11	(1.200000000000e-01 9.956494065743e-02 1.000000000000e-01)	59
20                  	1.473172628919e-03	(7.960000000000e+00 9.956494065743e-02 1.000000000000e-01)	2999	1.246044496341e-07	(1.200000000000e-01 9.956494065743e-02 1.000000000000e-01)	59	2.040010687885e+00	(7.880000000000e+00 2.679914685521e-02 1.000000000000e-01)	2943	1.372644721301e-11	(1.200000000000e-01 9.956494065743e-02 1.000000000000e-01)	59
21                  	1.571231053452e-03	(7.960000000000e+00 9.956494065743e-02 1.000000000000e-01)	2999	1.239862018043e-07	(1.200000000000e-01 9.956494065743e-02 1.000000000000e-01)	59	2.060948775212e+00	(7.720000000000e+00 2.679914685521e-02 1.000000000000e-01)	2883	1.365834092768e-11	(1.200000000000e-01 9.956494065743e-02 1.000000000000e-01)	59
22                  	1.686387606055e-03	(7.960000000000e+00 9.956494065743e-02 1.000000000000e-01)	2999	1.237199875503e-07	(1.200000000000e-01 9.956494065743e-02 1.000000000000e-01)	59	2.101193497388e+00	(7.480000000000e+00 2.679914685521e-02 1.000000000000e-01)	2793	1.362901472050e-11	(1.200000000000e-01 9.956494065743e-02 1.000000000000e-01)	59
23                  	1.817707597299e-03	(7.960000000000e+00 9.956494065743e-02 1.000000000000e-01)	2999	1.237155668351e-07	(1.200000000000e-01 9.956494065743e-02 1.000000000000e-01)	59	2.110116035104e+00	(7.960000000000e+00 1.997892471644e-02 1.000000000000e-01)	2972	1.362852773377e-11	(1.200000000000e-01 9.956494065743e-02 1.000000000000e-01)	59
24                  	1.963739167933e-03	(7.960000000000e+00 9.956494065743e-02 1.000000000000e-01)	2999	1.238973711858e-07	(1.200000000000e-01 9.956494065743e-02 1.000000000000e-01)	59	2.130102314560e+00	(7.960000000000e+00 1.997892471644e-02 1.000000000000e-01)	2972	1.364855533174e-11	(1.200000000000e-01 9.956494065743e-02 1.000000000000e-01)	59
25                  	2.121837838112e-03	(7.960000000000e+00 9.956494065743e-02 1.000000000000e-01)	2999	1.242017052196e-07	(1.200000000000e-01 9.956494065743e-02 1.000000000000e-01)	59	2.175914853818e+00	(7.480000000000e+00 1.997892471644e-02 1.000000000000e-01)	2792	1.368208082029e-11	(1.200000000000e-01 9.956494065743e-02 1.000000000000e-01)	59
26                  	2.288746803228e-03	(7.960000000000e+00 9.956494065743e-02 1.000000000000e-01)	2999	1.245770658192e-07	(1.200000000000e-01 9.956494065743e-02 1.000000000000e-01)	59	2.227272173884e+00	(7.000000000000e+00 1.997892471644e-02 1.000000000000e-01)	2612	1.372343060734e-11	(1.200000000000e-01 9.956494065743e-02 1.000000000000e-01)	59
27                  	2.461780191014e-03	(7.960000000000e+00 9.956494065743e-02 1.000000000000e-01)	2999	1.249846731650e-07	(1.200000000000e-01 9.956494065743e-02 1.000000000000e-01)	59	2.291448355171e+00	(6.520000000000e+00 1.997892471644e-02 1.000000000000e-01)	2432	1.376833270138e-11	(1.200000000000e-01 9.956494065743e-02 1.000000000000e-01)	59
28                  	2.636793905599e-03	(7.960000000000e+00 9.956494065743e-02 1.000000000000e-01)	2999	1.253961543454e-07	(1.200000000000e-01 9.956494065743e-02 1.000000000000e-01)	59	2.359584285276e+00	(6.120000000000e+00 1.997892471644e-02 1.000000000000e-01)	2282	1.381366153770e-11	(1.200000000000e-01 9.956494065743e-02 1.000000000000e-01)	59
29                  	2.810115589414e-03	(7.960000000000e+00 9.956494065743e-02 1.000000000000e-01)	2999	1.257903945842e-07	(1.200000000000e-01 9.956494065743e-02 1.000000000000e-01)	59	2.402668755879e+00	(6.360000000000e+00 1.270066360871e-02 1.000000000000e-01)	2371	1.385709110898e-11	(1.200000000000e-01 9.956494065743e-02 1.000000000000e-01)	59
30                  	2.978618196527e-03	(7.960000000000e+00 9.956494065743e-02 1.000000000000e-01)	2999	1.261520537579e-07	(1.200000000000e-01 9.956494065743e-02 1.000000000000e-01)	59	2.409133203162e+00	(6.120000000000e+00 1.270066360871e-02 1.000000000000e-01)	2281	1.389693154462e-11	(1.200000000000e-01 9.956494065743e-02 1.000000000000e-01)	59
31                  	3.138481062001e-03	(7.960000000000e+00 9.671553434398e-02 1.000000000000e-01)	2996	1.264704178945e-07	(1.200000000000e-01 9.956494065743e-02 1.000000000000e-01)	59	2.421377942444e+00	(6.120000000000e+00 5.605608193476e-03 1.000000000000e-01)	2280	1.393200259167e-11	(1.200000000000e-01 9.956494065743e-02 1.000000000000e-01)	59
32                  	3.283727693010e-03	(7.960000000000e+00 9.560463532282e-02 1.000000000000e-01)	2995	1.267387115114e-07	(1.200000000000e-01 9.956494065743e-02 1.000000000000e-01)	59	2.394881578343e+00	(6.120000000000e+00 5.605608193476e-03 1.000000000000e-01)	2280	1.396155786181e-11	(1.200000000000e-01 9.956494065743e-02 1.000000000000e-01)	59
33                  	3.408731069302e-03	(7.960000000000e+00 9.440195554410e-02 1.000000000000e-01)	2994	1.269535843755e-07	(1.200000000000e-01 9.956494065743e-02 1.000000000000e-01)	59	2.379509348754e+00	(5.960000000000e+00 5.605608193476e-03 1.000000000000e-01)	2220	1.398522829280e-11	(1.200000000000e-01 9.956494065743e-02 1.000000000000e-01)	59
34                  	3.508726196600e-03	(7.960000000000e+00 9.309991496569e-02 1.000000000000e-01)	2993	1.271146758881e-07	(1.200000000000e-01 9.956494065743e-02 1.000000000000e-01)	59	2.381208111650e+00	(5.720000000000e+00 5.605608193476e-03 1.000000000000e-01)	2130	1.400297416104e-11	(1.200000000000e-01 9.956494065743e-02 1.000000000000e-01)	59
35                  	3.574281036439e-03	(7.960000000000e+00 9.016425328551e-02 1.000000000000e-01)	2991	1.272241350005e-07	(1.200000000000e-01 9.956494065743e-02 1.000000000000e-01)	59	2.391055190528e+00	(5.560000000000e+00 5.605608193476e-03 1.000000000000e-01)	2070	1.401503219534e-11	(1.200000000000e-01 9.956494065743e-02 1.000000000000e-01)	59
36                  	3.600265655518e-03	(7.960000000000e+00 8.851213587209e-02 1.000000000000e-01)	2990	1.272860983907e-07	(1.200000000000e-01 9.956494065743e-02 1.000000000000e-01)	59	2.405636236493e+00	(5.320000000000e+00 5.605608193476e-03 1.000000000000e-01)	1980	1.402185809287e-11	(1.200000000000e-01 9.956494065743e-02 1.000000000000e-01)	59
37                  	3.591994964628e-03	(7.960000000000e+00 8.478723090457e-02 1.000000000000e-01)	2988	1.273065010421e-07	(1.200000000000e-01 9.956494065743e-02 1.000000000000e-01)	59	2.430614419549e+00	(5.160000000000e+00 5.605608193476e-03 1.000000000000e-01)	1920	1.402410565239e-11	(1.200000000000e-01 9.956494065743e-02 1.000000000000e-01)	59
38                  	3.549062535175e-03	(7.960000000000e+00 8.042163427956e-02 1.000000000000e-01)	2986	1.272925142474e-07	(1.200000000000e-01 9.956494065743e-02 1.000000000000e-01)	59	2.460259122809e+00	(5.000000000000e+00 5.605608193476e-03 1.000000000000e-01)	1860	1.402256486473e-11	(1.200000000000e-01 9.956494065743e-02 1.000000000000e-01)	59
39                  	3.479974085247e-03	(7.960000000000e+00 7.530531087350e-02 1.000000000000e-01)	2984	1.272516277984e-07	(1.200000000000e-01 9.956494065743e-02 1.000000000000e-01)	59	2.489532148833e+00	(4.920000000000e+00 5.605608193476e-03 1.000000000000e-01)	1830	1.401806080661e-11	(1.200000000000e-01 9.956494065743e-02 1.000000000000e-01)	59
40                  	3.396401755902e-03	(7.960000000000e+00 6.593561181440e-02 1.000000000000e-01)	2981	1.271910362004e-07	(1.200000000000e-01 9.956494065743e-02 1.000000000000e-01)	59	2.515549978316e+00	(4.840000000000e+00 5.605608193476e-03 1.000000000000e-01)	1800	1.401138602594e-11	(1.200000000000e-01 9.956494065743e-02 1.000000000000e-01)	59
41                  	3.310492043848e-03	(7.960000000000e+00 6.228352572410e-02 1.000000000000e-01)	2980	1.271173265174e-07	(1.200000000000e-01 9.956494065743e-02 1.000000000000e-01)	59	2.536422068701e+00	(4.760000000000e+00 5.605608193476e-03 1.000000000000e-01)	1770	1.400326615481e-11	(1.200000000000e-01 9.956494065743e-02 1.000000000000e-01)	59
42                  	3.234540616065e-03	(7.960000000000e+00 5.833044511334e-02 1.000000000000e-01)	2979	1.270363209131e-07	(1.200000000000e-01 9.956494065743e-02 1.000000000000e-01)	59	2.552617966594e+00	(4.680000000000e+00 5.605608193476e-03 1.000000000000e-01)	1740	1.399434256376e-11	(1.200000000000e-01 9.956494065743e-02 1.000000000000e-01)	59
43                  	3.176438776160e-03	(7.960000000000e+00 5.833044511334e-02 1.000000000000e-01)	2979	1.269530135376e-07	(1.200000000000e-01 9.956494065743e-02 1.000000000000e-01)	59	2.564322888515e+00	(4.680000000000e+00 5.605608193476e-03 1.000000000000e-01)	1740	1.398516540921e-11	(1.200000000000e-01 9.956494065743e-02 1.000000000000e-01)	59
44                  	3.139226248122e-03	(7.960000000000e+00 5.833044511334e-02 1.000000000000e-01)	2979	1.268715450398e-07	(1.200000000000e-01 9.956494065743e-02 1.000000000000e-01)	59	2.572072234544e+00	(4.600000000000e+00 5.605608193476e-03 1.000000000000e-01)	1710	1.397619082574e-11	(1.200000000000e-01 9.956494065743e-02 1.000000000000e-01)	59
45                  	3.118830075848e-03	(7.960000000000e+00 5.405184183248e-02 1.000000000000e-01)	2978	1.267952237018e-07	(1.200000000000e-01 9.956494065743e-02 1.000000000000e-01)	59	2.577539409981e+00	(4.600000000000e+00 5.605608193476e-03 1.000000000000e-01)	1710	1.396778325426e-11	(1.200000000000e-01 9.956494065743e-02 1.000000000000e-01)	59
46                  	3.104795701445e-03	(7.960000000000e+00 4.942136386056e-02 1.000000000000e-01)	2977	1.267265565202e-07	(1.200000000000e-01 9.956494065743e-02 1.000000000000e-01)	59	2.581555749813e+00	(4.600000000000e+00 5.605608193476e-03 1.000000000000e-01)	1710	1.396021886593e-11	(1.200000000000e-01 9.956494065743e-02 1.000000000000e-01)	59
47                  	3.092273716741e-03	(7.960000000000e+00 4.441084981549e-02 1.000000000000e-01)	2976	1.266672928813e-07	(1.200000000000e-01 9.956494065743e-02 1.000000000000e-01)	59	2.583398776267e+00	(4.520000000000e+00 5.605608193476e-03 1.000000000000e-01)	1680	1.395369037346e-11	(1.200000000000e-01 9.956494065743e-02 1.000000000000e-01)	59
48                  	3.080450584049e-03	(7.960000000000e+00 3.899053164204e-02 1.000000000000e-01)	2975	1.266184994422e-07	(1.200000000000e-01 9.956494065743e-02 1.000000000000e-01)	59	2.583855219112e+00	(4.520000000000e+00 5.605608193476e-03 1.000000000000e-01)	1680	1.394831527998e-11	(1.200000000000e-01 9.956494065743e-02 1.000000000000e-01)	59
49                  	3.069209272543e-03	(7.960000000000e+00 3.312973965551e-02 1.000000000000e-01)	2974	1.265806352656e-07	(1.200000000000e-01 9.956494065743e-02 1.000000000000e-01)	59	2.583826034451e+00	(4.520000000000e+00 5.605608193476e-03 1.000000000000e-01)	1680	1.394414415589e-11	(1.200000000000e-01 9.956494065743e-02 1.000000000000e-01)	59
50                  	3.057478462306e-03	(7.960000000000e+00 5.605608193476e-03 1.000000000000e-01)	2970	1.265536326114e-07	(1.200000000000e-01 9.956494065743e-02 1.000000000000e-01)	59	2.583447272689e+00	(4.520000000000e+00 5.605608193476e-03 1.000000000000e-01)	1680	1.394116953894e-11	(1.200000000000e-01 9.956494065743e-02 1.000000000000e-01)	59
51                  	3.044917750481e-03	(7.960000000000e+00 1.270066360871e-02 1.000000000000e-01)	2971	1.265369978961e-07	(1.200000000000e-01 9.956494065743e-02 1.000000000000e-01)	59	2.582831714492e+00	(4.520000000000e+00 5.605608193476e-03 1.000000000000e-01)	1680	1.393933705589e-11	(1.200000000000e-01 9.956494065743e-02 1.000000000000e-01)	59
52                  	3.031554689609e-03	(7.960000000000e+00 1.270066360871e-02 1.000000000000e-01)	2971	1.265300132995e-07	(1.200000000000e-01 9.956494065743e-02 1.000000000000e-01)	59	2.582079634757e+00	(4.520000000000e+00 5.605608193476e-03 1.000000000000e-01)	1680	1.393856763155e-11	(1.200000000000e-01 9.956494065743e-02 1.000000000000e-01)	59
53                  	3.017386257829e-03	(7.960000000000e+00 1.270066360871e-02 1.000000000000e-01)	2971	1.265317751117e-07	(1.200000000000e-01 9.956494065743e-02 1.000000000000e-01)	59	2.581275012134e+00	(4.520000000000e+00 5.605608193476e-03 1.000000000000e-01)	1680	1.393876171307e-11	(1.200000000000e-01 9.956494065743e-02 1.000000000000e-01)	59
54                  	3.002570528648e-03	(7.960000000000e+00 1.270066360871e-02 1.000000000000e-01)	2971	1.265411628343e-07	(1.200000000000e-01 9.956494065743e-02 1.000000000000e-01)	59	2.580483660859e+00	(4.520000000000e+00 5.605608193476e-03 1.000000000000e-01)	1680	1.393979586619e-11	(1.200000000000e-01 9.956494065743e-02 1.000000000000e-01)	59
55                  	2.987304966092e-03	(7.960000000000e+00 1.270066360871e-02 1.000000000000e-01)	2971	1.265568725486e-07	(1.200000000000e-01 9.956494065743e-02 1.000000000000e-01)	59	2.579746699718e+00	(4.520000000000e+00 5.605608193476e-03 1.000000000000e-01)	1680	1.394152645096e-11	(1.200000000000e-01 9.956494065743e-02 1.000000000000e-01)	59
56                  	2.971869596150e-03	(7.960000000000e+00 1.270066360871e-02 1.000000000000e-01)	2971	1.265774794279e-07	(1.200000000000e-01 9.956494065743e-02 1.000000000000e-01)	59	2.579081416851e+00	(4.520000000000e+00 5.605608193476e-03 1.000000000000e-01)	1680	1.394379650827e-11	(1.200000000000e-01 9.956494065743e-02 1.000000000000e-01)	59
57                  	2.956552047411e-03	(7.960000000000e+00 1.270066360871e-02 1.000000000000e-01)	2971	1.266015135675e-07	(1.200000000000e-01 9.956494065743e-02 1.000000000000e-01)	59	2.578492634202e+00	(4.520000000000e+00 5.605608193476e-03 1.000000000000e-01)	1680	1.394644411315e-11	(1.200000000000e-01 9.956494065743e-02 1.000000000000e-01)	59
58                  	2.941609701961e-03	(7.960000000000e+00 1.270066360871e-02 1.000000000000e-01)	2971	1.266275382950e-07	(1.200000000000e-01 9.956494065743e-02 1.000000000000e-01)	59	2.577977405869e+00	(4.520000000000e+00 5.605608193476e-03 1.000000000000e-01)	1680	1.394931100153e-11	(1.200000000000e-01 9.956494065743e-02 1.000000000000e-01)	59
59                  	2.927301702214e-03	(7.960000000000e+00 1.270066360871e-02 1.000000000000e-01)	2971	1.266542151804e-07	(1.200000000000e-01 9.956494065743e-02 1.000000000000e-01)	59	2.577528595319e+00	(4.520000000000e+00 5.605608193476e-03 1.000000000000e-01)	1680	1.395224973173e-11	(1.200000000000e-01 9.956494065743e-02 1.000000000000e-01)	59
60                  	2.913929700587e-03	(7.960000000000e+00 1.270066360871e-02 1.000000000000e-01)	2971	1.266803513201e-07	(1.200000000000e-01 9.956494065743e-02 1.000000000000e-01)	59	2.577138289743e+00	(4.520000000000e+00 5.605608193476e-03 1.000000000000e-01)	1680	1.395512889329e-11	(1.200000000000e-01 9.956494065743e-02 1.000000000000e-01)	59
61                  	2.901745050969e-03	(7.960000000000e+00 1.270066360871e-02 1.000000000000e-01)	2971	1.267049423994e-07	(1.200000000000e-01 9.956494065743e-02 1.000000000000e-01)	59	2.576799428631e+00	(4.520000000000e+00 5.605608193476e-03 1.000000000000e-01)	1680	1.395783785074e-11	(1.200000000000e-01 9.956494065743e-02 1.000000000000e-01)	59
62                  	2.890911594227e-03	(7.960000000000e+00 1.270066360871e-02 1.000000000000e-01)	2971	1.267271820775e-07	(1.200000000000e-01 9.956494065743e-02 1.000000000000e-01)	59	2.576505529537e+00	(4.520000000000e+00 5.605608193476e-03 1.000000000000e-01)	1680	1.396028777743e-11	(1.200000000000e-01 9.956494065743e-02 1.000000000000e-01)	59
63                  	2.881500873306e-03	(7.960000000000e+00 1.270066360871e-02 1.000000000000e-01)	2971	1.267464721458e-07	(1.200000000000e-01 9.956494065743e-02 1.000000000000e-01)	59	2.576250696013e+00	(4.520000000000e+00 5.605608193476e-03 1.000000000000e-01)	1680	1.396241277461e-11	(1.200000000000e-01 9.956494065743e-02 1.000000000000e-01)	59
64                  	2.873597762463e-03	(7.960000000000e+00 1.270066360871e-02 1.000000000000e-01)	2971	1.267624174129e-07	(1.200000000000e-01 9.956494065743e-02 1.000000000000e-01)	59	2.576029599398e+00	(4.520000000000e+00 5.605608193476e-03 1.000000000000e-01)	1680	1.396416930793e-11	(1.200000000000e-01 9.956494065743e-02 1.000000000000e-01)	59
65                  	2.867222967468e-03	(7.960000000000e+00 1.270066360871e-02 1.000000000000e-01)	2971	1.267748111904e-07	(1.200000000000e-01 9.956494065743e-02 1.000000000000e-01)	59	2.575837566660e+00	(4.520000000000e+00 5.605608193476e-03 1.000000000000e-01)	1680	1.396553460855e-11	(1.200000000000e-01 9.956494065743e-02 1.000000000000e-01)	59
66                  	2.862345211702e-03	(7.960000000000e+00 1.270066360871e-02 1.000000000000e-01)	2971	1.267836168911e-07	(1.200000000000e-01 9.956494065743e-02 1.000000000000e-01)	59	2.575670786657e+00	(4.520000000000e+00 5.605608193476e-03 1.000000000000e-01)	1680	1.396650464603e-11	(1.200000000000e-01 9.956494065743e-02 1.000000000000e-01)	59
67                  	2.858897601118e-03	(7.960000000000e+00 1.270066360871e-02 1.000000000000e-01)	2971	1.267889435953e-07	(1.200000000000e-01 9.956494065743e-02 1.000000000000e-01)	59	2.575525716711e+00	(4.520000000000e+00 5.605608193476e-03 1.000000000000e-01)	1680	1.396709143666e-11	(1.200000000000e-01 9.956494065743e-02 1.000000000000e-01)	59
68                  	2.856765037669e-03	(7.960000000000e+00 1.270066360871e-02 1.000000000000e-01)	2971	1.267910211597e-07	(1.200000000000e-01 9.956494065743e-02 1.000000000000e-01)	59	2.575399555860e+00	(4.520000000000e+00 5.605608193476e-03 1.000000000000e-01)	1680	1.396732030151e-11	(1.200000000000e-01 9.956494065743e-02 1.000000000000e-01)	59
69                  	2.855804994825e-03	(7.960000000000e+00 1.270066360871e-02 1.000000000000e-01)	2971	1.267901720979e-07	(1.200000000000e-01 9.956494065743e-02 1.000000000000e-01)	59	2.575289876111e+00	(4.520000000000e+00 5.605608193476e-03 1.000000000000e-01)	1680	1.396722676871e-11	(1.200000000000e-01 9.956494065743e-02 1.000000000000e-01)	59
70                  	2.855864641102e-03	(7.960000000000e+00 1.270066360871e-02 1.000000000000e-01)	2971	1.267867876932e-07	(1.200000000000e-01 9.956494065743e-02 1.000000000000e-01)	59	2.575194703083e+00	(4.520000000000e+00 5.605608193476e-03 1.000000000000e-01)	1680	1.396685394212e-11	(1.200000000000e-01 9.956494065743e-02 1.000000000000e-01)	59
71                  	2.856772836838e-03	(7.960000000000e+00 1.270066360871e-02 1.000000000000e-01)	2971	1.267813014291e-07	(1.200000000000e-01 9.956494065743e-02 1.000000000000e-01)	59	2.575112368310e+00	(4.520000000000e+00 5.605608193476e-03 1.000000000000e-01)	1680	1.396624957434e-11	(1.200000000000e-01 9.956494065743e-02 1.000000000000e-01)	59
72                  	2.858356569594e-03	(7.960000000000e+00 1.270066360871e-02 1.000000000000e-01)	2971	1.267741665419e-07	(1.200000000000e-01 9.956494065743e-02 1.000000000000e-01)	59	2.575041589626e+00	(4.520000000000e+00 5.605608193476e-03 1.000000000000e-01)	1680	1.396546359397e-11	(1.200000000000e-01 9.956494065743e-02 1.000000000000e-01)	59
73                  	2.860449625195e-03	(7.960000000000e+00 1.270066360871e-02 1.000000000000e-01)	2971	1.267658363401e-07	(1.200000000000e-01 9.956494065743e-02 1.000000000000e-01)	59	2.574981253756e+00	(4.520000000000e+00 5.605608193476e-03 1.000000000000e-01)	1680	1.396454593752e-11	(1.200000000000e-01 9.956494065743e-02 1.000000000000e-01)	59
74                  	2.862897880318e-03	(7.960000000000e+00 1.270066360871e-02 1.000000000000e-01)	2971	1.267567578558e-07	(1.200000000000e-01 9.956494065743e-02 1.000000000000e-01)	59	2.574930338264e+00	(4.520000000000e+00 5.605608193476e-03 1.000000000000e-01)	1680	1.396354585016e-11	(1.200000000000e-01 9.956494065743e-02 1.000000000000e-01)	59
75                  	2.865556466513e-03	(7.960000000000e+00 1.270066360871e-02 1.000000000000e-01)	2971	1.267473558131e-07	(1.200000000000e-01 9.956494065743e-02 1.000000000000e-01)	59	2.574888063316e+00	(4.520000000000e+00 5.605608193476e-03 1.000000000000e-01)	1680	1.396251011955e-11	(1.200000000000e-01 9.956494065743e-02 1.000000000000e-01)	59
76                  	2.868303358873e-03	(7.960000000000e+00 1.270066360871e-02 1.000000000000e-01)	2971	1.267379939324e-07	(1.200000000000e-01 9.956494065743e-02 1.000000000000e-01)	59	2.574853657564e+00	(4.520000000000e+00 5.605608193476e-03 1.000000000000e-01)	1680	1.396147881319e-11	(1.200000000000e-01 9.956494065743e-02 1.000000000000e-01)	59
77                  	2.871031084689e-03	(7.960000000000e+00 1.270066360871e-02 1.000000000000e-01)	2971	1.267289770713e-07	(1.200000000000e-01 9.956494065743e-02 1.000000000000e-01)	59	2.574826502171e+00	(4.520000000000e+00 5.605608193476e-03 1.000000000000e-01)	1680	1.396048551425e-11	(1.200000000000e-01 9.956494065743e-02 1.000000000000e-01)	59
78                  	2.873654052625e-03	(7.960000000000e+00 1.270066360871e-02 1.000000000000e-01)	2971	1.267205463226e-07	(1.200000000000e-01 9.956494065743e-02 1.000000000000e-01)	59	2.574806039667e+00	(4.520000000000e+00 5.605608193476e-03 1.000000000000e-01)	1680	1.395955678156e-11	(1.200000000000e-01 9.956494065743e-02 1.000000000000e-01)	59
79                  	2.876107493324e-03	(7.960000000000e+00 1.270066360871e-02 1.000000000000e-01)	2971	1.267128821101e-07	(1.200000000000e-01 9.956494065743e-02 1.000000000000e-01)	59	2.574791507925e+00	(4.520000000000e+00 5.605608193476e-03 1.000000000000e-01)	1680	1.395871249060e-11	(1.200000000000e-01 9.956494065743e-02 1.000000000000e-01)	59
80                  	2.878340102739e-03	(7.960000000000e+00 1.270066360871e-02 1.000000000000e-01)	2971	1.267061223551e-07	(1.200000000000e-01 9.956494065743e-02 1.000000000000e-01)	59	2.574782253147e+00	(4.520000000000e+00 5.605608193476e-03 1.000000000000e-01)	1680	1.395796783486e-11	(1.200000000000e-01 9.956494065743e-02 1.000000000000e-01)	59
81                  	2.880318176513e-03	(7.960000000000e+00 1.270066360871e-02 1.000000000000e-01)	2971	1.267003648504e-07	(1.200000000000e-01 9.956494065743e-02 1.000000000000e-01)	59	2.574777541849e+00	(4.520000000000e+00 5.605608193476e-03 1.000000000000e-01)	1680	1.395733358716e-11	(1.200000000000e-01 9.956494065743e-02 1.000000000000e-01)	59
82                  	2.882030946919e-03	(7.960000000000e+00 1.270066360871e-02 1.000000000000e-01)	2971	1.266956661694e-07	(1.200000000000e-01 9.956494065743e-02 1.000000000000e-01)	59	2.574776622278e+00	(4.520000000000e+00 5.605608193476e-03 1.000000000000e-01)	1680	1.395681597967e-11	(1.200000000000e-01 9.956494065743e-02 1.000000000000e-01)	59
83                  	2.883469937715e-03	(7.960000000000e+00 1.270066360871e-02 1.000000000000e-01)	2971	1.266920415556e-07	(1.200000000000e-01 9.956494065743e-02 1.000000000000e-01)	59	2.574778895644e+00	(4.520000000000e+00 5.605608193476e-03 1.000000000000e-01)	1680	1.395641669160e-11	(1.200000000000e-01 9.956494065743e-02 1.000000000000e-01)	59
84                  	2.884642650938e-03	(7.960000000000e+00 1.270066360871e-02 1.000000000000e-01)	2971	1.266894674508e-07	(1.200000000000e-01 9.956494065743e-02 1.000000000000e-01)	59	2.574783700945e+00	(4.520000000000e+00 5.605608193476e-03 1.000000000000e-01)	1680	1.395613312778e-11	(1.200000000000e-01 9.956494065743e-02 1.000000000000e-01)	59