# Probe 0 (1.95 0 0)
# Probe 1 (1.95 1e-10 0)
# Probe 2 (1.95 1e-07 0)
# Time          0               1               2              
1               8.7138736e-06   8.7138736e-06   8.7138736e-06  
2               4.0274545e-06   4.0274545e-06   4.0274545e-06  
3               -2.6026876e-06  -2.6026876e-06  -2.6026876e-06 
4               -6.7679103e-06  -6.7679103e-06  -6.7679103e-06 
5               -1.0019464e-05  -1.0019464e-05  -1.0019464e-05 
6               -1.0621907e-05  -1.0621907e-05  -1.0621907e-05 
7               -9.1672507e-06  -9.1672507e-06  -9.1672507e-06 
8               -6.4480102e-06  -6.4480102e-06  -6.4480102e-06 
9               -3.4715068e-06  -3.4715068e-06  -3.4715068e-06 
10              -1.0983616e-06  -1.0983616e-06  -1.0983616e-06 
