# Probe 0 (1.95 0 0)
# Probe 1 (1.95 1e-10 0)
# Probe 2 (1.95 1e-07 0)
# Time          0               1               2              
1               (0.0014165052 9.8636212e-15 0) (0.0014165052 9.8636212e-15 0) (0.0014165052 9.8636212e-15 0)
2               (0.00098537742 1.741377e-14 0) (0.00098537742 1.741377e-14 0) (0.00098537742 1.741377e-14 0)
3               (0.00079972812 2.4975254e-13 0) (0.00079972812 2.4975254e-13 0) (0.00079972812 2.4975254e-13 0)
4               (0.00069368033 4.6909097e-12 0) (0.00069368033 4.6909097e-12 0) (0.00069368033 4.6909097e-12 0)
5               (0.00062982546 1.0968584e-11 0) (0.00062982546 1.0968584e-11 0) (0.00062982546 1.0968584e-11 0)
6               (0.00059011014 1.7879838e-11 0) (0.00059011014 1.7879838e-11 0) (0.00059011014 1.7879838e-11 0)
7               (0.00056639832 2.4839025e-11 0) (0.00056639832 2.4839025e-11 0) (0.00056639832 2.4839025e-11 0)
8               (0.00055322043 3.08212e-11 0) (0.00055322043 3.08212e-11 0) (0.00055322043 3.08212e-11 0)
9               (0.00054656823 3.5233507e-11 0) (0.00054656823 3.5233507e-11 0) (0.00054656823 3.5233507e-11 0)
10              (0.00054359664 3.7971983e-11 0) (0.00054359664 3.7971983e-11 0) (0.00054359664 3.7971983e-11 0)
