/*--------------------------------*- C++ -*----------------------------------*\
  =========                 |
  \\      /  F ield         | OpenFOAM: The Open Source CFD Toolbox
   \\    /   O peration     | Website:  https://openfoam.org
    \\  /    A nd           | Version:  12
     \\/     M anipulation  |
\*---------------------------------------------------------------------------*/
FoamFile
{
    format      ascii;
    class       volScalarField;
    location    "2000";
    object      epsilon;
}
// * * * * * * * * * * * * * * * * * * * * * * * * * * * * * * * * * * * * * //

dimensions      [0 2 -3 0 0 0 0];

internalField   nonuniform List<scalar> 
66675
(
8.1008418
5.64828
4.2338182
3.3823536
2.8356271
2.4626785
2.195553
1.9969239
1.8449316
1.7260011
1.6312754
1.5547374
1.4921617
1.4404979
1.3974919
1.3614444
1.3310523
1.3053011
1.2833908
1.2646841
1.2486687
1.2349314
1.2231388
1.2130268
1.2043961
1.1971239
1.191195
1.1868118
1.1849183
1.1891544
1.2052452
1.2933756
1.5192542
3.1438044
29.0658
8.1008418
5.6482799
4.2338182
3.3823536
2.8356271
2.4626785
2.195553
1.9969239
1.8449316
1.7260011
1.6312754
1.5547374
1.4921617
1.4404979
1.3974919
1.3614445
1.3310523
1.3053011
1.2833908
1.2646841
1.2486688
1.2349315
1.2231391
1.2130274
1.2043974
1.1971266
1.1912023
1.1868282
1.1849408
1.1890513
1.2056383
1.2830425
1.5394755
2.3872194
14.546494
8.1008418
5.6482799
4.2338181
3.3823535
2.835627
2.4626785
2.195553
1.9969238
1.8449316
1.7260011
1.6312754
1.5547374
1.4921618
1.440498
1.397492
1.3614445
1.3310524
1.3053012
1.2833909
1.2646842
1.2486689
1.2349316
1.2231391
1.2130271
1.2043966
1.1971243
1.1911965
1.1868112
1.1848394
1.1885091
1.2036326
1.2640972
1.5057498
2.0577537
6.2985995
8.1008417
5.6482798
4.233818
3.3823535
2.835627
2.4626784
2.1955529
1.9969238
1.8449316
1.7260011
1.6312754
1.5547375
1.4921618
1.440498
1.397492
1.3614446
1.3310525
1.3053013
1.2833911
1.2646844
1.2486692
1.2349319
1.2231393
1.2130273
1.2043965
1.197123
1.1911914
1.1868012
1.1847153
1.1880161
1.2030073
1.2512678
1.4490431
1.8819809
3.3129436
8.1008417
5.6482797
4.2338179
3.3823534
2.8356269
2.4626784
2.1955529
1.9969238
1.8449316
1.7260011
1.6312754
1.5547375
1.4921618
1.4404981
1.3974921
1.3614447
1.3310527
1.3053015
1.2833913
1.2646847
1.2486695
1.2349322
1.2231397
1.2130275
1.2043961
1.197121
1.1911829
1.1867853
1.1845502
1.187491
1.2015647
1.2426982
1.3891084
1.8053022
2.4074174
8.1008416
5.6482795
4.2338178
3.3823532
2.8356268
2.4626783
2.1955528
1.9969237
1.8449316
1.7260011
1.6312754
1.5547375
1.4921619
1.4404982
1.3974922
1.3614449
1.3310529
1.3053017
1.2833916
1.2646851
1.2486699
1.2349327
1.2231401
1.2130276
1.2043952
1.1971176
1.1911696
1.1867551
1.1843662
1.1868895
1.1988044
1.2334401
1.333883
1.639567
2.0713839
8.1008415
5.6482793
4.2338176
3.382353
2.8356267
2.4626782
2.1955527
1.9969237
1.8449315
1.7260011
1.6312754
1.5547376
1.492162
1.4404983
1.3974924
1.3614451
1.3310531
1.3053021
1.283392
1.2646856
1.2486705
1.2349333
1.2231406
1.2130276
1.2043938
1.1971127
1.1911513
1.1867091
1.1841785
1.186217
1.1958645
1.2250641
1.2945996
1.4881641
1.811117
8.1008414
5.6482791
4.2338173
3.3823528
2.8356265
2.462678
2.1955526
1.9969236
1.8449315
1.7260011
1.6312754
1.5547376
1.4921621
1.4404984
1.3974926
1.3614453
1.3310534
1.3053025
1.2833925
1.2646862
1.2486712
1.234934
1.2231411
1.2130276
1.2043919
1.1971062
1.1911275
1.186653
1.1839493
1.1854822
1.1930522
1.2165112
1.2669879
1.3889893
1.5998923
8.1008413
5.6482788
4.233817
3.3823526
2.8356262
2.4626778
2.1955525
1.9969235
1.8449314
1.726001
1.6312755
1.5547377
1.4921622
1.4404986
1.3974928
1.3614456
1.3310538
1.305303
1.2833932
1.2646869
1.248672
1.2349348
1.2231418
1.2130275
1.2043893
1.1970981
1.1910978
1.1865928
1.1836139
1.1846908
1.190451
1.2084062
1.2455563
1.3230319
1.4527084
8.1008411
5.6482784
4.2338166
3.3823522
2.835626
2.4626776
2.1955523
1.9969234
1.8449313
1.726001
1.6312755
1.5547377
1.4921623
1.4404988
1.3974931
1.361446
1.3310543
1.3053036
1.2833939
1.2646878
1.248673
1.2349359
1.2231425
1.2130273
1.2043861
1.1970883
1.1910635
1.1865115
1.1834141
1.1836101
1.1879904
1.2013249
1.2282657
1.2780563
1.3568042
8.100841
5.648278
4.2338162
3.3823518
2.8356256
2.4626774
2.1955521
1.9969232
1.8449312
1.726001
1.6312755
1.5547378
1.4921625
1.440499
1.3974934
1.3614465
1.3310549
1.3053043
1.2833948
1.2646889
1.2486742
1.2349371
1.2231435
1.2130271
1.2043825
1.1970766
1.1910225
1.1864586
1.182735
1.1827345
1.1859341
1.1954501
1.2144013
1.2465923
1.2942236
8.1008408
5.6482776
4.2338157
3.3823514
2.8356253
2.462677
2.1955518
1.996923
1.8449311
1.7260009
1.6312755
1.5547379
1.4921626
1.4404993
1.3974938
1.361447
1.3310556
1.3053052
1.2833959
1.2646902
1.2486757
1.2349386
1.2231446
1.2130268
1.2043786
1.1970612
1.1909908
1.1862873
1.1829325
1.1817922
1.1838375
1.1903383
1.2033085
1.2240893
1.2528862
8.1008406
5.6482771
4.2338152
3.3823509
2.8356248
2.4626767
2.1955516
1.9969228
1.844931
1.7260009
1.6312756
1.554738
1.4921629
1.4404996
1.3974943
1.3614476
1.3310565
1.3053063
1.2833972
1.2646917
1.2486774
1.2349404
1.223146
1.2130266
1.2043742
1.197044
1.1909531
1.1861422
1.1827307
1.1811221
1.1819737
1.18622
1.1947378
1.2079196
1.2252742
8.1008403
5.6482765
4.2338146
3.3823503
2.8356243
2.4626763
2.1955512
1.9969226
1.8449308
1.7260008
1.6312756
1.5547382
1.4921631
1.4405001
1.3974949
1.3614484
1.3310574
1.3053075
1.2833987
1.2646935
1.2486795
1.2349425
1.2231476
1.2130263
1.2043692
1.1970257
1.1909074
1.1860139
1.1824422
1.180446
1.1804042
1.1828427
1.1881356
1.1962474
1.206575
8.1008401
5.6482759
4.2338139
3.3823497
2.8356238
2.4626758
2.1955509
1.9969223
1.8449307
1.7260007
1.6312756
1.5547384
1.4921634
1.4405005
1.3974955
1.3614493
1.3310586
1.305309
1.2834005
1.2646957
1.2486819
1.2349449
1.2231495
1.2130262
1.2043637
1.1970064
1.1908567
1.1858874
1.1821488
1.1797913
1.1790214
1.1800779
1.1830611
1.1877835
1.1937302
8.1008398
5.6482752
4.2338131
3.3823489
2.8356231
2.4626753
2.1955505
1.996922
1.8449305
1.7260007
1.6312757
1.5547386
1.4921638
1.4405011
1.3974963
1.3614503
1.33106
1.3053107
1.2834026
1.2646982
1.2486847
1.2349478
1.2231518
1.2130263
1.2043578
1.196986
1.1908031
1.1857596
1.1818635
1.1791837
1.1778101
1.1778131
1.1791516
1.1816051
1.1847834
8.1008395
5.6482745
4.2338123
3.3823482
2.8356224
2.4626747
2.19555
1.9969217
1.8449303
1.7260006
1.6312758
1.5547388
1.4921643
1.4405018
1.3974973
1.3614516
1.3310615
1.3053127
1.2834051
1.2647011
1.248688
1.2349512
1.2231545
1.2130266
1.2043516
1.1969645
1.1907479
1.1856321
1.1815902
1.1786301
1.1767625
1.1759644
1.1761322
1.1770605
1.1784666
8.1008391
5.6482737
4.2338115
3.3823473
2.8356217
2.4626741
2.1955495
1.9969213
1.8449301
1.7260006
1.6312759
1.5547391
1.4921648
1.4405025
1.3974983
1.361453
1.3310634
1.305315
1.2834079
1.2647045
1.2486919
1.2349552
1.2231578
1.2130272
1.2043454
1.1969425
1.1906919
1.1855068
1.1813319
1.1781316
1.175865
1.1744606
1.1737947
1.1736915
1.1739485
8.1008388
5.6482729
4.2338105
3.3823464
2.8356209
2.4626734
2.195549
1.996921
1.8449298
1.7260005
1.631276
1.5547395
1.4921654
1.4405035
1.3974996
1.3614547
1.3310655
1.3053177
1.2834112
1.2647084
1.2486963
1.2349598
1.2231617
1.2130283
1.2043393
1.1969202
1.1906361
1.1853856
1.1810913
1.1776875
1.175102
1.1732406
1.1719797
1.1711741
1.1706763
8.1008384
5.648272
4.2338095
3.3823455
2.8356201
2.4626727
2.1955484
1.9969206
1.8449296
1.7260005
1.6312763
1.5547399
1.4921662
1.4405045
1.3975011
1.3614566
1.331068
1.3053208
1.283415
1.2647129
1.2487015
1.2349652
1.2231663
1.2130299
1.2043335
1.1968982
1.1905815
1.1852702
1.1808704
1.1772961
1.1744576
1.1722528
1.1705662
1.1692784
1.1682783
8.100838
5.648271
4.2338085
3.3823445
2.8356192
2.462672
2.1955479
1.9969202
1.8449295
1.7260005
1.6312765
1.5547405
1.4921671
1.4405058
1.3975028
1.3614589
1.3310709
1.3053244
1.2834195
1.2647182
1.2487074
1.2349714
1.2231717
1.2130323
1.2043284
1.1968769
1.1905292
1.1851623
1.1806702
1.1769546
1.1739169
1.1714545
1.1694624
1.1678407
1.166502
8.1008375
5.6482699
4.2338074
3.3823434
2.8356183
2.4626712
2.1955473
1.9969198
1.8449293
1.7260006
1.6312769
1.5547412
1.4921681
1.4405073
1.3975049
1.3614615
1.3310743
1.3053286
1.2834246
1.2647242
1.2487143
1.2349786
1.2231782
1.2130357
1.2043242
1.196857
1.19048
1.1850629
1.1804914
1.1766597
1.173466
1.1708106
1.1685983
1.1667435
1.1651736
8.100837
5.6482688
4.2338062
3.3823423
2.8356173
2.4626704
2.1955467
1.9969195
1.8449292
1.7260008
1.6312774
1.5547421
1.4921694
1.4405091
1.3975072
1.3614646
1.3310782
1.3053334
1.2834304
1.2647311
1.2487221
1.2349869
1.2231858
1.2130403
1.2043213
1.1968391
1.190435
1.1849733
1.180334
1.1764079
1.1730926
1.1702927
1.167921
1.1659019
1.1641721
8.1008365
5.6482677
4.233805
3.3823412
2.8356163
2.4626697
2.1955462
1.9969192
1.8449292
1.7260011
1.631278
1.5547431
1.4921709
1.4405112
1.39751
1.3614682
1.3310827
1.305339
1.2834372
1.2647391
1.2487311
1.2349965
1.2231948
1.2130463
1.2043201
1.1968237
1.1903949
1.184894
1.1801978
1.1761954
1.1727857
1.1698775
1.16739
1.1652541
1.1634126
8.1008359
5.6482664
4.2338037
3.38234
2.8356153
2.4626689
2.1955456
1.9969189
1.8449292
1.7260015
1.6312788
1.5547444
1.4921727
1.4405137
1.3975132
1.3614723
1.3310878
1.3053454
1.2834449
1.2647482
1.2487415
1.2350075
1.2232053
1.213054
1.2043209
1.1968114
1.1903604
1.1848256
1.1800819
1.1760184
1.1725358
1.1695465
1.1669743
1.1647548
1.1628343
8.1008353
5.6482651
4.2338023
3.3823387
2.8356143
2.4626681
2.1955451
1.9969187
1.8449294
1.726002
1.6312798
1.5547459
1.4921749
1.4405165
1.3975169
1.3614771
1.3310938
1.3053527
1.2834537
1.2647586
1.2487532
1.2350202
1.2232175
1.2130636
1.2043242
1.1968028
1.1903321
1.1847683
1.1799857
1.1758735
1.1723346
1.1692844
1.1666502
1.1643704
1.1623934
8.1008346
5.6482636
4.2338009
3.3823375
2.8356132
2.4626673
2.1955447
1.9969186
1.8449296
1.7260027
1.631281
1.5547477
1.4921774
1.4405199
1.3975213
1.3614826
1.3311006
1.3053611
1.2834638
1.2647704
1.2487666
1.2350346
1.2232318
1.2130756
1.2043304
1.1967983
1.1903106
1.1847224
1.1799078
1.1757572
1.1721751
1.1690793
1.1663994
1.1640758
1.1620581
8.1008339
5.6482622
4.2337994
3.3823362
2.8356121
2.4626665
2.1955442
1.9969186
1.84493
1.7260036
1.6312825
1.5547499
1.4921803
1.4405238
1.3975263
1.3614889
1.3311085
1.3053707
1.2834753
1.2647838
1.2487819
1.235051
1.2232483
1.2130901
1.2043399
1.1967984
1.1902961
1.1846877
1.1798474
1.1756665
1.1720514
1.1689213
1.1662077
1.163852
1.1618049
8.1008332
5.6482606
4.2337979
3.3823348
2.8356111
2.4626658
2.1955439
1.9969187
1.8449306
1.7260048
1.6312843
1.5547524
1.4921838
1.4405283
1.3975321
1.3614961
1.3311174
1.3053816
1.2834883
1.264799
1.2487991
1.2350697
1.2232674
1.2131076
1.204353
1.1968035
1.190289
1.1846639
1.1798031
1.1755987
1.1719583
1.1688026
1.1660639
1.1636848
1.1616162
8.1008324
5.6482589
4.2337963
3.3823334
2.83561
2.4626651
2.1955436
1.9969189
1.8449314
1.7260062
1.6312865
1.5547554
1.4921878
1.4405335
1.3975387
1.3615044
1.3311277
1.305394
1.283503
1.2648162
1.2488185
1.2350909
1.2232891
1.2131283
1.2043701
1.1968139
1.1902893
1.1846509
1.1797739
1.1755513
1.1718917
1.1687168
1.1659596
1.1635632
1.1614788
8.1008316
5.6482572
4.2337946
3.382332
2.8356089
2.4626645
2.1955435
1.9969193
1.8449324
1.7260079
1.631289
1.5547589
1.4921925
1.4405395
1.3975463
1.3615139
1.3311393
1.305408
1.2835197
1.2648355
1.2488404
1.2351147
1.2233139
1.2131524
1.2043914
1.1968299
1.1902972
1.1846482
1.1797585
1.1755221
1.171848
1.1686587
1.1658878
1.1634787
1.1613827
8.1008308
5.6482555
4.2337929
3.3823305
2.8356079
2.4626639
2.1955434
1.9969198
1.8449337
1.72601
1.631292
1.554763
1.4921979
1.4405464
1.397555
1.3615247
1.3311524
1.3054238
1.2835384
1.2648572
1.2488649
1.2351415
1.223342
1.2131803
1.2044173
1.1968516
1.1903126
1.1846554
1.179756
1.175509
1.1718241
1.1686241
1.1658431
1.1634246
1.1613201
8.1008299
5.6482537
4.2337912
3.3823291
2.8356068
2.4626634
2.1955435
1.9969206
1.8449352
1.7260124
1.6312955
1.5547678
1.4922041
1.4405544
1.3975649
1.3615369
1.3311673
1.3054417
1.2835594
1.2648815
1.2488922
1.2351714
1.2233736
1.2132123
1.204448
1.1968792
1.1903355
1.184672
1.1797654
1.1755105
1.1718175
1.1686097
1.1658213
1.1633959
1.1612851
8.100829
5.6482518
4.2337894
3.3823276
2.8356058
2.462663
2.1955438
1.9969216
1.8449371
1.7260153
1.6312996
1.5547733
1.4922112
1.4405634
1.3975762
1.3615508
1.3311841
1.3054617
1.283583
1.2649086
1.2489227
1.2352048
1.223409
1.2132485
1.2044836
1.1969128
1.1903657
1.1846976
1.1797857
1.175525
1.1718262
1.1686126
1.1658187
1.1633883
1.161273
8.1008282
5.64825
4.2337876
3.3823262
2.8356049
2.4626627
2.1955442
1.9969229
1.8449394
1.7260188
1.6313044
1.5547796
1.4922193
1.4405737
1.397589
1.3615664
1.331203
1.3054842
1.2836092
1.2649387
1.2489565
1.2352417
1.2234483
1.2132891
1.2045243
1.1969524
1.190403
1.1847318
1.179816
1.1755513
1.1718482
1.1686305
1.1658328
1.1633988
1.1612801
8.1008274
5.6482482
4.2337858
3.3823248
2.835604
2.4626625
2.1955449
1.9969245
1.8449421
1.7260228
1.6313099
1.5547868
1.4922286
1.4405854
1.3976035
1.3615841
1.3312242
1.3055092
1.2836384
1.264972
1.2489938
1.2352825
1.2234918
1.2133344
1.2045703
1.196998
1.1904472
1.184774
1.1798557
1.1755882
1.1718822
1.1686616
1.1658611
1.1634245
1.1613035
8.1008266
5.6482464
4.2337841
3.3823234
2.8356033
2.4626625
2.1955458
1.9969265
1.8449453
1.7260274
1.6313162
1.5547951
1.4922392
1.4405986
1.3976198
1.3616039
1.3312479
1.3055372
1.2836707
1.2650088
1.2490348
1.2353273
1.2235396
1.2133844
1.2046215
1.1970495
1.1904982
1.1848239
1.1799041
1.1756347
1.1719268
1.1687042
1.1659019
1.1634635
1.1613409
8.1008259
5.6482447
4.2337824
3.3823221
2.8356026
2.4626627
2.195547
1.996929
1.8449491
1.7260328
1.6313235
1.5548046
1.4922512
1.4406136
1.3976381
1.361626
1.3312743
1.3055681
1.2837064
1.2650493
1.2490797
1.2353763
1.2235919
1.2134392
1.204678
1.1971068
1.1905558
1.184881
1.1799604
1.17569
1.1719809
1.1687571
1.1659535
1.163514
1.1613903
8.1008252
5.6482431
4.2337807
3.3823209
2.8356021
2.4626632
2.1955486
1.9969319
1.8449536
1.7260391
1.6313318
1.5548154
1.4922649
1.4406305
1.3976587
1.3616508
1.3313037
1.3056024
1.2837458
1.2650936
1.2491288
1.2354296
1.2236489
1.213499
1.2047398
1.19717
1.1906196
1.184945
1.1800242
1.1757533
1.1720436
1.1688192
1.1660149
1.1635746
1.1614502
8.1008247
5.6482417
4.2337792
3.3823198
2.8356018
2.4626639
2.1955506
1.9969353
1.8449588
1.7260463
1.6313414
1.5548276
1.4922802
1.4406495
1.3976818
1.3616784
1.3313362
1.3056401
1.2837889
1.265142
1.2491822
1.2354874
1.2237106
1.2135637
1.2048069
1.1972387
1.1906894
1.1850154
1.1800949
1.175824
1.1721142
1.1688895
1.1660848
1.1636442
1.1615194
8.1008243
5.6482405
4.2337779
3.3823189
2.8356018
2.462665
2.1955531
1.9969395
1.8449648
1.7260546
1.6313522
1.5548415
1.4922976
1.4406707
1.3977075
1.361709
1.3313721
1.3056816
1.283836
1.2651946
1.24924
1.2355499
1.223777
1.2136335
1.2048792
1.197313
1.1907651
1.185092
1.1801721
1.1759016
1.1721919
1.1689672
1.1661625
1.1637218
1.1615968
8.100824
5.6482395
4.2337767
3.3823182
2.835602
2.4626664
2.1955561
1.9969443
1.8449718
1.726064
1.6313646
1.5548572
1.4923171
1.4406946
1.3977361
1.361743
1.3314117
1.3057271
1.2838873
1.2652517
1.2493023
1.235617
1.2238482
1.2137082
1.2049567
1.1973926
1.1908463
1.1851745
1.1802554
1.1759855
1.1722762
1.1690518
1.1662472
1.1638066
1.1616816
8.100824
5.6482389
4.2337758
3.3823177
2.8356025
2.4626683
2.1955597
1.9969499
1.8449799
1.7260748
1.6313786
1.5548749
1.4923389
1.4407211
1.3977679
1.3617804
1.3314551
1.3057766
1.283943
1.2653132
1.2493693
1.2356889
1.2239243
1.2137878
1.2050392
1.1974774
1.1909329
1.1852625
1.1803444
1.1760753
1.1723666
1.1691426
1.1663383
1.1638978
1.1617731
8.1008241
5.6482386
4.2337752
3.3823176
2.8356034
2.4626707
2.195564
1.9969565
1.8449891
1.7260871
1.6313944
1.5548947
1.4923634
1.4407507
1.3978031
1.3618216
1.3315026
1.3058305
1.2840032
1.2653794
1.2494411
1.2357655
1.2240053
1.2138723
1.2051267
1.1975672
1.1910246
1.1853557
1.1804388
1.1761706
1.1724625
1.1692391
1.1664352
1.1639951
1.1618705
8.1008246
5.6482387
4.2337749
3.3823177
2.8356047
2.4626737
2.1955691
1.9969641
1.8449996
1.7261011
1.6314123
1.554917
1.4923906
1.4407834
1.3978418
1.3618667
1.3315543
1.3058889
1.284068
1.2654504
1.2495176
1.235847
1.224091
1.2139616
1.2052189
1.1976619
1.1911213
1.1854539
1.1805383
1.176271
1.1725638
1.1693409
1.1665375
1.1640978
1.1619735
8.1008252
5.6482392
4.2337749
3.3823183
2.8356065
2.4626774
2.1955751
1.9969729
1.8450116
1.7261168
1.6314323
1.5549419
1.4924209
1.4408196
1.3978844
1.361916
1.3316105
1.3059519
1.2841376
1.2655261
1.2495989
1.2359332
1.2241814
1.2140556
1.2053159
1.1977614
1.1912227
1.1855569
1.1806425
1.1763763
1.1726699
1.1694477
1.1666448
1.1642055
1.1620816
8.1008262
5.6482403
4.2337754
3.3823192
2.8356088
2.4626818
2.1955821
1.996983
1.8450253
1.7261346
1.6314547
1.5549696
1.4924544
1.4408595
1.3979311
1.3619697
1.3316713
1.3060196
1.284212
1.2656066
1.2496849
1.2360241
1.2242765
1.2141542
1.2054174
1.1978653
1.1913286
1.1856644
1.1807513
1.1764861
1.1727805
1.169559
1.1667567
1.1643178
1.1621943
8.1008275
5.6482419
4.2337763
3.3823207
2.8356118
2.462687
2.1955902
1.9969945
1.8450407
1.7261546
1.6314798
1.5550004
1.4924915
1.4409033
1.397982
1.3620279
1.3317367
1.3060922
1.2842912
1.2656919
1.2497757
1.2361196
1.2243761
1.2142573
1.2055233
1.1979735
1.1914387
1.1857761
1.1808643
1.1766002
1.1728954
1.1696746
1.1668728
1.1644344
1.1623113
8.1008292
5.6482441
4.2337778
3.3823227
2.8356155
2.4626931
2.1955995
1.9970075
1.8450582
1.726177
1.6315078
1.5550344
1.4925322
1.4409512
1.3980373
1.3620907
1.331807
1.3061696
1.2843753
1.265782
1.2498711
1.2362197
1.2244801
1.2143646
1.2056335
1.1980859
1.191553
1.1858919
1.1809814
1.1767182
1.1730143
1.1697941
1.166993
1.164555
1.1624322
8.1008312
5.6482469
4.2337797
3.3823252
2.8356199
2.4627003
2.1956101
1.9970223
1.8450778
1.7262019
1.6315388
1.5550721
1.492577
1.4410034
1.3980972
1.3621584
1.3318822
1.3062519
1.2844642
1.2658768
1.2499712
1.2363242
1.2245884
1.2144761
1.2057476
1.1982022
1.1916711
1.1860115
1.1811022
1.17684
1.1731369
1.1699174
1.1671168
1.1646793
1.1625569
8.1008335
5.6482503
4.2337822
3.3823284
2.8356251
2.4627086
2.1956223
1.9970391
1.8450997
1.7262298
1.6315731
1.5551134
1.4926258
1.4410601
1.3981619
1.3622309
1.3319623
1.3063391
1.2845578
1.2659763
1.2500756
1.236433
1.2247008
1.2145916
1.2058656
1.1983223
1.1917929
1.1861347
1.1812265
1.1769653
1.173263
1.1700441
1.167244
1.164807
1.1626849
8.1008361
5.6482541
4.2337851
3.3823322
2.8356312
2.4627182
2.1956361
1.9970579
1.8451243
1.7262607
1.6316109
1.5551588
1.4926791
1.4411215
1.3982314
1.3623084
1.3320473
1.3064311
1.2846562
1.2660802
1.2501844
1.2365459
1.2248172
1.2147108
1.2059872
1.1984459
1.1919181
1.1862612
1.1813541
1.1770938
1.1733922
1.170174
1.1673744
1.1649378
1.1628161
8.1008389
5.6482583
4.2337884
3.3823366
2.8356383
2.462729
2.1956517
1.997079
1.8451516
1.7262948
1.6316526
1.5552083
1.4927369
1.4411876
1.3983058
1.3623908
1.3321373
1.3065279
1.2847591
1.2661885
1.2502973
1.2366627
1.2249373
1.2148336
1.2061123
1.1985729
1.1920466
1.1863909
1.1814849
1.1772254
1.1735245
1.1703069
1.1675078
1.1650715
1.1629502
8.1008416
5.6482624
4.233792
3.3823415
2.8356464
2.4627414
2.1956694
1.9971027
1.845182
1.7263327
1.6316983
1.5552624
1.4927995
1.4412589
1.3983855
1.3624784
1.3322323
1.3066296
1.2848667
1.2663012
1.2504144
1.2367835
1.2250612
1.2149601
1.2062408
1.1987031
1.1921783
1.1865238
1.1816187
1.17736
1.1736598
1.1704426
1.167644
1.1652081
1.1630871
8.1008439
5.6482661
4.2337957
3.3823474
2.8356561
2.4627562
2.1956901
1.9971301
1.8452168
1.7263753
1.6317493
1.5553221
1.492868
1.4413361
1.3984711
1.3625719
1.332333
1.3067368
1.2849795
1.2664189
1.2505362
1.2369088
1.2251893
1.2150906
1.2063733
1.1988372
1.1923136
1.1866602
1.181756
1.177498
1.1737984
1.1705818
1.1677835
1.165348
1.1632273
8.1008453
5.6482697
4.2338018
3.3823574
2.835671
2.4627767
2.1957169
1.997164
1.8452583
1.7264251
1.6318077
1.5553893
1.4929442
1.4414209
1.3985642
1.3626727
1.3324407
1.3068507
1.2850987
1.2665427
1.2506638
1.2370396
1.2253227
1.2152262
1.2065106
1.198976
1.1924536
1.1868012
1.1818978
1.1776405
1.1739414
1.1707252
1.1679273
1.1654921
1.1633717
8.1008452
5.648271
4.233806
3.382366
2.8356853
2.4627976
2.1957451
1.9972
1.8453027
1.7264783
1.6318701
1.555461
1.4930249
1.4415105
1.398662
1.362778
1.3325528
1.3069686
1.2852218
1.26667
1.2507947
1.2371735
1.2254591
1.2153645
1.2066506
1.1991173
1.1925961
1.1869445
1.1820418
1.1777851
1.1740865
1.1708708
1.1680733
1.1656383
1.1635181
8.1008444
5.6482716
4.2338101
3.3823749
2.8357004
2.4628199
2.1957753
1.9972387
1.8453504
1.7265354
1.6319367
1.5555371
1.4931103
1.4416046
1.3987642
1.3628876
1.3326688
1.3070902
1.2853482
1.2668004
1.2509284
1.2373099
1.2255978
1.215505
1.2067927
1.1992606
1.1927403
1.1870896
1.1821876
1.1779314
1.1742333
1.1710179
1.1682207
1.165786
1.163666
8.1008439
5.6482747
4.2338192
3.3823902
2.8357228
2.46285
2.1958137
1.997286
1.8454069
1.7266014
1.6320123
1.5556221
1.4932044
1.4417072
1.3988745
1.3630048
1.3327921
1.3072187
1.285481
1.2669369
1.2510679
1.2374519
1.2257418
1.2156506
1.2069396
1.1994086
1.1928892
1.1872391
1.1823377
1.178082
1.1743843
1.1711692
1.1683722
1.1659378
1.163818
8.1008437
5.6482794
4.2338315
3.3824104
2.8357511
2.4628869
2.1958595
1.997341
1.8454715
1.7266758
1.6320964
1.5557156
1.4933068
1.4418178
1.3989926
1.3631294
1.3329224
1.3073538
1.2856201
1.2670793
1.251213
1.2375992
1.2258908
1.2158012
1.2070913
1.1995612
1.1930425
1.1873931
1.1824922
1.1782369
1.1745395
1.1713247
1.168528
1.1660937
1.163974
8.1008436
5.6482846
4.2338451
3.3824327
2.8357823
2.4629273
2.1959094
1.9974008
1.8455414
1.7267557
1.6321861
1.5558148
1.4934147
1.4419338
1.3991157
1.3632587
1.3330569
1.3074928
1.2857627
1.2672249
1.2513612
1.2377493
1.2260425
1.2159541
1.2072453
1.199716
1.193198
1.1875492
1.1826486
1.1783937
1.1746966
1.171482
1.1686855
1.1662514
1.1641318
8.1008438
5.6482904
4.2338598
3.3824568
2.835816
2.4629709
2.1959632
1.9974649
1.8456158
1.7268403
1.6322807
1.5559186
1.4935271
1.4420538
1.3992425
1.3633913
1.3331944
1.3076343
1.2859076
1.2673725
1.2515109
1.2379008
1.2261955
1.2161082
1.2074002
1.1998717
1.1933543
1.1877058
1.1828057
1.1785511
1.1748542
1.1716398
1.1688434
1.1664095
1.16429
8.1008442
5.6482969
4.2338758
3.3824829
2.8358524
2.4630177
2.1960207
1.9975331
1.8456947
1.7269295
1.6323796
1.5560267
1.4936434
1.4421775
1.3993724
1.3635266
1.3333342
1.3077778
1.2860541
1.2675214
1.2516617
1.2380531
1.226349
1.2162627
1.2075555
1.2000275
1.1935106
1.1878626
1.1829627
1.1787083
1.1750116
1.1717974
1.1690012
1.1665673
1.1644479
8.1008449
5.6483042
4.2338931
3.382511
2.8358914
2.4630678
2.1960819
1.9976054
1.8457777
1.7270229
1.6324826
1.5561385
1.4937632
1.4423041
1.3995049
1.363664
1.3334756
1.3079225
1.2862015
1.2676709
1.2518129
1.2382056
1.2265026
1.2164171
1.2077105
1.2001831
1.1936665
1.1880188
1.1831192
1.178865
1.1751684
1.1719543
1.1691582
1.1667244
1.1646051
8.1008458
5.6483122
4.2339117
3.3825411
2.8359332
2.4631212
2.1961467
1.9976815
1.8458647
1.72712
1.6325893
1.5562536
1.4938857
1.4424331
1.3996393
1.3638028
1.3336181
1.3080679
1.2863492
1.2678204
1.2519639
1.2383577
1.2266555
1.2165707
1.2078647
1.2003376
1.1938214
1.1881739
1.1832745
1.1790204
1.175324
1.17211
1.1693139
1.1668801
1.1647609
8.1008469
5.6483209
4.2339317
3.3825732
2.8359774
2.4631775
2.1962149
1.997761
1.8459551
1.7272205
1.6326988
1.5563713
1.4940104
1.4425636
1.3997747
1.3639423
1.3337608
1.3082131
1.2864964
1.2679693
1.2521139
1.2385087
1.2268072
1.2167229
1.2080173
1.2004905
1.1939745
1.1883272
1.1834279
1.179174
1.1754776
1.1722636
1.1694675
1.1670338
1.1649146
8.1008482
5.6483303
4.2339528
3.3826071
2.8360241
2.4632366
2.1962861
1.9978437
1.8460484
1.7273236
1.6328107
1.5564907
1.4941363
1.4426949
1.3999104
1.3640815
1.3339028
1.3083574
1.2866424
1.2681165
1.2522622
1.2386577
1.2269568
1.2168729
1.2081676
1.200641
1.1941252
1.188478
1.1835788
1.1793249
1.1756285
1.1724146
1.1696185
1.1671848
1.1650656
8.1008497
5.6483403
4.2339751
3.3826426
2.8360728
2.4632982
2.1963598
1.9979288
1.8461441
1.7274287
1.632924
1.5566111
1.4942626
1.442826
1.4000455
1.3642197
1.3340434
1.3084999
1.2867863
1.2682615
1.2524079
1.238804
1.2271035
1.2170199
1.2083148
1.2007884
1.1942727
1.1886255
1.1837263
1.1794724
1.1757761
1.1725621
1.169766
1.1673323
1.165213
8.1008513
5.6483509
4.2339984
3.3826797
2.8361235
2.4633618
2.1964356
1.9980159
1.8462413
1.7275348
1.6330379
1.5567315
1.4943883
1.4429561
1.400179
1.3643559
1.3341817
1.3086396
1.2869272
1.2684032
1.2525503
1.2389468
1.2272465
1.2171632
1.2084581
1.2009318
1.1944161
1.1887689
1.1838697
1.1796158
1.1759194
1.1727054
1.1699093
1.1674756
1.1653563
8.100853
5.6483619
4.2340226
3.382718
2.8361756
2.4634269
2.1965129
1.9981041
1.8463392
1.7276412
1.6331514
1.5568509
1.4945126
1.4430842
1.40031
1.3644891
1.3343166
1.3087758
1.2870642
1.2685409
1.2526883
1.2390851
1.2273851
1.2173018
1.2085968
1.2010705
1.1945547
1.1889075
1.1840083
1.1797543
1.1760578
1.1728438
1.1700476
1.1676138
1.1654945
8.1008548
5.6483734
4.2340475
3.3827573
2.8362288
2.4634931
2.1965909
1.9981927
1.8464371
1.7277469
1.6332636
1.5569684
1.4946343
1.4432091
1.4004374
1.3646184
1.3344472
1.3089074
1.2871965
1.2686736
1.2528213
1.2392183
1.2275183
1.217435
1.20873
1.2012036
1.1946878
1.1890405
1.1841411
1.179887
1.1761905
1.1729764
1.1701801
1.1677463
1.1656268
8.1008567
5.6483851
4.2340728
3.3827971
2.8362825
2.4635597
2.196669
1.9982809
1.8465338
1.7278509
1.6333735
1.557083
1.4947525
1.4433301
1.4005604
1.3647429
1.3345727
1.3090336
1.2873232
1.2688005
1.2529484
1.2393453
1.2276453
1.2175619
1.2088568
1.2013303
1.1948143
1.1891669
1.1842675
1.1800133
1.1763166
1.1731024
1.1703061
1.1678721
1.1657526
8.1008586
5.6483969
4.2340984
3.3828371
2.8363363
2.4636259
2.1967462
1.9983676
1.8466286
1.7279522
1.63348
1.5571935
1.4948661
1.443446
1.400678
1.3648616
1.3346922
1.3091535
1.2874433
1.2689207
1.2530686
1.2394655
1.2277653
1.2176818
1.2089765
1.2014499
1.1949337
1.1892862
1.1843866
1.1801322
1.1764355
1.1732211
1.1704247
1.1679906
1.1658711
8.1008606
5.6484088
4.2341239
3.3828769
2.8363895
2.4636911
2.1968219
1.9984521
1.8467203
1.7280497
1.633582
1.5572991
1.4949742
1.4435559
1.4007891
1.3649736
1.3348046
1.3092662
1.2875561
1.2690335
1.2531812
1.2395779
1.2278776
1.2177939
1.2090884
1.2015615
1.1950452
1.1893975
1.1844977
1.1802432
1.1765463
1.1733318
1.1705353
1.1681011
1.1659815
8.1008625
5.6484206
4.2341491
3.382916
2.8364415
2.4637545
2.196895
1.9985333
1.846808
1.7281425
1.6336787
1.5573986
1.4950758
1.4436589
1.4008931
1.365078
1.3349093
1.309371
1.2876608
1.269138
1.2532855
1.239682
1.2279814
1.2178974
1.2091917
1.2016646
1.1951481
1.1895001
1.1846002
1.1803455
1.1766485
1.1734339
1.1706372
1.1682029
1.1660831
8.1008644
5.6484321
4.2341736
3.3829538
2.8364916
2.4638154
2.1969648
1.9986103
1.8468907
1.7282297
1.6337692
1.5574914
1.4951701
1.4437542
1.400989
1.3651742
1.3350056
1.3094671
1.2877567
1.2692337
1.2533809
1.2397771
1.2280762
1.2179919
1.2092859
1.2017585
1.1952417
1.1895936
1.1846934
1.1804386
1.1767413
1.1735266
1.1707298
1.1682954
1.1661756
8.1008662
5.6484431
4.2341971
3.38299
2.8365393
2.4638729
2.1970303
1.9986823
1.8469677
1.7283103
1.6338524
1.5575765
1.4952563
1.4438411
1.4010762
1.3652614
1.3350927
1.309554
1.2878433
1.2693199
1.2534668
1.2398626
1.2281613
1.2180767
1.2093704
1.2018427
1.1953257
1.1896773
1.1847769
1.1805219
1.1768245
1.1736096
1.1708127
1.1683782
1.1662582
8.100868
5.6484538
4.2342194
3.3830241
2.836584
2.4639264
2.1970911
1.9987486
1.8470382
1.7283838
1.633928
1.5576533
1.4953339
1.4439191
1.4011542
1.3653393
1.3351702
1.3096311
1.28792
1.2693962
1.2535427
1.2399381
1.2282365
1.2181515
1.2094448
1.2019169
1.1953996
1.1897509
1.1848503
1.1805951
1.1768976
1.1736825
1.1708855
1.1684508
1.1663308
8.1008695
5.6484633
4.2342397
3.3830554
2.8366248
2.4639752
2.1971461
1.9988083
1.8471013
1.7284493
1.633995
1.5577212
1.4954023
1.4439875
1.4012224
1.3654072
1.3352378
1.3096982
1.2879866
1.2694624
1.2536084
1.2400033
1.2283013
1.218216
1.209509
1.2019807
1.1954631
1.1898142
1.1849134
1.180658
1.1769603
1.1737451
1.1709479
1.1685131
1.166393
8.100871
5.6484724
4.2342586
3.3830839
2.8366618
2.464019
2.1971951
1.9988612
1.8471569
1.7285066
1.6340534
1.5577801
1.4954612
1.4440463
1.4012808
1.3654652
1.3352952
1.3097552
1.288043
1.2695183
1.2536637
1.2400583
1.2283558
1.2182701
1.2095628
1.2020342
1.1955163
1.1898672
1.1849661
1.1807105
1.1770126
1.1737973
1.1709999
1.1685651
1.1664448
8.1008724
5.6484803
4.2342753
3.3831091
2.8366942
2.4640571
2.1972376
1.9989067
1.8472044
1.7285554
1.6341027
1.5578295
1.4955105
1.4440952
1.4013293
1.3655131
1.3353425
1.3098018
1.2880891
1.2695638
1.2537088
1.2401029
1.2284
1.2183139
1.2096062
1.2020773
1.1955592
1.1899098
1.1850085
1.1807527
1.1770546
1.1738391
1.1710417
1.1686067
1.1664863
8.1008735
5.6484872
4.2342897
3.3831307
2.8367219
2.4640895
2.1972733
1.9989448
1.8472438
1.7285955
1.634143
1.5578697
1.4955503
1.4441344
1.4013679
1.365551
1.3353798
1.3098385
1.2881252
1.2695993
1.2537438
1.2401373
1.228434
1.2183475
1.2096395
1.2021103
1.1955919
1.1899423
1.1850408
1.1807848
1.1770866
1.1738709
1.1710733
1.1686382
1.1665177
8.1008745
5.648493
4.2343017
3.3831487
2.8367447
2.464116
2.1973023
1.9989753
1.8472752
1.728627
1.6341744
1.5579007
1.4955807
1.4441642
1.4013969
1.3655793
1.3354074
1.3098654
1.2881515
1.269625
1.253769
1.2401621
1.2284583
1.2183715
1.2096631
1.2021336
1.1956149
1.1899651
1.1850634
1.1808072
1.1771088
1.173893
1.1710953
1.1686601
1.1665395
8.1008753
5.6484977
4.2343114
3.383163
2.8367627
2.4641366
2.1973246
1.9989985
1.8472986
1.7286503
1.6341973
1.5579229
1.4956022
1.4441849
1.4014168
1.3655984
1.3354258
1.3098831
1.2881686
1.2696416
1.253785
1.2401776
1.2284735
1.2183862
1.2096775
1.2021477
1.1956288
1.1899787
1.1850768
1.1808205
1.1771219
1.173906
1.1711081
1.1686728
1.1665522
8.1008759
5.6485013
4.2343187
3.3831737
2.836776
2.4641516
2.1973405
1.9990146
1.8473146
1.7286658
1.6342121
1.5579369
1.4956153
1.4441971
1.4014282
1.365609
1.3354357
1.3098923
1.2881771
1.2696495
1.2537925
1.2401846
1.2284801