/*--------------------------------*- C++ -*----------------------------------*\
  =========                 |
  \\      /  F ield         | OpenFOAM: The Open Source CFD Toolbox
   \\    /   O peration     | Website:  https://openfoam.org
    \\  /    A nd           | Version:  12
     \\/     M anipulation  |
\*---------------------------------------------------------------------------*/
FoamFile
{
    format      ascii;
    class       volScalarField;
    location    "2000";
    object      k;
}
// * * * * * * * * * * * * * * * * * * * * * * * * * * * * * * * * * * * * * //

dimensions      [0 2 -2 0 0 0 0];

internalField   nonuniform List<scalar> 
66675
(
0.042549146
0.035208964
0.03038832
0.027109617
0.024774806
0.02304328
0.021717475
0.020677218
0.019845503
0.019170631
0.018616516
0.018157157
0.017773321
0.01745047
0.017177408
0.016945378
0.016747436
0.016578015
0.016432605
0.016307528
0.016199765
0.016106834
0.016026698
0.015957707
0.015898574
0.015848355
0.01580663
0.015773355
0.015750344
0.015740023
0.015756681
0.015804587
0.016011563
0.016302426
0.015826279
0.042549146
0.035208964
0.030388319
0.027109617
0.024774806
0.02304328
0.021717475
0.020677218
0.019845503
0.019170631
0.018616516
0.018157157
0.017773321
0.01745047
0.017177408
0.016945378
0.016747436
0.016578015
0.016432605
0.016307528
0.016199765
0.016106834
0.016026698
0.015957705
0.01589857
0.015848346
0.015806606
0.015773311
0.015750216
0.015739589
0.015755249
0.015803551
0.015961415
0.016344908
0.016079896
0.042549146
0.035208964
0.030388319
0.027109617
0.024774806
0.02304328
0.021717475
0.020677218
0.019845503
0.019170631
0.018616516
0.018157157
0.017773321
0.01745047
0.017177408
0.016945378
0.016747437
0.016578015
0.016432606
0.016307529
0.016199766
0.016106834
0.016026697
0.015957704
0.015898565
0.015848335
0.015806574
0.01577325
0.015750027
0.015738963
0.015753183
0.015803784
0.015918591
0.016283857
0.016280398
0.042549146
0.035208963
0.030388319
0.027109616
0.024774806
0.02304328
0.021717475
0.020677218
0.019845503
0.019170631
0.018616516
0.018157157
0.017773321
0.01745047
0.017177409
0.016945379
0.016747437
0.016578016
0.016432607
0.01630753
0.016199767
0.016106835
0.016026698
0.015957703
0.01589856
0.015848322
0.015806534
0.015773171
0.015749777
0.015738232
0.015750742
0.015801003
0.015892718
0.016183899
0.016376614
0.042549146
0.035208963
0.030388319
0.027109616
0.024774806
0.023043279
0.021717475
0.020677217
0.019845503
0.019170631
0.018616516
0.018157157
0.017773322
0.017450471
0.017177409
0.016945379
0.016747438
0.016578017
0.016432608
0.016307532
0.016199769
0.016106837
0.016026699
0.015957702
0.015898553
0.015848305
0.01580648
0.015773059
0.015749423
0.015737439
0.015747884
0.015792687
0.015876027
0.016069703
0.016333051
0.042549145
0.035208962
0.030388318
0.027109615
0.024774805
0.023043279
0.021717474
0.020677217
0.019845503
0.019170631
0.018616516
0.018157157
0.017773322
0.017450471
0.01717741
0.01694538
0.016747439
0.016578019
0.01643261
0.016307534
0.016199771
0.016106839
0.016026701
0.015957701
0.015898544
0.01584828
0.01580641
0.015772903
0.015748977
0.015736399
0.015744674
0.015781719
0.015858525
0.015999096
0.016204385
0.042549145
0.035208962
0.030388317
0.027109615
0.024774804
0.023043278
0.021717474
0.020677217
0.019845502
0.019170631
0.018616516
0.018157158
0.017773322
0.017450472
0.017177411
0.016945382
0.016747441
0.016578021
0.016432613
0.016307537
0.016199775
0.016106843
0.016026703
0.015957699
0.015898533
0.015848249
0.015806324
0.015772699
0.015748455
0.01573506
0.015740964
0.015770205
0.015836146
0.015948597
0.016097968
0.042549145
0.035208961
0.030388316
0.027109614
0.024774804
0.023043278
0.021717473
0.020677217
0.019845502
0.019170631
0.018616516
0.018157158
0.017773323
0.017450473
0.017177412
0.016945383
0.016747443
0.016578024
0.016432616
0.016307541
0.016199779
0.016106847
0.016026705
0.015957697
0.01589852
0.015848209
0.015806221
0.015772439
0.015747876
0.01573328
0.015736047
0.015759231
0.015812577
0.015901405
0.016015719
0.042549144
0.03520896
0.030388315
0.027109613
0.024774803
0.023043277
0.021717473
0.020677216
0.019845502
0.019170631
0.018616517
0.018157158
0.017773324
0.017450474
0.017177414
0.016945385
0.016747446
0.016578027
0.01643262
0.016307545
0.016199784
0.016106851
0.016026708
0.015957695
0.015898504
0.01584816
0.015806098
0.015772122
0.01574724
0.015731095
0.01573081
0.015748593
0.015789899
0.015857361
0.015944423
0.042549144
0.035208959
0.030388314
0.027109611
0.024774801
0.023043276
0.021717472
0.020677215
0.019845501
0.01917063
0.018616517
0.018157159
0.017773325
0.017450475
0.017177416
0.016945388
0.016747449
0.016578031
0.016432624
0.016307551
0.01619979
0.016106857
0.016026712
0.015957693
0.015898484
0.015848102
0.015805952
0.01577176
0.01574651
0.015728336
0.01572637
0.015738459
0.015768801
0.015818129
0.015881712
0.042549144
0.035208957
0.030388312
0.02710961
0.0247748
0.023043274
0.021717471
0.020677215
0.019845501
0.01917063
0.018616517
0.018157159
0.017773325
0.017450477
0.017177418
0.016945391
0.016747453
0.016578035
0.01643263
0.016307558
0.016199798
0.016106865
0.016026717
0.01595769
0.015898461
0.015848035
0.015805777
0.015771389
0.01574538
0.015727889
0.015721462
0.015728129
0.015749188
0.015783923
0.015828425
0.042549143
0.035208956
0.03038831
0.027109608
0.024774798
0.023043273
0.021717469
0.020677214
0.0198455
0.01917063
0.018616517
0.01815716
0.017773327
0.017450479
0.01717742
0.016945394
0.016747457
0.016578041
0.016432637
0.016307566
0.016199807
0.016106874
0.016026722
0.015957686
0.015898435
0.015847958
0.015805578
0.015770965
0.015744273
0.015726013
0.015717138
0.015718972
0.015731986
0.015754945
0.015784574
0.042549142
0.035208954
0.030388308
0.027109606
0.024774796
0.023043271
0.021717468
0.020677213
0.0198455
0.01917063
0.018616517
0.018157161
0.017773328
0.017450481
0.017177423
0.016945398
0.016747462
0.016578048
0.016432646
0.016307576
0.016199817
0.016106884
0.016026729
0.015957683
0.015898405
0.01584787
0.015805357
0.015770479
0.01574318
0.015723782
0.015712728
0.015710503
0.015716942
0.015730665
0.015749034
0.042549142
0.035208952
0.030388306
0.027109603
0.024774794
0.023043269
0.021717466
0.020677211
0.019845499
0.019170629
0.018616517
0.018157161
0.01777333
0.017450483
0.017177427
0.016945403
0.016747469
0.016578056
0.016432655
0.016307587
0.01619983
0.016106896
0.016026738
0.015957679
0.015898372
0.015847771
0.015805116
0.015769946
0.015742054
0.015721501
0.015708384
0.015702661
0.015703769
0.015710346
0.015720316
0.042549141
0.03520895
0.030388303
0.027109601
0.024774792
0.023043267
0.021717464
0.02067721
0.019845498
0.019170629
0.018616518
0.018157163
0.017773332
0.017450486
0.017177431
0.016945409
0.016747476
0.016578065
0.016432667
0.016307601
0.016199845
0.016106911
0.016026748
0.015957676
0.015898335
0.015847662
0.015804855
0.015769376
0.015740891
0.015719236
0.015704231
0.015695509
0.015692311
0.015693383
0.015697113
0.04254914
0.035208948
0.030388301
0.027109598
0.024774789
0.023043265
0.021717462
0.020677208
0.019845497
0.019170629
0.018616518
0.018157164
0.017773334
0.01745049
0.017177436
0.016945416
0.016747485
0.016578076
0.01643268
0.016307616
0.016199863
0.016106928
0.01602676
0.015957673
0.015898296
0.015847543
0.015804574
0.015768778
0.015739707
0.015717017
0.015700322
0.015689066
0.015682415
0.015679262
0.015678358
0.042549139
0.035208945
0.030388298
0.027109595
0.024774786
0.023043262
0.02171746
0.020677207
0.019845496
0.019170628
0.018616519
0.018157165
0.017773337
0.017450494
0.017177442
0.016945423
0.016747495
0.016578089
0.016432696
0.016307635
0.016199883
0.016106949
0.016026775
0.01595767
0.015898254
0.015847416
0.015804278
0.015768162
0.015738521
0.015714872
0.015696689
0.015683313
0.015673911
0.015667525
0.015663177
0.042549138
0.035208942
0.030388294
0.027109591
0.024774782
0.023043259
0.021717458
0.020677205
0.019845495
0.019170628
0.018616519
0.018157167
0.01777334
0.017450499
0.017177449
0.016945433
0.016747507
0.016578104
0.016432714
0.016307656
0.016199907
0.016106972
0.016026792
0.015957669
0.01589821
0.015847282
0.015803971
0.015767536
0.015737349
0.015712826
0.01569335
0.015678216
0.015666632
0.015657773
0.015650861
0.042549137
0.03520894
0.030388291
0.027109587
0.024774779
0.023043256
0.021717455
0.020677203
0.019845494
0.019170628
0.01861652
0.01815717
0.017773344
0.017450505
0.017177457
0.016945443
0.016747521
0.016578121
0.016432735
0.016307681
0.016199935
0.016107
0.016026814
0.015957671
0.015898165
0.015847144
0.015803656
0.01576691
0.01573621
0.0157109
0.015690312
0.015673732
0.015660423
0.015649672
0.015640842
0.042549136
0.035208936
0.030388287
0.027109583
0.024774775
0.023043252
0.021717452
0.020677201
0.019845492
0.019170628
0.018616522
0.018157172
0.017773349
0.017450512
0.017177466
0.016945456
0.016747537
0.016578141
0.01643276
0.01630771
0.016199967
0.016107032
0.016026839
0.015957675
0.015898122
0.015847004
0.01580334
0.015766293
0.015735118
0.01570911
0.015687574
0.015669813
0.015655144
0.015642943
0.015632674
0.042549135
0.035208933
0.030388283
0.027109579
0.024774771
0.023043249
0.021717449
0.020677199
0.019845491
0.019170628
0.018616523
0.018157176
0.017773354
0.01745052
0.017177477
0.01694547
0.016747556
0.016578165
0.016432788
0.016307743
0.016200004
0.016107069
0.016026869
0.015957683
0.01589808
0.015846865
0.015803028
0.015765696
0.015734086
0.015707466
0.015685132
0.01566641
0.01565067
0.015637357
0.015626001
0.042549133
0.035208929
0.030388279
0.027109575
0.024774767
0.023043245
0.021717447
0.020677197
0.019845491
0.019170629
0.018616526
0.01815718
0.017773361
0.017450529
0.01717749
0.016945487
0.016747577
0.016578192
0.016432821
0.016307782
0.016200046
0.016107113
0.016026905
0.015957696
0.015898042
0.01584673
0.015802726
0.015765127
0.015733126
0.015705974
0.015682972
0.015663473
0.015646892
0.015632723
0.015620544
0.042549132
0.035208926
0.030388274
0.02710957
0.024774762
0.023043241
0.021717444
0.020677195
0.01984549
0.01917063
0.018616528
0.018157185
0.017773369
0.01745054
0.017177505
0.016945507
0.016747602
0.016578223
0.016432858
0.016307826
0.016200095
0.016107163
0.016026948
0.015957716
0.015898011
0.015846604
0.015802439
0.015764595
0.015732245
0.015704637
0.015681082
0.015660957
0.015643715
0.015628886
0.015616081
0.04254913
0.035208922
0.030388269
0.027109565
0.024774758
0.023043238
0.021717441
0.020677193
0.01984549
0.019170631
0.018616532
0.018157192
0.017773378
0.017450553
0.017177523
0.01694553
0.016747631
0.016578259
0.016432902
0.016307876
0.016200152
0.016107221
0.016026999
0.015957743
0.015897988
0.015846489
0.015802175
0.015764107
0.015731451
0.015703455
0.015679443
0.015658817
0.015641056
0.015625718
0.015612434
0.042549129
0.035208917
0.030388265
0.02710956
0.024774753
0.023043234
0.021717438
0.020677192
0.01984549
0.019170634
0.018616537
0.018157199
0.017773389
0.017450569
0.017177543
0.016945556
0.016747664
0.0165783
0.016432951
0.016307934
0.016200217
0.016107288
0.01602706
0.015957781
0.015897977
0.01584639
0.015801937
0.01576367
0.015730748
0.015702425
0.015678039
0.015657012
0.015638844
0.015623112
0.015609461
0.042549127
0.035208913
0.030388259
0.027109555
0.024774749
0.02304323
0.021717435
0.020677191
0.019845491
0.019170637
0.018616543
0.018157208
0.017773402
0.017450587
0.017177567
0.016945586
0.016747703
0.016578347
0.016433008
0.016308001
0.016200291
0.016107366
0.016027131
0.015957831
0.01589798
0.015846312
0.015801732
0.015763287
0.015730137
0.015701542
0.015676852
0.015655505
0.015637018
0.015620981
0.015607048
0.042549125
0.035208908
0.030388254
0.02710955
0.024774744
0.023043226
0.021717433
0.02067719
0.019845493
0.019170641
0.01861655
0.018157219
0.017773418
0.017450608
0.017177594
0.016945622
0.016747747
0.016578401
0.016433073
0.016308076
0.016200375
0.016107454
0.016027215
0.015957894
0.015897999
0.015846256
0.015801564
0.015762965
0.015729621
0.0157008
0.015675864
0.015654263
0.015635527
0.015619253
0.015605103
0.042549123
0.035208903
0.030388248
0.027109544
0.024774739
0.023043222
0.021717431
0.02067719
0.019845495
0.019170646
0.018616559
0.018157232
0.017773436
0.017450632
0.017177626
0.016945662
0.016747797
0.016578463
0.016433147
0.016308162
0.016200471
0.016107556
0.016027313
0.015957973
0.015898039
0.015846228
0.015801436
0.015762704
0.015729197
0.015700191
0.015675058
0.015653256
0.015634324
0.015617868
0.015603549
0.042549121
0.035208897
0.030388242
0.027109539
0.024774734
0.023043219
0.021717429
0.020677191
0.019845498
0.019170653
0.018616569
0.018157248
0.017773457
0.01745066
0.017177663
0.016945708
0.016747855
0.016578533
0.016433231
0.01630826
0.01620058
0.016107672
0.016027426
0.015958071
0.015898101
0.01584623
0.015801352
0.015762507
0.015728866
0.015699709
0.015674417
0.015652458
0.015633373
0.015616774
0.015602326
0.042549118
0.035208891
0.030388236
0.027109533
0.024774729
0.023043216
0.021717428
0.020677192
0.019845502
0.019170661
0.018616582
0.018157266
0.017773482
0.017450693
0.017177705
0.016945761
0.01674792
0.016578613
0.016433326
0.01630837
0.016200704
0.016107803
0.016027558
0.015958189
0.015898188
0.015846266
0.015801313
0.015762375
0.015728623
0.015699345
0.015673928
0.015651844
0.015632641
0.015615932
0.015601384
0.042549116
0.035208886
0.03038823
0.027109527
0.024774724
0.023043212
0.021717427
0.020677194
0.019845508
0.019170671
0.018616597
0.018157287
0.017773511
0.017450731
0.017177753
0.016945822
0.016747995
0.016578704
0.016433433
0.016308494
0.016200843
0.016107952
0.016027709
0.01595833
0.015898303
0.015846337
0.015801323
0.015762307
0.015728466
0.015699091
0.015673575
0.015651394
0.015632099
0.015615305
0.01560068
0.042549113
0.035208879
0.030388223
0.027109521
0.02477472
0.02304321
0.021717427
0.020677197
0.019845515
0.019170682
0.018616615
0.018157312
0.017773544
0.017450774
0.017177808
0.016945891
0.01674808
0.016578806
0.016433555
0.016308634
0.016200999
0.016108121
0.016027881
0.015958495
0.015898448
0.015846446
0.015801382
0.015762303
0.015728391
0.01569894
0.015673347
0.01565109
0.015631725
0.015614865
0.01560018
0.042549111
0.035208873
0.030388217
0.027109515
0.024774715
0.023043207
0.021717427
0.020677201
0.019845524
0.019170697
0.018616636
0.018157341
0.017773582
0.017450823
0.017177871
0.016945969
0.016748176
0.016578921
0.016433691
0.01630879
0.016201174
0.01610831
0.016028077
0.015958687
0.015898625
0.015846595
0.015801491
0.015762363
0.015728394
0.015698884
0.015673231
0.015650917
0.015631496
0.015614587
0.015599856
0.042549108
0.035208867
0.03038821
0.027109508
0.02477471
0.023043205
0.021717428
0.020677206
0.019845534
0.019170713
0.01861666
0.018157374
0.017773626
0.01745088
0.017177942
0.016946058
0.016748284
0.016579051
0.016433843
0.016308965
0.01620137
0.016108521
0.016028297
0.015958908
0.015898835
0.015846784
0.01580165
0.015762483
0.015728472
0.015698916
0.015673217
0.015650859
0.015631397
0.015614449
0.015599684
0.042549106
0.03520886
0.030388203
0.027109502
0.024774706
0.023043203
0.021717431
0.020677213
0.019845547
0.019170733
0.018616688
0.018157412
0.017773676
0.017450944
0.017178023
0.016946158
0.016748406
0.016579196
0.016434013
0.01630916
0.016201587
0.016108757
0.016028545
0.015959159
0.01589908
0.015847015
0.015801858
0.015762663
0.015728619
0.01569903
0.015673297
0.015650905
0.015631412
0.015614436
0.015599645
0.042549103
0.035208854
0.030388196
0.027109496
0.024774702
0.023043203
0.021717434
0.020677222
0.019845562
0.019170756
0.01861672
0.018157456
0.017773734
0.017451018
0.017178115
0.016946271
0.016748543
0.016579359
0.016434202
0.016309376
0.016201827
0.016109018
0.01602882
0.015959441
0.015899362
0.015847288
0.015802115
0.0157629
0.015728833
0.015699219
0.01567346
0.015651044
0.015631529
0.015614531
0.01559972
0.042549101
0.035208848
0.030388189
0.02710949
0.024774698
0.023043203
0.021717439
0.020677233
0.01984558
0.019170783
0.018616758
0.018157506
0.017773799
0.0174511
0.017178219
0.016946398
0.016748695
0.01657954
0.016434412
0.016309615
0.016202093
0.016109306
0.016029125
0.015959756
0.01589968
0.015847602
0.015802421
0.015763192
0.015729109
0.015699477
0.015673701
0.015651268
0.015631735
0.015614722
0.015599897
0.042549099
0.035208842
0.030388183
0.027109485
0.024774695
0.023043204
0.021717445
0.020677246
0.019845601
0.019170814
0.018616801
0.018157563
0.017773873
0.017451194
0.017178335
0.01694654
0.016748866
0.016579741
0.016434645
0.016309878
0.016202385
0.016109622
0.016029461
0.015960105
0.015900035
0.015847958
0.015802773
0.015763537
0.015729444
0.0156998
0.015674012
0.015651567
0.015632023
0.015614998
0.015600164
0.042549097
0.035208837
0.030388177
0.02710948
0.024774693
0.023043206
0.021717453
0.020677261
0.019845626
0.01917085
0.01861685
0.018157629
0.017773957
0.0174513
0.017178466
0.016946699
0.016749055
0.016579963
0.016434901
0.016310167
0.016202704
0.016109968
0.016029828
0.015960488
0.015900428
0.015848356
0.015803171
0.015763932
0.015729833
0.015700183
0.015674388
0.015651935
0.015632383
0.015615351
0.01560051
0.042549096
0.035208832
0.030388171
0.027109475
0.024774692
0.023043209
0.021717463
0.02067728
0.019845655
0.019170891
0.018616907
0.018157703
0.017774052
0.017451419
0.017178612
0.016946875
0.016749266
0.016580208
0.016435182
0.016310483
0.016203052
0.016110345
0.016030228
0.015960906
0.015900859
0.015848795
0.015803613
0.015764375
0.015730275
0.015700622
0.015674822
0.015652365
0.015632809
0.015615772
0.015600927
0.042549094
0.035208828
0.030388166
0.027109471
0.024774691
0.023043214
0.021717476
0.020677302
0.019845688
0.019170939
0.018616971
0.018157787
0.017774159
0.017451552
0.017178775
0.016947072
0.016749498
0.016580478
0.016435489
0.016310827
0.01620343
0.016110753
0.016030661
0.015961359
0.015901327
0.015849273
0.015804098
0.015764864
0.015730765
0.015701112
0.015675312
0.015652852
0.015633294
0.015616255
0.015601407
0.042549094
0.035208824
0.030388161
0.027109468
0.024774692
0.023043221
0.021717491
0.020677328
0.019845727
0.019170993
0.018617044
0.018157881
0.017774279
0.017451701
0.017178957
0.016947289
0.016749754
0.016580774
0.016435825
0.016311201
0.016203839
0.016111193
0.016031128
0.015961847
0.015901831
0.01584979
0.015804625
0.015765396
0.015731302
0.015701651
0.015675851
0.015653392
0.015633833
0.015616794
0.015601945
0.042549094
0.035208822
0.030388158
0.027109466
0.024774694
0.02304323
0.02171751
0.020677358
0.019845772
0.019171056
0.018617127
0.018157988
0.017774413
0.017451868
0.017179159
0.01694753
0.016750035
0.016581096
0.016436189
0.016311605
0.01620428
0.016111666
0.016031628
0.01596237
0.015902373
0.015850346
0.015805191
0.01576597
0.015731881
0.015702234
0.015676437
0.01565398
0.015634422
0.015617384
0.015602535
0.042549094
0.035208821
0.030388155
0.027109466
0.024774698
0.023043242
0.021717532
0.020677393
0.019845823
0.019171126
0.01861722
0.018158108
0.017774564
0.017452053
0.017179382
0.016947794
0.016750342
0.016581448
0.016436583
0.01631204
0.016204752
0.016112171
0.016032162
0.015962928
0.01590295
0.015850938
0.015805795
0.015766583
0.015732501
0.01570286
0.015677067
0.015654612
0.015635057
0.01561802
0.015603172
0.042549095
0.035208822
0.030388154
0.027109466
0.024774704
0.023043256
0.021717558
0.020677434
0.019845882
0.019171206
0.018617325
0.018158243
0.017774732
0.017452258
0.017179628
0.016948084
0.016750677
0.016581828
0.016437008
0.016312507
0.016205257
0.01611271
0.01603273
0.01596352
0.015903561
0.015851565
0.015806435
0.015767234
0.01573316
0.015703524
0.015677736
0.015655286
0.015635733
0.015618698
0.015603852
0.042549098
0.035208824
0.030388154
0.027109468
0.024774712
0.023043274
0.021717588
0.020677481
0.019845949
0.019171297
0.018617444
0.018158393
0.017774919
0.017452485
0.017179898
0.0169484
0.016751041
0.01658224
0.016437465
0.016313006
0.016205795
0.016113282
0.016033331
0.015964145
0.015904207
0.015852227
0.015807111
0.01576792
0.015733855
0.015704226
0.015678443
0.015655997
0.015636448
0.015619416
0.015604572
0.042549101
0.035208828
0.030388156
0.027109472
0.024774723
0.023043295
0.021717624
0.020677535
0.019846025
0.019171399
0.018617577
0.018158561
0.017775126
0.017452735
0.017180195
0.016948745
0.016751435
0.016582682
0.016437954
0.016313537
0.016206365
0.016113886
0.016033964
0.015964803
0.015904885
0.015852922
0.015807819
0.01576864
0.015734583
0.015704962
0.015679185
0.015656744
0.015637199
0.01562017
0.015605329
0.042549104
0.035208834
0.03038816
0.027109478
0.024774736
0.02304332
0.021717665
0.020677596
0.019846111
0.019171514
0.018617725
0.018158747
0.017775354
0.017453009
0.017180518
0.016949119
0.01675186
0.016583156
0.016438475
0.016314101
0.016206968
0.016114522
0.016034629
0.015965492
0.015905595
0.015853649
0.01580856
0.015769392
0.015735344
0.01570573
0.01567996
0.015657523
0.015637982
0.015620957
0.015606119
0.042549109
0.035208842
0.030388165
0.027109487
0.024774753
0.02304335
0.021717713
0.020677666
0.019846208
0.019171643
0.01861789
0.018158953
0.017775605
0.01745331
0.01718087
0.016949523
0.016752316
0.016583663
0.016439028
0.016314698
0.016207602
0.01611519
0.016035325
0.015966212
0.015906335
0.015854406
0.01580933
0.015770173
0.015736135
0.015706529
0.015680765
0.015658333
0.015638796
0.015621775
0.015606939
0.042549115
0.035208851
0.030388173
0.027109497
0.024774773
0.023043385
0.021717767
0.020677746
0.019846317
0.019171787
0.018618073
0.018159181
0.017775881
0.017453637
0.017181251
0.016949958
0.016752804
0.016584201
0.016439614
0.016315326
0.016208268
0.016115888
0.016036051
0.015966962
0.015907104
0.015855191
0.015810129
0.015770983
0.015736954
0.015707356
0.015681598
0.015659172
0.015639639
0.015622621
0.015607788
0.042549122
0.035208863
0.030388182
0.02710951
0.024774796
0.023043425
0.021717829
0.020677835
0.019846439
0.019171947
0.018618276
0.018159431
0.017776183
0.017453992
0.017181662
0.016950425
0.016753324
0.016584772
0.016440232
0.016315986
0.016208964
0.016116616
0.016036806
0.01596774
0.015907901
0.015856004
0.015810955
0.01577182
0.0157378
0.015708209
0.015682457
0.015660036
0.015640508
0.015623493
0.015608664
0.04254913
0.035208877
0.030388193
0.027109526
0.024774824
0.023043471
0.0217179
0.020677936
0.019846576
0.019172124
0.0186185
0.018159705
0.017776511
0.017454377
0.017182104
0.016950923
0.016753877
0.016585375
0.016440881
0.016316675
0.01620969
0.016117373
0.016037589
0.015968544
0.015908723
0.015856842
0.015811805
0.015772681
0.01573867
0.015709086
0.01568334
0.015660924
0.0156414
0.015624389
0.015609563
0.042549139
0.035208892
0.030388206
0.027109544
0.024774856
0.023043523
0.02171798
0.020678049
0.019846728
0.019172321
0.018618746
0.018160005
0.017776867
0.017454792
0.017182577
0.016951454
0.016754462
0.01658601
0.016441561
0.016317395
0.016210444
0.016118156
0.016038398
0.015969374
0.015909571
0.015857704
0.01581268
0.015773566
0.015739563
0.015709986
0.015684246
0.015661835
0.015642315
0.015625307
0.015610484
0.042549147
0.035208906
0.030388219
0.027109564
0.024774892
0.023043583
0.02171807
0.020678176
0.019846897
0.019172538
0.018619016
0.018160332
0.017777254
0.017455239
0.017183083
0.016952017
0.016755079
0.016586677
0.016442272
0.016318145
0.016211227
0.016118968
0.016039233
0.01597023
0.015910443
0.01585859
0.015813578
0.015774473
0.015740478
0.015710908
0.015685174
0.015662768
0.015643252
0.015626248
0.015611427
0.042549154
0.03520892
0.030388233
0.027109589
0.024774936
0.023043655
0.021718176
0.020678322
0.019847091
0.019172783
0.018619318
0.018160693
0.017777676
0.017455723
0.017183628
0.016952619
0.016755734
0.01658738
0.016443018
0.016318928
0.016212042
0.01611981
0.016040098
0.015971114
0.015911343
0.015859503
0.015814502
0.015775407
0.01574142
0.015711856
0.015686127
0.015663725
0.015644213
0.015627212
0.015612394
0.042549158
0.035208932
0.030388256
0.02710963
0.024775002
0.023043753
0.021718312
0.020678503
0.019847321
0.019173069
0.018619662
0.018161099
0.017778145
0.017456255
0.01718422
0.016953268
0.016756435
0.016588127
0.016443806
0.016319751
0.016212896
0.016120689
0.016040999
0.015972033
0.015912277
0.01586045
0.015815459
0.015776372
0.015742392
0.015712834
0.015687111
0.015664713
0.015645205
0.015628206
0.015613391
0.042549158
0.035208936
0.030388271
0.027109665
0.024775066
0.023043853
0.021718455
0.020678695
0.019847568
0.019173374
0.01862003
0.018161532
0.017778643
0.017456816
0.017184842
0.016953946
0.016757164
0.016588902
0.016444619
0.016320599
0.016213772
0.01612159
0.01604192
0.015972971
0.01591323
0.015861414
0.015816433
0.015777354
0.015743381
0.015713829
0.01568811
0.015665717
0.015646212
0.015629216
0.015614404
0.042549155
0.035208937
0.030388286
0.027109701
0.024775134
0.02304396
0.021718609
0.020678902
0.019847833
0.019173702
0.018620423
0.018161992
0.017779169
0.017457406
0.017185491
0.016954651
0.016757918
0.0165897
0.016445455
0.016321467
0.016214668
0.016122509
0.016042858
0.015973924
0.015914197
0.015862392
0.01581742
0.015778349
0.015744383
0.015714836
0.015689121
0.015666732
0.01564723
0.015630237
0.015615427
0.042549153
0.035208947
0.03038832
0.027109764
0.024775234
0.023044105
0.021718804
0.020679154
0.019848146
0.01917408
0.018620869
0.018162505
0.017779749
0.017458048
0.017186193
0.016955405
0.01675872
0.016590543
0.016446334
0.016322376
0.016215603
0.016123465
0.016043831
0.015974913
0.015915197
0.015863403
0.015818439
0.015779376
0.015745415
0.015715873
0.015690163
0.015667777
0.015648278
0.015631288
0.01561648
0.042549152
0.035208962
0.030388365
0.027109847
0.024775361
0.023044282
0.021719037
0.020679447
0.019848504
0.019174506
0.018621364
0.018163069
0.017780379
0.017458741
0.017186943
0.016956207
0.016759567
0.016591429
0.016447254
0.016323324
0.016216575
0.016124456
0.01604484
0.015975935
0.01591623
0.015864446
0.01581949
0.015780433
0.015746477
0.01571694
0.015691234
0.015668851
0.015649354
0.015632367
0.015617561
0.042549152
0.035208978
0.030388416
0.027109939
0.0247755
0.023044475
0.021719291
0.020679766
0.019848891
0.019174964
0.018621893
0.018163667
0.017781043
0.017459467
0.017187724
0.016957038
0.016760442
0.016592341
0.016448197
0.016324294
0.016217567
0.016125467
0.016045865
0.015976973
0.01591728
0.015865503
0.015820555
0.015781504
0.015747553
0.015718021
0.015692317
0.015669938
0.015650444
0.015633458
0.015618654
0.042549152
0.035208997
0.03038847
0.027110038
0.024775651
0.023044685
0.021719564
0.020680107
0.019849304
0.019175449
0.01862245
0.018164293
0.017781735
0.017460218
0.01718853
0.016957891
0.016761335
0.01659327
0.016449155
0.016325277
0.01621857
0.016126487
0.0160469
0.015978019
0.015918335
0.015866567
0.015821625
0.015782579
0.015748634
0.015719105
0.015693405
0.015671028
0.015651537
0.015634553
0.01561975
0.042549153
0.035209018
0.030388529
0.027110145
0.024775814
0.023044909
0.021719856
0.02068047
0.019849741
0.01917596
0.018623032
0.018164945
0.01778245
0.017460992
0.017189355
0.016958761
0.016762244
0.016594211
0.016450124
0.016326268
0.01621958
0.016127513
0.016047939
0.015979069
0.015919393
0.015867632
0.015822696
0.015783656
0.015749714
0.015720189
0.015694492
0.015672117
0.015652628
0.015635646
0.015620845
0.042549154
0.035209041
0.030388594
0.027110261
0.024775989
0.02304515
0.021720167
0.020680855
0.019850201
0.019176494
0.018623639
0.018165619
0.017783187
0.017461784
0.017190196
0.016959644
0.016763163
0.01659516
0.016451099
0.016327264
0.016220593
0.01612854
0.016048977
0.015980117
0.01592045
0.015868695
0.015823765
0.015784729
0.015750791
0.015721269
0.015695574
0.015673202
0.015653715
0.015636734
0.015621934
0.042549157
0.035209067
0.030388663
0.027110385
0.024776175
0.023045406
0.021720496
0.02068126
0.019850682
0.019177051
0.018624267
0.018166313
0.01778394
0.017462591
0.017191049
0.016960537
0.016764089
0.016596114
0.016452075
0.01632826
0.016221605
0.016129564
0.016050012
0.015981161
0.0159215
0.015869752
0.015824826
0.015785794
0.01575186
0.01572234
0.015696648
0.015674278
0.015654792
0.015637813
0.015623015
0.042549159
0.035209095
0.030388737
0.027110517
0.024776374
0.023045676
0.021720842
0.020681684
0.019851183
0.019177626
0.018624912
0.018167022
0.017784707
0.017463407
0.017191909
0.016961433
0.016765016
0.016597067
0.016453049
0.016329251
0.016222609
0.016130581
0.016051038
0.015982194
0.01592254
0.015870797
0.015825875
0.015786847
0.015752916
0.015723398
0.015697709
0.01567534
0.015655856
0.015638878
0.01562408
0.042549163
0.035209126
0.030388815
0.027110656
0.024776582
0.02304596
0.021721204
0.020682124
0.0198517
0.019178216
0.01862557
0.018167742
0.017785481
0.017464229
0.01719277
0.016962328
0.016765939
0.016598013
0.016454014
0.016330231
0.016223603
0.016131584
0.01605205
0.015983213
0.015923564
0.015871825
0.015826908
0.015787882
0.015753954
0.015724439
0.015698751
0.015676383
0.0156569
0.015639924
0.015625127
0.042549167
0.035209159
0.030388898
0.027110803
0.024776801
0.023046255
0.021721579
0.020682578
0.01985223
0.019178818
0.018626237
0.018168467
0.017786257
0.017465049
0.017193627
0.016963216
0.016766852
0.016598947
0.016454965
0.016331196
0.016224578
0.016132569
0.016053042
0.015984211
0.015924567
0.015872832
0.015827918
0.015788895
0.015754969
0.015725456
0.015699769
0.015677403
0.015657921
0.015640946
0.015626149
0.042549171
0.035209193
0.030388984
0.027110955
0.024777028
0.02304656
0.021721964
0.020683041
0.019852768
0.019179425
0.018626907
0.018169192
0.01778703
0.017465862
0.017194474
0.016964091
0.01676775
0.016599863
0.016455896
0.016332139
0.016225531
0.01613353
0.016054009
0.015985183
0.015925544
0.015873812
0.015828901
0.01578988
0.015755955
0.015726444
0.015700759
0.015678394
0.015658913
0.015641938
0.015627142
0.042549176
0.035209229
0.030389074
0.027111113
0.024777261
0.023046873
0.021722356
0.020683511
0.019853311
0.019180034
0.018627575
0.018169912
0.017787793
0.017466662
0.017195305
0.016964946
0.016768626
0.016600755
0.016456801
0.016333055
0.016226456
0.016134461
0.016054946
0.015986124
0.015926488
0.015874759
0.01582985
0.015790832
0.015756908
0.015727398
0.015701714
0.01567935
0.015659869
0.015642895
0.0156281
0.042549181
0.035209266
0.030389166
0.027111275
0.024777499
0.023047191
0.021722752
0.020683983
0.019853852
0.019180638
0.018628235
0.018170619
0.017788541
0.017467443
0.017196113
0.016965777
0.016769474
0.016601618