/*--------------------------------*- C++ -*----------------------------------*\
  =========                 |
  \\      /  F ield         | OpenFOAM: The Open Source CFD Toolbox
   \\    /   O peration     | Website:  https://openfoam.org
    \\  /    A nd           | Version:  12
     \\/     M anipulation  |
\*---------------------------------------------------------------------------*/
FoamFile
{
    format      ascii;
    class       surfaceScalarField;
    location    "2000";
    object      phi;
}
// * * * * * * * * * * * * * * * * * * * * * * * * * * * * * * * * * * * * * //

dimensions      [0 3 -1 0 0 0 0];

internalField   nonuniform List<scalar> 
132610
(
1.0983064e-05
6.6910271e-10
1.0981117e-05
1.9475685e-09
1.0977946e-05
3.170571e-09
1.0973757e-05
4.1895866e-09
1.0968702e-05
5.0543355e-09
1.0962862e-05
5.8406247e-09
1.0956264e-05
6.598178e-09
1.0948913e-05
7.3508625e-09
1.0940796e-05
8.1166548e-09
1.0931885e-05
8.9106025e-09
1.092214e-05
9.745333e-09
1.0911507e-05
1.0632657e-08
1.0899923e-05
1.158474e-08
1.0887308e-05
1.2614809e-08
1.087357e-05
1.3737785e-08
1.0858599e-05
1.4971076e-08
1.0842263e-05
1.6335565e-08
1.0824407e-05
1.7856798e-08
1.080484e-05
1.9566852e-08
1.0783334e-05
2.1506251e-08
1.0759605e-05
2.3728483e-08
1.0733303e-05
2.63023e-08
1.0703977e-05
2.9326101e-08
1.0671054e-05
3.2923087e-08
1.063375e-05
3.7303102e-08
1.0591063e-05
4.2687841e-08
1.0541414e-05
4.9648474e-08
1.0482929e-05
5.8484844e-08
1.0411508e-05
7.1421612e-08
1.0323787e-05
8.7720458e-08
1.0203648e-05
1.2013916e-07
1.0047738e-05
1.5590971e-07
9.7528849e-06
2.9485343e-07
9.291742e-06
4.6114292e-07
1.9722155e-06
7.3195265e-06
1.165937e-05
1.3818045e-09
1.1657305e-05
4.0118225e-09
1.1653939e-05
6.5369113e-09
1.1649492e-05
8.6369655e-09
1.1644126e-05
1.0419591e-08
1.1637926e-05
1.2040654e-08
1.1630922e-05
1.3602383e-08
1.1623119e-05
1.5153989e-08
1.1614503e-05
1.6732641e-08
1.1605044e-05
1.8369304e-08
1.15947e-05
2.0090014e-08
1.1583413e-05
2.1919081e-08
1.1571117e-05
2.3881603e-08
1.1557727e-05
2.6004795e-08
1.1543145e-05
2.83194e-08
1.1527255e-05
3.0861244e-08
1.1509917e-05
3.3673315e-08
1.1490966e-05
3.6808155e-08
1.1470201e-05
4.0331718e-08
1.144738e-05
4.432731e-08
1.1422204e-05
4.8904693e-08
1.1394301e-05
5.4205143e-08
1.1363197e-05
6.042973e-08
1.1328288e-05
6.7832184e-08
1.1288755e-05
7.6836438e-08
1.1243536e-05
8.7906945e-08
1.1191019e-05
1.0216514e-07
1.1129181e-05
1.2032222e-07
1.1054091e-05
1.4651167e-07
1.0961634e-05
1.8017765e-07
1.0838555e-05
2.4321792e-07
1.0676141e-05
3.1832468e-07
1.0415106e-05
5.5588821e-07
1.0021325e-05
8.5492375e-07
2.3897667e-06
9.6037737e-06
1.2377322e-05
2.1393076e-09
1.2375131e-05
6.2023629e-09
1.2371557e-05
1.0110612e-08
1.2366836e-05
1.3358094e-08
1.2361141e-05
1.6115062e-08
1.2354559e-05
1.8622296e-08
1.2347124e-05
2.1037667e-08
1.233884e-05
2.343738e-08
1.2329694e-05
2.5878882e-08
1.2319653e-05
2.8410067e-08
1.2308672e-05
3.1071161e-08
1.2296692e-05
3.3899787e-08
1.2283639e-05
3.6934699e-08
1.2269425e-05
4.021796e-08
1.2253948e-05
4.3797049e-08
1.2237082e-05
4.7727264e-08
1.221868e-05
5.2074956e-08
1.2198567e-05
5.6921166e-08
1.2176531e-05
6.2367542e-08
1.2152316e-05
6.8542407e-08
1.2125606e-05
7.5614583e-08
1.209601e-05
8.380132e-08
1.2063029e-05
9.34106e-08
1.2026029e-05
1.0483218e-07
1.1984156e-05
1.1870929e-07
1.1936304e-05
1.357591e-07
1.1880825e-05
1.5764449e-07
1.1815619e-05
1.8552757e-07
1.1736896e-05
2.252347e-07
1.1640249e-05
2.7682541e-07
1.1515109e-05
3.6835775e-07
1.1350266e-05
4.8316794e-07
1.1124172e-05
7.8198204e-07
1.0821968e-05
1.1571271e-06
2.393434e-06
1.0818301e-05
1.3139483e-05
2.944783e-09
1.3137158e-05
8.5267982e-09
1.3133364e-05
1.3904424e-08
1.3128353e-05
1.8369753e-08
1.3122307e-05
2.216101e-08
1.311532e-05
2.560904e-08
1.3107427e-05
2.893058e-08
1.3098634e-05
3.223051e-08
1.3088925e-05
3.5587893e-08
1.3078267e-05
3.9068538e-08
1.306661e-05
4.2727724e-08
1.3053893e-05
4.6617166e-08
1.3040037e-05
5.0790101e-08
1.3024951e-05
5.5304278e-08
1.3008523e-05
6.022488e-08
1.2990623e-05
6.5627762e-08
1.2971094e-05
7.160389e-08
1.2949751e-05
7.8264303e-08
1.292637e-05
8.5748096e-08
1.2900682e-05
9.4230737e-08
1.2872354e-05
1.0394263e-07
1.2840975e-05
1.1518e-07
1.2806025e-05
1.28361e-07
1.2766841e-05
1.4401536e-07
1.2722544e-05
1.6300687e-07
1.2671992e-05
1.863105e-07
1.2613534e-05
2.1610249e-07
1.2545041e-05
2.5402111e-07
1.2463015e-05
3.0726075e-07
1.2362994e-05
3.7684589e-07
1.2237748e-05
4.9360401e-07
1.2075886e-05
6.450305e-07
1.1884721e-05
9.7314698e-07
1.1661772e-05
1.3800761e-06
2.3105489e-06
1.1744657e-05
1.3948575e-05
3.8015512e-09
1.3946109e-05
1.0993323e-08
1.3942081e-05
1.7931882e-08
1.3936761e-05
2.3689741e-08
1.3930343e-05
2.8578943e-08
1.3922927e-05
3.3025723e-08
1.3914548e-05
3.7309142e-08
1.3905214e-05
4.156464e-08
1.3894908e-05
4.5894154e-08
1.3883594e-05
5.0382514e-08
1.3871221e-05
5.5100953e-08
1.3857722e-05
6.0116115e-08
1.3843015e-05
6.549656e-08
1.3827003e-05
7.1316604e-08
1.3809568e-05
7.7660098e-08
1.3790571e-05
8.462456e-08
1.3769848e-05
9.2326822e-08
1.3747203e-05
1.0090934e-07
1.3722401e-05
1.1055036e-07
1.3695157e-05
1.2147438e-07
1.3665124e-05
1.3397553e-07
1.3631873e-05
1.4843129e-07
1.3594862e-05
1.653719e-07
1.3553408e-05
1.8546879e-07
1.3506613e-05
2.098024e-07
1.345332e-05
2.3960342e-07
1.3391911e-05
2.7751191e-07
1.3320293e-05
3.256389e-07
1.3235409e-05
3.9214418e-07
1.313314e-05
4.7911521e-07
1.3009565e-05
6.1717892e-07
1.2856556e-05
7.9803937e-07
1.2697029e-05
1.1326742e-06
1.2538834e-05
1.5382712e-06
2.2296314e-06
1.2619751e-05
1.4807489e-05
4.7132151e-09
1.4804872e-05
1.3610523e-08
1.4800596e-05
2.2207345e-08
1.4794949e-05
2.9336961e-08
1.4788136e-05
3.5391694e-08
1.4780264e-05
4.0898675e-08
1.477137e-05
4.6203166e-08
1.4761461e-05
5.1472903e-08
1.4750521e-05
5.6834206e-08
1.4738512e-05
6.2392052e-08
1.4725378e-05
6.8234572e-08
1.471105e-05
7.4444191e-08
1.4695441e-05
8.1105645e-08
1.4678447e-05
8.8310773e-08
1.4659944e-05
9.6163053e-08
1.4639786e-05
1.0478276e-07
1.4617799e-05
1.1431379e-07
1.4593777e-05
1.2493138e-07
1.4567472e-05
1.3685442e-07
1.4538589e-05
1.5035806e-07
1.4506763e-05
1.6580167e-07
1.4471549e-05
1.836454e-07
1.4432389e-05
2.0453154e-07
1.4388586e-05
2.2927203e-07
1.4339234e-05
2.5915364e-07
1.4283187e-05
2.95651e-07
1.4218903e-05
3.4179546e-07
1.4144415e-05
4.0012697e-07
1.4057243e-05
4.7931627e-07
1.3954026e-05
5.8233257e-07
1.3833978e-05
7.3722642e-07
1.3693767e-05
9.3825113e-07
1.3563433e-05
1.2630076e-06
1.3460207e-05
1.6414975e-06
2.1504006e-06
1.3539438e-05
1.5719292e-05
5.6836794e-09
1.5716515e-05
1.6387605e-08
1.5711976e-05
2.6746114e-08
1.5705982e-05
3.5331461e-08
1.569875e-05
4.2623378e-08
1.5690393e-05
4.9255879e-08
1.5680952e-05
5.5644178e-08
1.5670434e-05
6.199046e-08
1.5658822e-05
6.844683e-08
1.5646074e-05
7.5139613e-08
1.5632134e-05
8.2174859e-08
1.5616926e-05
8.9651689e-08
1.560036e-05
9.7671907e-08
1.5582325e-05
1.0634578e-07
1.5562691e-05
1.1579739e-07
1.5541303e-05
1.2617084e-07
1.5517978e-05
1.3763822e-07
1.5492501e-05
1.5040879e-07
1.5464612e-05
1.6474331e-07
1.5434001e-05
1.8096876e-07
1.5400292e-05
1.9951055e-07
1.5363026e-05
2.2091152e-07
1.5321634e-05
2.4592368e-07
1.5275412e-05
2.7549437e-07
1.5223467e-05
3.1109875e-07
1.5164686e-05
3.5443126e-07
1.5097664e-05
4.088183e-07
1.5020654e-05
4.7713652e-07
1.4931886e-05
5.6808438e-07
1.4829117e-05
6.8510126e-07
1.4714434e-05
8.5190951e-07
1.4589347e-05
1.0633384e-06
1.4485684e-05
1.3666704e-06
1.4426178e-05
1.7010032e-06
2.0701711e-06
1.4506408e-05
1.6687241e-05
6.7171389e-09
1.6684294e-05
1.9334152e-08
1.6679476e-05
3.1564432e-08
1.6673113e-05
4.1694526e-08
1.6665437e-05
5.0299735e-08
1.6656565e-05
5.8127024e-08
1.6646544e-05
6.566575e-08
1.663538e-05
7.315457e-08
1.6623053e-05
8.0773066e-08
1.6609523e-05
8.8670161e-08
1.6594727e-05
9.6970851e-08
1.6578587e-05
1.0579185e-07
1.6561006e-05
1.1525297e-07
1.6541868e-05
1.2548384e-07
1.6521035e-05
1.3663011e-07
1.6498345e-05
1.4886069e-07
1.6473606e-05
1.6237693e-07
1.6446592e-05
1.7742312e-07
1.6417033e-05
1.9430278e-07
1.6384606e-05
2.1339529e-07
1.6348925e-05
2.351919e-07
1.630952e-05
2.6031646e-07
1.6265818e-05
2.8962541e-07
1.6217121e-05
3.2419151e-07
1.6162568e-05
3.6565152e-07
1.6101119e-05
4.1588067e-07
1.6031556e-05
4.7838067e-07
1.5952471e-05
5.5622168e-07
1.5862914e-05
6.5764184e-07
1.5762024e-05
7.8599119e-07
1.565438e-05
9.5955293e-07
1.5545645e-05
1.1720738e-06
1.546617e-05
1.4461452e-06
1.5438979e-05
1.7281945e-06
1.9898554e-06
1.5519295e-05
1.7714793e-05
7.8182027e-09
1.7711666e-05
2.2460463e-08
1.7706551e-05
3.6679599e-08
1.7699797e-05
4.8448706e-08
1.7691649e-05
5.8447864e-08
1.7682232e-05
6.7543565e-08
1.7671595e-05
7.6303319e-08
1.7659744e-05
8.5004733e-08
1.7646661e-05
9.3856431e-08
1.76323e-05
1.0303133e-07
1.7616596e-05
1.1267441e-07
1.7599467e-05
1.2292095e-07
1.7580811e-05
1.3390972e-07
1.7560504e-05
1.4579058e-07
1.7538402e-05
1.587317e-07
1.7514335e-05
1.7292772e-07
1.7488102e-05
1.8861011e-07
1.7459466e-05
2.0605893e-07
1.7428148e-05
2.2562092e-07
1.7393816e-05
2.4772764e-07
1.7356073e-05
2.7293461e-07
1.7314447e-05
3.0194299e-07
1.7268367e-05
3.3570462e-07
1.7217157e-05
3.7540187e-07
1.7160012e-05
4.2279613e-07
1.7096005e-05
4.7988764e-07
1.7024174e-05
5.5021154e-07
1.6943555e-05
6.3684086e-07
1.685411e-05
7.4708713e-07
1.6756501e-05
8.8359999e-07
1.6657321e-05
1.058733e-06
1.6565288e-05
1.2641072e-06
1.6507346e-05
1.5040874e-06
1.6503565e-05
1.7319753e-06
1.9101343e-06
1.6583286e-05
1.8805617e-05
8.9917403e-09
1.88023e-05
2.5777415e-08
1.879687e-05
4.2109909e-08
1.8789701e-05
5.5617957e-08
1.8781052e-05
6.7096711e-08
1.8771057e-05
7.7538848e-08
1.8759766e-05
8.7594575e-08
1.8747188e-05
9.7582798e-08
1.8733301e-05
1.0774303e-07
1.8718059e-05
1.1827355e-07
1.8701393e-05
1.2934039e-07
1.8683215e-05
1.4109846e-07
1.8663419e-05
1.5370634e-07
1.8641874e-05
1.6733507e-07
1.861843e-05
1.8217616e-07
1.8592907e-05
1.984508e-07
1.8565096e-05
2.1642121e-07
1.8534751e-05
2.364036e-07
1.8501584e-05
2.5878773e-07
1.8465255e-05
2.8405618e-07
1.8425365e-05
3.1282553e-07
1.838144e-05
3.4586785e-07
1.8332927e-05
3.8421702e-07
1.8279187e-05
4.291422e-07
1.8219502e-05
4.8248153e-07
1.8153103e-05
5.4628618e-07
1.8079351e-05
6.2396397e-07
1.7997829e-05
7.1836258e-07
1.7909465e-05
8.3545083e-07
1.7816453e-05
9.7661246e-07
1.7726851e-05
1.1483346e-06
1.7651185e-05
1.3397735e-06
1.7612035e-05
1.5432373e-06
1.7625033e-05
1.7189773e-06
1.8319303e-06
1.7703237e-05
1.9963611e-05
1.0243082e-08
1.9960092e-05
2.9296382e-08
1.9954327e-05
4.7874982e-08
1.9946718e-05
6.3227656e-08
1.9937538e-05
7.6276858e-08
1.9926928e-05
8.8148238e-08
1.9914943e-05
9.9579346e-08
1.9901593e-05
1.1093311e-07
1.9886854e-05
1.2248168e-07
1.9870678e-05
1.3445013e-07
1.9852991e-05
1.470268e-07
1.9833703e-05
1.6038717e-07
1.9812699e-05
1.7471054e-07
1.9789844e-05
1.9018999e-07
1.9764979e-05
2.0704112e-07
1.9737917e-05
2.2551227e-07
1.9708442e-05
2.4589679e-07
1.9676298e-05
2.6854695e-07
1.9641191e-05
2.9389452e-07
1.9602777e-05
3.2247065e-07
1.9560655e-05
3.5494778e-07
1.9514363e-05
3.9215929e-07
1.9463378e-05
4.3520265e-07
1.9407117e-05
4.8540299e-07
1.9344983e-05
5.4461555e-07
1.9276419e-05
6.1485029e-07
1.920117e-05
6.9921305e-07
1.9119456e-05
8.0007674e-07
1.9033177e-05
9.217291e-07
1.8945938e-05
1.0638517e-06
1.8866688e-05
1.2275842e-06
1.8806563e-05
1.3998993e-06
1.8783494e-05
1.5663059e-06
1.8808297e-05
1.6941739e-06
1.756042e-06
1.8884186e-05
2.1192911e-05
1.1578074e-08
2.1189178e-05
3.3029534e-08
2.1183057e-05
5.3995529e-08
2.117498e-05
7.1304808e-08
2.1165236e-05
8.6020773e-08
2.1153975e-05
9.9409242e-08
2.1141254e-05
1.123e-07
2.1127085e-05
1.2510264e-07
2.1111443e-05
1.3812405e-07
2.1094275e-05
1.5161755e-07
2.1075507e-05
1.6579498e-07
2.1055041e-05
1.8085336e-07
2.1032758e-05
1.9699362e-07
2.1008516e-05
2.1443165e-07
2.0982149e-05
2.3340777e-07
2.0953464e-05
2.5419785e-07
2.0922234e-05
2.7712635e-07
2.08882e-05
3.0258082e-07
2.0851062e-05
3.3103312e-07
2.0810474e-05
3.6305895e-07
2.0766042e-05
3.9937893e-07
2.0717327e-05
4.4087438e-07
2.0663848e-05
4.8868202e-07
2.0605108e-05
5.4414329e-07
2.0540664e-05
6.0905918e-07
2.0470225e-05
6.8528952e-07
2.0393981e-05
7.7545703e-07
2.0312847e-05
8.8121019e-07
2.0229655e-05
1.0049214e-06
2.0149186e-05
1.1443212e-06
2.0080713e-05
1.2960572e-06
2.003497e-05
1.4456416e-06
2.0025396e-05
1.5758806e-06
2.0058324e-05
1.6612454e-06
1.6830257e-06
2.013134e-05
2.2497906e-05
1.3002904e-08
2.2493946e-05
3.6989444e-08
2.2487448e-05
6.0493746e-08
2.2478875e-05
7.9878081e-08
2.2468533e-05
9.6362808e-08
2.245658e-05
1.1136158e-07
2.2443079e-05
1.2580127e-07
2.242804e-05
1.4014118e-07
2.241144e-05
1.5472483e-07
2.2393222e-05
1.6983547e-07
2.2373307e-05
1.8570964e-07
2.2351594e-05
2.0256683e-07
2.2327957e-05
2.2063055e-07
2.2302248e-05
2.4014006e-07
2.2274295e-05
2.613609e-07
2.2243896e-05
2.845965e-07
2.2210821e-05
3.1020191e-07
2.2174803e-05
3.3859847e-07
2.2135541e-05
3.7029492e-07
2.2092695e-05
4.059056e-07
2.2045885e-05
4.4618874e-07
2.1994704e-05
4.9205574e-07
2.1938734e-05
5.4465177e-07
2.1877592e-05
6.052855e-07
2.181103e-05
6.7562115e-07
2.1739073e-05
7.5724624e-07
2.1662407e-05
8.5212273e-07
2.1582669e-05
9.6094813e-07
2.1503522e-05
1.0840685e-06
2.143061e-05
1.2172333e-06
2.1373007e-05
1.3536607e-06
2.1340292e-05
1.4783568e-06
2.1341825e-05
1.5743468e-06
2.1380191e-05
1.6228797e-06
1.613225e-06
2.1449992e-05
2.3883258e-05
1.4524287e-08
2.3879058e-05
4.1189594e-08
2.3872159e-05
6.7393125e-08
2.3863059e-05
8.8977878e-08
2.3852082e-05
1.0733952e-07
2.3839396e-05
1.2404739e-07
2.3825067e-05
1.4013066e-07
2.3809107e-05
1.5610134e-07
2.379149e-05
1.7234185e-07
2.3772158e-05
1.8916695e-07
2.3751029e-05
2.0683903e-07
2.3727995e-05
2.2560118e-07
2.3702925e-05
2.4570008e-07
2.3675666e-05
2.6739899e-07
2.3646038e-05
2.909888e-07
2.3613834e-05
3.1680021e-07
2.3578819e-05
3.4521768e-07
2.3540723e-05
3.7669387e-07
2.3499249e-05
4.1176968e-07
2.3454064e-05
4.5108995e-07
2.3404816e-05
4.9543647e-07
2.3351144e-05
5.4572792e-07
2.3292716e-05
6.0307998e-07
2.3229292e-05
6.6870998e-07
2.3160859e-05
7.4405342e-07
2.308781e-05
8.3029538e-07
2.3011358e-05
9.2857459e-07
2.2933847e-05
1.0384598e-06
2.2859623e-05
1.1582918e-06
2.2794832e-05
1.2820242e-06
2.2747899e-05
1.4005946e-06
2.2726762e-05
1.4994936e-06
2.2737271e-05
1.5638379e-06
2.2779117e-05
1.5810331e-06
1.5468009e-06
2.2845541e-05
2.5353915e-05
1.6149635e-08
2.5349461e-05
4.5643834e-08
2.5342135e-05
7.4718769e-08
2.5332477e-05
9.8636326e-08
2.5320827e-05
1.1898956e-07
2.5307363e-05
1.3751138e-07
2.5292155e-05
1.5533843e-07
2.5275217e-05
1.7303887e-07
2.5256523e-05
1.9103627e-07
2.5236011e-05
2.0967856e-07
2.5213595e-05
2.2925521e-07
2.5189163e-05
2.5003378e-07
2.5162578e-05
2.7228483e-07
2.5133681e-05
2.962959e-07
2.5102287e-05
3.2238313e-07
2.5068183e-05
3.5090365e-07
2.5031131e-05
3.8226942e-07
2.4990865e-05
4.1696069e-07
2.494709e-05
4.5554408e-07
2.4899496e-05
4.9868401e-07
2.4847765e-05
5.4716794e-07
2.4791599e-05
6.0189334e-07
2.4730778e-05
6.6390125e-07
2.4665238e-05
7.3425006e-07
2.4595243e-05
8.1404787e-07
2.4521592e-05
9.0394701e-07
2.4446038e-05
1.0041286e-06
2.4371572e-05
1.1129254e-06
2.4303038e-05
1.2268266e-06
2.4246704e-05
1.3383578e-06
2.4209996e-05
1.4373027e-06
2.4198977e-05
1.5105128e-06
2.4216602e-05
1.5462125e-06
2.4260508e-05
1.5371274e-06
1.4837709e-06
2.4323538e-05
2.6915129e-05
1.7886975e-08
2.6910406e-05
5.0366958e-08
2.6902628e-05
8.2497229e-08
2.6892377e-05
1.0888773e-07
2.6880012e-05
1.3135402e-07
2.6865723e-05
1.5180078e-07
2.6849583e-05
1.7147773e-07
2.683161e-05
1.9101274e-07
2.6811773e-05
2.1087275e-07
2.6790011e-05
2.3144054e-07
2.6766232e-05
2.5303399e-07
2.674032e-05
2.759459e-07
2.6712134e-05
3.0047124e-07
2.6681508e-05
3.2692191e-07
2.6648252e-05
3.5563872e-07
2.6612152e-05
3.8700383e-07
2.6572968e-05
4.2145375e-07
2.6530437e-05
4.5949124e-07
2.6484281e-05
5.0169995e-07
2.6434215e-05
5.4874997e-07
2.6379971e-05
6.01412e-07
2.6321337e-05
6.6052793e-07
2.6258226e-05
7.2701168e-07
2.6190789e-05
8.0168749e-07
2.6119602e-05
8.8523483e-07
2.6045897e-05
9.7765219e-07
2.5971955e-05
1.0780701e-06
2.5901317e-05
1.1835639e-06
2.5839096e-05
1.2890476e-06
2.5791337e-05
1.3861167e-06
2.5764223e-05
1.4644167e-06
2.5761908e-05
1.5128278e-06
2.5785066e-05
1.5230538e-06
2.583e-05
1.4921934e-06
1.4240544e-06
2.5889717e-05
2.8572477e-05
1.9744995e-08
2.856747e-05
5.5374198e-08
2.8559211e-05
9.0756879e-08
2.854833e-05
1.197683e-07
2.8535208e-05
1.4447624e-07
2.8520043e-05
1.6696571e-07
2.8502916e-05
1.8860496e-07
2.8483843e-05
2.1008528e-07
2.8462796e-05
2.3191947e-07
2.843971e-05
2.5452698e-07
2.8414489e-05
2.7825516e-07
2.8387012e-05
3.034228e-07
2.8357134e-05
3.3034962e-07
2.8324684e-05
3.5937161e-07
2.8289469e-05
3.9085327e-07
2.8251274e-05
4.2519944e-07
2.820986e-05
4.6286722e-07
2.8164977e-05
5.0437496e-07
2.8116364e-05
5.5031225e-07
2.8063777e-05
6.0133724e-07
2.8007012e-05
6.5817674e-07
2.7945964e-05
7.2157641e-07
2.7880711e-05
7.9226393e-07
2.781165e-05
8.7074893e-07
2.7739701e-05
9.5718396e-07
2.7666541e-05
1.0508123e-06
2.7594937e-05
1.1496743e-06
2.7528839e-05
1.249661e-06
2.74734e-05
1.3444868e-06
2.7434134e-05
1.4253826e-06
2.7415851e-05
1.4827001e-06
2.7420914e-05
1.5077647e-06
2.7448282e-05
1.4956859e-06
2.74935e-05
1.4469752e-06
1.3675119e-06
2.7550043e-05
3.0331878e-05
2.1733214e-08
3.0326571e-05
6.0681599e-08
3.03178e-05
9.9527775e-08
3.0306252e-05
1.313165e-07
3.0292326e-05
1.5840234e-07
3.0276232e-05
1.8305919e-07
3.0258058e-05
2.0677971e-07
3.0237821e-05
2.3032233e-07
3.0215492e-05
2.542485e-07
3.0191003e-05
2.790159e-07
3.0164255e-05
3.0500252e-07
3.0135124e-05
3.3255377e-07
3.010346e-05
3.620141e-07
3.0069089e-05
3.9374296e-07
3.0031815e-05
4.2812689e-07
2.9991424e-05
4.6559024e-07
2.9947686e-05
5.0660517e-07
2.9900364e-05
5.5169679e-07
2.984923e-05
6.0144656e-07
2.9794088e-05
6.5647919e-07
2.973482e-05
7.1744528e-07
2.9671449e-05
7.8494753e-07
2.960425e-05
8.5946279e-07
2.9533895e-05
9.4110382e-07
2.9461671e-05
1.0294077e-06
2.9389691e-05
1.1227919e-06
2.9321136e-05
1.2182294e-06
2.9260204e-05
1.310593e-06
2.921185e-05
1.3928409e-06
2.9180823e-05
1.4564101e-06
2.9170528e-05
1.4929952e-06
2.9181755e-05
1.4965369e-06
2.9212243e-05
1.465198e-06
2.9257213e-05
1.4020051e-06
1.3139729e-06
2.9310752e-05
3.2199616e-05
2.3862026e-08
3.2193992e-05
6.6305734e-08
3.2184678e-05
1.0884199e-07
3.2172422e-05
1.4357318e-07
3.2157643e-05
1.7318102e-07
3.2140565e-05
2.0013741e-07
3.2121279e-05
2.2606489e-07
3.2099808e-05
2.5179351e-07
3.2076121e-05
2.7793576e-07
3.2050148e-05
3.0498939e-07
3.2021786e-05
3.3336399e-07
3.1990908e-05
3.6343203e-07
3.1957359e-05
3.9556241e-07
3.1920966e-05
4.3013693e-07
3.1881531e-05
4.6756162e-07
3.1838845e-05
5.0827608e-07
3.179269e-05
5.5276036e-07
3.1742851e-05
6.015351e-07
3.1689142e-05
6.5515631e-07
3.1631431e-05
7.1418944e-07
3.1569706e-05
7.7917122e-07
3.1504144e-05
8.5050921e-07
3.1435245e-05
9.283614e-07
3.1363985e-05
1.0123641e-06
3.1292025e-05
1.1013679e-06
3.1221882e-05
1.1929345e-06
3.1157052e-05
1.28306e-06
3.1101798e-05
1.3658462e-06
3.1060669e-05
1.4339701e-06
3.1037485e-05
1.4795947e-06
3.1034302e-05
1.4961783e-06
3.1050606e-05
1.4802324e-06
3.1083329e-05
1.4324747e-06
3.1127676e-05
1.3576587e-06
1.2632541e-06
3.1178394e-05
3.4182362e-05
2.6142765e-08
3.4176404e-05
7.2263973e-08
3.4166512e-05
1.1873339e-07
3.4153504e-05
1.5658147e-07
3.4137821e-05
1.88864e-07
3.4119699e-05
2.1825975e-07
3.4099237e-05
2.465272e-07
3.4076458e-05
2.745722e-07
3.4051332e-05
3.0306123e-07
3.4023788e-05
3.3253368e-07
3.399372e-05
3.6343167e-07
3.3960998e-05
3.9615479e-07
3.3925464e-05
4.3109585e-07
3.3886944e-05
4.6865709e-07
3.3845245e-05
5.0926069e-07
3.3800165e-05
5.533558e-07
3.3751504e-05
6.014213e-07
3.369908e-05
6.5395936e-07
3.3642757e-05
7.1147959e-07
3.3582488e-05
7.7445774e-07
3.3518386e-05
8.4327402e-07
3.3450811e-05
9.1808415e-07
3.3380514e-05
9.9865863e-07
3.3308791e-05
1.0840862e-06
3.3237674e-05
1.1724852e-06
3.3170028e-05
1.2605809e-06
3.3109539e-05
1.343549e-06
3.3060355e-05
1.4150303e-06
3.3026436e-05
1.467889e-06
3.301059e-05
1.4954399e-06
3.3013647e-05
1.4931221e-06
3.3034069e-05
1.4598102e-06
3.3068317e-05
1.3982264e-06
3.311178e-05
1.3141954e-06
1.215171e-06
3.3159864e-05
3.6287196e-05
2.8587786e-08
3.6280886e-05
7.8574145e-08
3.6270382e-05
1.2923813e-07
3.6256576e-05
1.7038717e-07
3.6239934e-05
2.0550574e-07
3.6220705e-05
2.3748893e-07
3.6198995e-05
2.6823686e-07
3.6174832e-05
2.9873582e-07
3.6148184e-05
3.2970904e-07
3.6118978e-05
3.6173926e-07
3.6087108e-05
3.9530174e-07
3.605244e-05
4.3082314e-07
3.6014817e-05
4.6871884e-07
3.5974065e-05
5.0940908e-07
3.5929998e-05
5.5332765e-07
3.5882428e-05
6.0092593e-07
3.5831179e-05
6.5267026e-07
3.5776111e-05
7.0902732e-07
3.5717155e-05
7.7043548e-07
3.5654367e-05
8.3724566e-07
3.5588007e-05
9.0963425e-07
3.5518645e-05
9.8744583e-07
3.5447306e-05
1.0699979e-06
3.5375617e-05
1.1557753e-06
3.530595e-05
1.2421518e-06
3.5241442e-05
1.325089e-06
3.5185833e-05
1.399158e-06
3.5142978e-05
1.4578858e-06
3.5116117e-05
1.49475e-06
3.5107032e-05
1.5045243e-06
3.5115486e-05
1.4846684e-06
3.5139193e-05
1.4361028e-06
3.5174402e-05
1.3630181e-06
3.5216808e-05
1.2717889e-06
1.1695445e-06
3.5262435e-05
3.8521638e-05
3.1210869e-08
3.8514957e-05
8.5254905e-08
3.8503801e-05
1.4039451e-07
3.8489149e-05
1.8503871e-07
3.8471491e-05
2.2316405e-07
3.8451088e-05
2.5789137e-07
3.8428057e-05
2.9126814e-07
3.8402427e-05
3.243659e-07
3.8374168e-05
3.579677e-07
3.8343207e-05
3.9270091e-07
3.8309434e-05
4.2907458e-07
3.8272715e-05
4.6754172e-07
3.8232896e-05
5.0853861e-07
3.8189805e-05
5.5249993e-07
3.8143267e-05
5.9986525e-07
3.8093114e-05
6.5107895e-07
3.8039203e-05
7.0658095e-07
3.7981449e-05
7.6678198e-07
3.7919864e-05
8.3202012e-07
3.7854628e-05
9.0248193e-07
3.7786173e-05
9.7808909e-07
3.7715303e-05
1.0583156e-06
3.7643333e-05
1.1419683e-06
3.7572215e-05
1.2268931e-06
3.7504621e-05
1.3097464e-06
3.7443856e-05
1.3858533e-06
3.7393571e-05
1.4494429e-06
3.7357173e-05
1.4942837e-06
3.7337101e-05
1.5148229e-06
3.7334153e-05
1.5074714e-06
3.7347214e-05
1.4716079e-06
3.7373492e-05
1.4098242e-06
3.7409215e-05
1.327295e-06
3.7450455e-05
1.2305496e-06
1.1262048e-06
3.7493794e-05
4.0893666e-05
3.4026726e-08
4.0886595e-05
9.2325383e-08
4.0874747e-05
1.522433e-07
4.0859198e-05
2.005873e-07
4.0840462e-05
2.4189982e-07
4.0818816e-05
2.79537e-07
4.0794385e-05
3.1569916e-07
4.0767203e-05
3.5154825e-07
4.0737241e-05
3.8792992e-07
4.0704424e-05
4.2551774e-07
4.0668644e-05
4.6485446e-07
4.0629767e-05
5.0641857e-07
4.0587641e-05
5.5066463e-07
4.0542104e-05
5.9803718e-07
4.0492995e-05
6.489741e-07
4.0440173e-05
7.0390141e-07
4.0383538e-05
7.6321579e-07
4.0323072e-05
8.272479e-07
4.025889e-05
8.9620237e-07
4.0191314e-05
9.7005779e-07
4.0120975e-05
1.0484283e-06
4.004893e-05
1.1303607e-06
3.9976791e-05
1.214107e-06
3.9906817e-05
1.2968674e-06
3.9841912e-05
1.3746511e-06
3.9785441e-05
1.4423241e-06
3.9740819e-05
1.4940653e-06
3.9710882e-05
1.5242203e-06
3.9697233e-05
1.528472e-06
3.9699781e-05
1.5049232e-06
3.9716721e-05
1.4546682e-06
3.9744965e-05
1.3815801e-06
3.9780855e-05
1.2914052e-06
3.9820863e-05
1.190542e-06
1.084993e-06
3.9862074e-05
4.3411753e-05
3.705181e-08
4.3404272e-05
9.9805833e-08
4.3391688e-05
1.6482775e-07
4.3375188e-05
2.1708726e-07
4.335531e-05
2.6177753e-07
4.3332347e-05
3.024998e-07
4.3306434e-05
3.416124e-07
4.327761e-05
3.8037294e-07
4.3245847e-05
4.196929e-07
4.3211071e-05
4.6029296e-07
4.3173176e-05
5.0274947e-07
4.313203e-05
5.4756468e-07
4.3087487e-05
5.9520796e-07
4.3039396e-05
6.4612775e-07
4.2987619e-05
7.0075105e-07
4.2932049e-05
7.594716e-07
4.2872642e-05
8.2262281e-07
4.2809463e-05
8.9042741e-07
4.2742746e-05
9.6291926e-07
4.2672981e-05
1.0398224e-06
4.2601019e-05
1.1203906e-06
4.2528185e-05
1.2031947e-06
4.2456386e-05
1.2859056e-06
4.2388149e-05
1.3651047e-06
4.2326531e-05
1.4362694e-06
4.2274831e-05
1.4940243e-06
4.2236097e-05
1.5327984e-06
4.2212512e-05
1.5478057e-06
4.2204852e-05
1.5361322e-06
4.2212257e-05
1.4975182e-06
4.2232418e-05
1.4345067e-06
4.226212e-05
1.3518789e-06
4.2297907e-05
1.2556182e-06
4.2336652e-05
1.1517969e-06
1.0457615e-06
4.2375883e-05
4.6084892e-05
4.0303697e-08
4.6076981e-05
1.0771651e-07
4.6063616e-05
1.7819353e-07
4.6046107e-05
2.3459583e-07
4.6025019e-05
2.8286517e-07
4.6000662e-05
3.2685764e-07
4.597318e-05
3.6909437e-07
4.5942618e-05
4.1093457e-07
4.5908953e-05
4.5335819e-07
4.5872112e-05
4.9713402e-07
4.583199e-05
5.4287122e-07
4.5788461e-05
5.9109347e-07
4.5741389e-05
6.4228028e-07
4.569064e-05
6.9687664e-07
4.5636104e-05
7.5528722e-07
4.5577719e-05
8.1785683e-07
4.5515509e-05
8.8483215e-07
4.544964e-05
9.562962e-07
4.5380488e-05
1.0320713e-06
4.5308732e-05
1.1115786e-06
4.5235461e-05
1.1936621e-06
4.5162277e-05
1.2763788e-06
4.5091365e-05
1.3568175e-06
4.5025464e-05
1.4310049e-06
4.496769e-05
1.4940436e-06
4.4921152e-05
1.5405624e-06
4.4888423e-05
1.5655277e-06
4.4870979e-05
1.5652499e-06
4.4868825e-05
1.5382859e-06
4.4880469e-05
1.4858742e-06
4.4903266e-05
1.4117092e-06
4.4934001e-05
1.3211442e-06
4.4969478e-05
1.220141e-06
4.5006954e-05
1.1143214e-06
1.0083753e-06
4.504434e-05
4.892263e-05
4.3802119e-08
4.8914267e-05
1.1607902e-07
4.8900071e-05
1.9238948e-07
4.8881494e-05
2.5317372e-07
4.8859124e-05
3.0523441e-07
4.883329e-05
3.5269247e-07
4.8804148e-05
3.9823622e-07
4.877175e-05
4.4333219e-07
4.8736077e-05
4.8903174e-07
4.8697058e-05
5.3615224e-07
4.8654595e-05
5.8533442e-07
4.8608569e-05
6.3712001e-07
4.8558856e-05
6.9199292e-07
4.8505347e-05
7.5038529e-07
4.8447969e-05
8.126657e-07
4.8386715e-05
8.7911038e-07
4.8321695e-05
9.4985215e-07
4.8253193e-05
1.0247989e-06
4.8181746e-05
1.1035178e-06
4.8108245e-05
1.1850794e-06
4.8034033e-05
1.2678747e-06
4.7960985e-05
1.3494265e-06
4.7891534e-05
1.4262692e-06
4.7828561e-05
1.4939777e-06
4.7775132e-05
1.547472e-06
4.7734053e-05
1.5816421e-06
4.7707334e-05
1.5922465e-06
4.7695739e-05
1.5768447e-06
4.7698583e-05
1.5354424e-06
4.7713881e-05
1.4705759e-06
4.7738799e-05
1.3867913e-06
4.7770217e-05
1.2897261e-06
4.7805228e-05
1.1851304e-06
4.7841443e-05
1.0781058e-06
9.7270997e-07
4.7877109e-05
5.1935103e-05
4.7568076e-08
5.1926267e-05
1.2491547e-07
5.1911189e-05
2.0746685e-07
5.1891478e-05
2.7288494e-07
5.1867752e-05
3.289606e-07
5.1840354e-05
3.8009049e-07
5.1809457e-05
4.2913334e-07
5.177512e-05
4.7766921e-07
5.1737328e-05
5.2682363e-07
5.1696017e-05
5.7746261e-07
5.1651096e-05
6.3025636e-07
5.1602455e-05
6.8576035e-07
5.1549993e-05
7.4445542e-07
5.1493628e-05
8.0674962e-07
5.1433335e-05
8.7295892e-07
5.1369178e-05
9.4326797e-07
5.1301365e-05
1.0176651e-06
5.1230319e-05
1.0958442e-06
5.1156765e-05
1.1770726e-06
5.1081819e-05
1.260025e-06
5.1007086e-05
1.3426075e-06
5.0934703e-05
1.4218098e-06
5.0867299e-05
1.4936725e-06
5.0807819e-05
1.5534587e-06
5.0759168e-05
1.5961228e-06
5.0723743e-05
1.6170672e-06
5.0702942e-05
1.6130475e-06
5.069684e-05
1.5829462e-06
5.0704163e-05
1.5281198e-06
5.0722572e-05
1.4521667e-06
5.0749162e-05
1.3602014e-06
5.0780976e-05
1.2579117e-06
5.0815403e-05
1.1507035e-06
5.0850381e-05
1.0431282e-06
9.3865128e-07
5.0884439e-05
5.5133068e-05
5.1624705e-08
5.5123735e-05
1.3424913e-07
5.5107721e-05
2.234803e-07
5.5086809e-05
2.9379721e-07
5.5061646e-05
3.5412344e-07
5.5032595e-05
4.0914232e-07
5.4999842e-05
4.6188578e-07
5.4963458e-05
5.1405351e-07
5.4923433e-05
5.6684806e-07
5.4879713e-05
6.2118333e-07
5.4832213e-05
6.7775618e-07
5.4780843e-05
7.3713019e-07
5.4725525e-05
7.9977396e-07
5.4666216e-05
8.6605774e-07
5.460295e-05
9.3622553e-07
5.4535874e-05
1.0103439e-06
5.4465316e-05
1.0882225e-06
5.439186e-05
1.1693001e-06
5.4316433e-05
1.2524998e-06
5.4240396e-05
1.3360618e-06
5.4165614e-05
1.4173901e-06
5.4094455e-05
1.4929688e-06
5.4029688e-05
1.5584397e-06
5.397422e-05
1.6089258e-06
5.3930697e-05
1.639646e-06
5.3901023e-05
1.6467418e-06
5.3885959e-05
1.6281109e-06
5.3884949e-05
1.5839563e-06
5.3896239e-05
1.5168301e-06
5.3917262e-05
1.4311433e-06
5.3945137e-05
1.3323266e-06
5.3977114e-05
1.2259352e-06
5.4010871e-05
1.1169463e-06
5.404464e-05
1.0093592e-06
9.0609481e-07
5.4077196e-05
5.8527951e-05
5.5996842e-08
5.8518096e-05
1.4410406e-07
5.8501089e-05
2.4048721e-07
5.8478904e-05
3.1598195e-07
5.8452221e-05
3.8080644e-07
5.842142e-05
4.3994286e-07
5.8386708e-05
4.96598e-07
5.8348164e-05
5.525974e-07
5.830579e-05
6.0922297e-07
5.8259537e-05
6.6743537e-07
5.820934e-05
7.2795412e-07
5.8155126e-05
7.913437e-07
5.8096851e-05
8.5804939e-07
5.8034521e-05
9.2838734e-07
5.796824e-05
1.0025069e-06
5.7898257e-05
1.0803268e-06
5.7825039e-05
1.1614406e-06
5.7749349e-05
1.2449898e-06
5.7672338e-05
1.3295113e-06
5.7595617e-05
1.4127822e-06
5.75213e-05
1.4917076e-06
5.7451946e-05
1.5623226e-06
5.7390387e-05
1.6199986e-06
5.7339398e-05
1.6599147e-06
5.7301263e-05
1.6777807e-06
5.7277339e-05
1.6706667e-06
5.7267759e-05
1.6376904e-06
5.7271409e-05
1.5803059e-06
5.7286172e-05
1.5020676e-06
5.7309361e-05
1.4079544e-06
5.733819e-05
1.3034979e-06
5.7370139e-05
1.193986e-06
5.7403165e-05
1.0839198e-06
5.7435761e-05
9.7676377e-07
8.7494495e-07
5.7466911e-05
6.2131872e-05
6.0711181e-08
6.212147e-05
1.5450615e-07
6.2103409e-05
2.5854827e-07
6.2079876e-05
3.3951446e-07
6.2051585e-05
4.0909744e-07
6.2018936e-05
4.7259156e-07
6.1982156e-05
5.3337887e-07
6.1941336e-05
5.9341715e-07
6.1896489e-05
6.5406967e-07
6.1847583e-05
7.163417e-07
6.1794567e-05
7.8097024e-07
6.1737399e-05
8.4851181e-07
6.1676073e-05
9.1937495e-07
6.1610658e-05
9.9380249e-07
6.1541342e-05
1.0718232e-06
6.1468494e-05
1.1531747e-06
6.1392739e-05
1.2371953e-06
6.1315042e-05
1.3226866e-06
6.1236789e-05
1.4077643e-06
6.1159844e-05
1.4897273e-06
6.1086543e-05
1.5650086e-06
6.1019583e-05
1.6292826e-06
6.0961773e-05
1.6778086e-06
6.0915657e-05
1.7060309e-06
6.0883078e-05
1.7103594e-06
6.0864813e-05
1.6889317e-06
6.0860406e-05
1.642098e-06
6.0868272e-05
1.5724397e-06
6.0886039e-05
1.4843003e-06
6.0910993e-05
1.383e-06
6.0940495e-05
1.2739964e-06
6.0972264e-05
1.1622166e-06
6.1004518e-05
1.0516661e-06
6.1035978e-05
9.453039e-07
8.4511416e-07
6.1065809e-05
6.5957706e-05
6.579652e-08
6.594673e-05
1.6548236e-07
6.592755e-05
2.7772771e-07
6.5902591e-05
3.6447398e-07
6.58726e-05
4.3908834e-07
6.5837999e-05
5.0719238e-07