/*--------------------------------*- C++ -*----------------------------------*\
  =========                 |
  \\      /  F ield         | OpenFOAM: The Open Source CFD Toolbox
   \\    /   O peration     | Website:  https://openfoam.org
    \\  /    A nd           | Version:  12
     \\/     M anipulation  |
\*---------------------------------------------------------------------------*/
FoamFile
{
    format      ascii;
    class       volVectorField;
    location    "600";
    object      U;
}
// * * * * * * * * * * * * * * * * * * * * * * * * * * * * * * * * * * * * * //

dimensions      [0 1 -1 0 0 0 0];

internalField   nonuniform List<vector> 
3000
(
(1.15245022825 -0.00996572668994 -1.25168081068e-10)
(1.1531843931 -0.0254593816207 -1.71610437933e-10)
(1.15521493869 -0.0400104132728 -1.51024699273e-10)
(1.15799850263 -0.0540946049171 -1.26720419314e-10)
(1.16102965217 -0.0671659932746 -1.07137489965e-10)
(1.16374798762 -0.0791823805364 -9.2247016549e-11)
(1.1655079644 -0.0901196009167 -8.09783546706e-11)
(1.16556702701 -0.0999052700122 -7.22297565049e-11)
(1.16310911788 -0.108434895288 -6.50754533716e-11)
(1.15729346337 -0.115593397325 -5.92890044733e-11)
(1.14731465183 -0.121273039663 -5.40973452252e-11)
(1.13246101277 -0.125388308609 -4.95059620723e-11)
(1.11216139123 -0.127886760906 -4.52537666488e-11)
(1.08601471329 -0.128755068517 -4.1204599317e-11)
(1.05380110815 -0.1280203573 -3.76852752303e-11)
(1.01547676629 -0.125747601575 -3.41053553784e-11)
(0.971156692852 -0.122034181234 -3.07469115456e-11)
(0.921090107875 -0.117002783037 -2.75160183555e-11)
(0.865632820513 -0.110793709833 -2.41745310384e-11)
(0.805219919112 -0.103557434519 -2.10837755974e-11)
(0.740340969862 -0.0954479726282 -1.85459355935e-11)
(0.671518868515 -0.0866173895766 -1.60394507892e-11)
(0.599292677444 -0.0772115154903 -1.3453991699e-11)
(0.524204237002 -0.0673667917987 -1.12429220819e-11)
(0.446788042935 -0.0572084387739 -9.20526791145e-12)
(0.367563781671 -0.0468507278639 -7.21157182203e-12)
(0.287030924071 -0.0363978212632 -5.3458414285e-12)
(0.205664734876 -0.025932841631 -3.64398704919e-12)
(0.123912980746 -0.0154879035796 -2.07128264745e-12)
(0.042193380557 -0.00507603815879 -6.82396899748e-13)
(1.43177242725 -0.00537614417431 -1.23673824584e-10)
(1.43345702737 -0.0129893777952 -2.20185577311e-10)
(1.436613237 -0.0188406786079 -2.28282513395e-10)
(1.44000298986 -0.02474053577 -2.11511821933e-10)
(1.44220239704 -0.0302873636675 -1.89674969903e-10)
(1.44162317259 -0.035224614174 -1.68726723059e-10)
(1.43660007046 -0.0393589259718 -1.5037893571e-10)
(1.42552380946 -0.0425383375027 -1.34557793418e-10)
(1.4069964703 -0.0446607480381 -1.20804677579e-10)
(1.37997485155 -0.0456837094962 -1.08820843798e-10)
(1.34387229029 -0.0456265504716 -9.80098884882e-11)
(1.29860270871 -0.044565324747 -8.82726257745e-11)
(1.24456512044 -0.0426222396811 -7.93058914001e-11)
(1.1825783039 -0.0399517625763 -7.10578823676e-11)
(1.11378194842 -0.0367257597302 -6.35168211867e-11)
(1.03952231692 -0.0331196724768 -5.64667145172e-11)
(0.961238538855 -0.0293010884165 -4.99510400555e-11)
(0.88036162791 -0.0254213672892 -4.39271086984e-11)
(0.798233644274 -0.0216103901447 -3.83167130234e-11)
(0.716050098133 -0.0179740907985 -3.319642306e-11)
(0.63482527367 -0.0145942076128 -2.85713769212e-11)
(0.555377825228 -0.0115296302143 -2.43082100756e-11)
(0.478332701751 -0.00881876217676 -2.03781641763e-11)
(0.404135002899 -0.00648241377454 -1.68157450669e-11)
(0.333071529361 -0.00452679782463 -1.35568663178e-11)
(0.265296339519 -0.00294626925561 -1.05713085968e-11)
(0.200857370077 -0.00172607906057 -7.84230784045e-12)
(0.139721933889 -0.00084691249719 -5.35014287901e-12)
(0.0817995352419 -0.000290979619399 -3.07113363777e-12)
(0.0269611717854 -2.43553782651e-05 -9.87240470006e-13)
(1.55140256878 -0.00451901817798 -1.16129211306e-10)
(1.55105663339 -0.0119696980449 -2.25343555665e-10)
(1.54926982993 -0.0188790972515 -2.54616884254e-10)
(1.54435396959 -0.0248838665892 -2.50139299331e-10)
(1.53429242859 -0.0295706849516 -2.3236592735e-10)
(1.51708290803 -0.0329008040304 -2.10599186699e-10)
(1.4910227552 -0.0349014741117 -1.8888618755e-10)
(1.45494389862 -0.0356418802505 -1.68694343096e-10)
(1.40836587608 -0.0352424320806 -1.50372157013e-10)
(1.35154406137 -0.0338712849883 -1.33990223588e-10)
(1.28541268587 -0.0317299081415 -1.19200979538e-10)
(1.21144418349 -0.0290341408485 -1.05959733093e-10)
(1.13145971468 -0.0259952981129 -9.39827564976e-11)
(1.04742841827 -0.0228045351183 -8.31969971048e-11)
(0.961286911949 -0.0196222695563 -7.34939180259e-11)
(0.874799585458 -0.0165730515943 -6.46904407815e-11)
(0.789468216364 -0.0137452032359 -5.67399228585e-11)
(0.706489304268 -0.0111939671772 -4.95478845895e-11)
(0.626750787746 -0.00894676271515 -4.30182966501e-11)
(0.550856702942 -0.00700930427194 -3.71265242488e-11)
(0.479168208919 -0.00537164643396 -3.1814076323e-11)
(0.411851190124 -0.00401355954339 -2.69871381056e-11)
(0.348923302175 -0.00290893817895 -2.25954759274e-11)
(0.290296042323 -0.00202916359996 -1.86133143543e-11)
(0.235809712268 -0.00134546934217 -1.49876940028e-11)
(0.185260798081 -0.000830447571871 -1.16817041033e-11)
(0.138422324265 -0.000459047702429 -8.66553990643e-12)
(0.0950582654431 -0.000209634210717 -5.91162156415e-12)
(0.0549332709472 -6.44443617237e-05 -3.39399760586e-12)
(0.0178188688208 -1.77571336994e-06 -1.09063510046e-12)
(1.67590468968 -0.00280541960122 -9.20118764479e-11)
(1.67253281982 -0.0067834166968 -1.91205861453e-10)
(1.66442873052 -0.00968513000898 -2.29911286395e-10)
(1.65008776792 -0.0120666850027 -2.37104354329e-10)
(1.62768952479 -0.0137120895746 -2.28073835586e-10)
(1.59575690541 -0.0145696490653 -2.11568225399e-10)
(1.55347620735 -0.0146752521952 -1.92432119154e-10)
(1.50083666429 -0.0141286890559 -1.73088799621e-10)
(1.43860578981 -0.0130733935571 -1.54682149027e-10)
(1.36817412022 -0.0116730542718 -1.37710616312e-10)
(1.29132419587 -0.0100887783076 -1.22228439894e-10)
(1.20998425884 -0.00846129779078 -1.08275369105e-10)
(1.12601621218 -0.00690031783858 -9.57185028969e-11)
(1.04106668536 -0.00548096511673 -8.44625734288e-11)
(0.956488190567 -0.00424585841266 -7.43742704904e-11)
(0.873320796913 -0.00321069920744 -6.53177612423e-11)
(0.792316182679 -0.00237134543573 -5.71844029587e-11)
(0.713984650259 -0.00171080735956 -4.98695107222e-11)
(0.638649160441 -0.00120521106362 -4.32786535344e-11)
(0.566495830764 -0.000828319441216 -3.73365751107e-11)
(0.497615534099 -0.000554592061769 -3.19695551742e-11)
(0.432035131785 -0.000360991399734 -2.71087616398e-11)
(0.369739232107 -0.000227834500569 -2.26993407932e-11)
(0.310684425403 -0.000138991840959 -1.86944320531e-11)
(0.254808137597 -8.16893032828e-05 -1.50511904821e-11)
(0.202033967146 -4.60982141984e-05 -1.17316290762e-11)
(0.15227491961 -2.48208087127e-05 -8.70337002279e-12)
(0.10543550414 -1.23805668927e-05 -5.93774527299e-12)
(0.0614132874078 -5.02140842625e-06 -3.40931558714e-12)
(0.0201002234101 -1.33494030304e-06 -1.09557737446e-12)
(1.74792776267 -0.00234417101944 -7.85404429383e-11)
(1.74084249516 -0.00598075187315 -1.66408046525e-10)
(1.72511101369 -0.00894898654969 -2.05985933254e-10)
(1.70013643163 -0.0112419521268 -2.18191304734e-10)
(1.66495726443 -0.0126838488657 -2.14528883667e-10)
(1.61910610938 -0.0133268646799 -2.02354029441e-10)
(1.56285000024 -0.0132964594211 -1.8627484251e-10)
(1.49717181197 -0.012746855509 -1.68935603734e-10)
(1.42359454896 -0.0118375730359 -1.51783320653e-10)
(1.34393867838 -0.0107147462901 -1.35589839985e-10)
(1.26008742479 -0.00949855143804 -1.20608439321e-10)
(1.1738071676 -0.00827815665599 -1.069847156e-10)
(1.08663946498 -0.00711292049107 -9.46694175566e-11)
(0.999857772245 -0.00603740418697 -8.35916517461e-11)
(0.914470022677 -0.00506782324352 -7.36460620267e-11)
(0.831246599584 -0.00420822139533 -6.47074752723e-11)
(0.750757653249 -0.0034554480959 -5.66720011405e-11)
(0.673409965612 -0.00280267767919 -4.94377654898e-11)
(0.599478930688 -0.00224161685397 -4.29116174863e-11)
(0.529134679993 -0.00176372360818 -3.70247441246e-11)
(0.462463057757 -0.00136077832716 -3.17072656317e-11)
(0.399482623405 -0.00102508511131 -2.68901545088e-11)
(0.340158726705 -0.000749495260824 -2.25166591928e-11)
(0.284415379238 -0.000527366299995 -1.85453439314e-11)
(0.232145351925 -0.000352508903971 -1.49317976411e-11)
(0.18321873598 -0.000219140766677 -1.16386462662e-11)
(0.137490109946 -0.000121894893877 -8.63430638376e-12)
(0.0948044260987 -5.59832191566e-05 -5.89060201266e-12)
(0.0550017343977 -1.7314163276e-05 -3.38220018671e-12)
(0.017920877933 -5.42331959116e-07 -1.08687259905e-12)
(1.81040728218 -0.00161269791027 -6.35323637457e-11)
(1.79984044448 -0.00394800136547 -1.39077477174e-10)
(1.77739623385 -0.00559988390983 -1.76926683429e-10)
(1.7437071218 -0.00676866220806 -1.91752177019e-10)
(1.69886753313 -0.00737970241193 -1.9218496354e-10)
(1.64339386922 -0.00749713671214 -1.84138283023e-10)
(1.57836549 -0.00723070270803 -1.71637326641e-10)
(1.50531639214 -0.00669954555078 -1.57199885865e-10)
(1.42602987221 -0.00601291307397 -1.42332326935e-10)
(1.34233134094 -0.00525953644299 -1.27902751595e-10)
(1.255930632 -0.00450407448336 -1.14308598994e-10)
(1.16832858589 -0.00378877714444 -1.01768236117e-10)
(1.08077949432 -0.00313784180559 -9.03047638593e-11)
(0.994291788936 -0.00256239478445 -7.99207443425e-11)
(0.909649837926 -0.00206489355099 -7.05321296182e-11)
(0.827444434868 -0.00164249355881 -6.20548332141e-11)
(0.748104658486 -0.00128938826358 -5.44041099979e-11)
(0.671927523604 -0.00099833345112 -4.74969269833e-11)
(0.599104037873 -0.00076160009309 -4.12582722992e-11)
(0.529741360269 -0.000571555081317 -3.56166060562e-11)
(0.463881225181 -0.00042100675694 -3.05103611193e-11)
(0.401514984606 -0.000303400359596 -2.5879898336e-11)
(0.342595697369 -0.000212914400551 -2.16754390382e-11)
(0.287047718657 -0.00014448950084 -1.78541639172e-11)
(0.234774233989 -9.38101871314e-05 -1.4375806272e-11)
(0.185663146557 -5.72524368475e-05 -1.12055387369e-11)
(0.139591673589 -3.18102420731e-05 -8.31395020045e-12)
(0.0964299453645 -1.50417096585e-05 -5.67194484286e-12)
(0.0560438393665 -5.09176318447e-06 -3.25674555827e-12)
(0.0182972247179 -5.66355523636e-07 -1.04655460575e-12)
(1.85301617461 -0.00127913057819 -5.28206229896e-11)
(1.83937953951 -0.00319874700707 -1.17489362656e-10)
(1.81111624892 -0.0046336678221 -1.52095667867e-10)
(1.77013604947 -0.00565016745044 -1.67528284299e-10)
(1.71753518954 -0.00619676276404 -1.70316369598e-10)
(1.65461180263 -0.00634363279388 -1.65224202343e-10)
(1.58296538757 -0.00618892405897 -1.55644732002e-10)
(1.50439036158 -0.00582802943983 -1.43820661992e-10)
(1.42071935693 -0.00534199487281 -1.31174154084e-10)
(1.33368895925 -0.0047936089242 -1.18579238604e-10)
(1.24485324055 -0.00422787866955 -1.06486663947e-10)
(1.15554337386 -0.00367487780733 -9.51678833528e-11)
(1.06686072512 -0.0031532872481 -8.4707266977e-11)
(0.979689917281 -0.00267364487159 -7.51366962381e-11)
(0.894721620458 -0.00224093308495 -6.64269981594e-11)
(0.812478620194 -0.00185648245124 -5.85214130521e-11)
(0.733341621219 -0.0015193091933 -5.13591795184e-11)
(0.657573072445 -0.00122702919808 -4.48735735779e-11)
(0.585338333479 -0.000976470612823 -3.9000242388e-11)
(0.516724046917 -0.000764077177228 -3.36815722865e-11)
(0.451753848024 -0.000586168488605 -2.88618405427e-11)
(0.390401658336 -0.000439103975111 -2.4486944995e-11)
(0.332602844115 -0.000319383342539 -2.05109856312e-11)
(0.278263514126 -0.000223705652039 -1.68962336644e-11)
(0.227268208194 -0.000149000011026 -1.36054568732e-11)
(0.179486201255 -9.24358227975e-05 -1.06056654524e-11)
(0.13477662247 -5.14349573585e-05 -7.86839736611e-12)
(0.0929925661782 -2.37350664463e-05 -5.36821624879e-12)
(0.0539843521926 -7.44764370977e-06 -3.08232035013e-12)
(0.0176020750965 -3.29429773279e-07 -9.90501777852e-13)
(1.88686414226 -0.000923019922648 -4.31188879102e-11)
(1.87081410697 -0.00226957990864 -9.80173393638e-11)
(1.83808754693 -0.00321489156222 -1.29208371204e-10)
(1.79168400117 -0.00385898780918 -1.44452019656e-10)
(1.73349552415 -0.00417718845336 -1.48752010143e-10)
(1.66537413977 -0.00422483303218 -1.4591296025e-10)
(1.58923818876 -0.00407361775147 -1.3875956528e-10)
(1.5070088769 -0.00379058101281 -1.29243294084e-10)
(1.42051459771 -0.0034311057391 -1.18673296596e-10)
(1.33141446968 -0.00303736729027 -1.07854340262e-10)
(1.24115445313 -0.00263935147381 -9.72875976284e-11)
(1.15095244096 -0.00225700383108 -8.72597630636e-11)
(1.06180367449 -0.00190257014317 -7.78778373188e-11)
(0.974498278061 -0.00158267185405 -6.92270355319e-11)
(0.889644801781 -0.00129997995642 -6.12993789672e-11)
(0.807695723872 -0.00105449920927 -5.40703721426e-11)
(0.728972433018 -0.000844523697658 -4.74966415459e-11)
(0.653688291604 -0.000667331246581 -4.15275904625e-11)
(0.581969098559 -0.000519676359002 -3.61101526258e-11)
(0.51387073159 -0.000398130466595 -3.11953011646e-11)
(0.449394032321 -0.000299308127529 -2.67387905258e-11)
(0.388497158171 -0.000220009319585 -2.26899758717e-11)
(0.331105702312 -0.000157301191093 -1.90093165397e-11)
(0.277120905065 -0.000108557139669 -1.56617170138e-11)
(0.226426268467 -7.14660668971e-05 -1.26121907553e-11)
(0.178892855724 -4.40204894569e-05 -9.83182711026e-12)
(0.134383519214 -2.44954197515e-05 -7.29396277192e-12)
(0.092756260862 -1.14461425238e-05 -4.97647009959e-12)
(0.0538668922639 -3.73247097134e-06 -2.85747449363e-12)
(0.0175711290284 -2.92074205414e-07 -9.18306938859e-13)
(1.91127593691 -0.000711826770056 -3.5633313316e-11)
(1.89335118503 -0.00176769782957 -8.21777149483e-11)
(1.85717118119 -0.0025333710823 -1.09868716066e-10)
(1.80660296556 -0.00306347965375 -1.24325789002e-10)
(1.74414679961 -0.0033380146235 -1.29379569758e-10)
(1.6720540988 -0.00340051078004 -1.28073069772e-10)
(1.59246015945 -0.00330594389703 -1.22749499091e-10)
(1.50736750209 -0.00310503350989 -1.15087615838e-10)
(1.41859925175 -0.00283969149884 -1.06244386197e-10)
(1.32776220676 -0.0025421955188 -9.70054772031e-11)
(1.2362298406 -0.00223594594344 -8.78216525159e-11)
(1.14514354713 -0.00193693582346 -7.8990784634e-11)
(1.05542679589 -0.00165537407521 -7.06660334802e-11)
(0.967806800326 -0.0013971696909 -6.2926678093e-11)
(0.882839453247 -0.00116516677315 -5.57989178335e-11)
(0.800934617224 -0.000960113817 -4.92695970514e-11)
(0.722380000465 -0.000781392087472 -4.33134624138e-11)
(0.647362696332 -0.000627543351454 -3.78924023413e-11)
(0.575988036046 -0.000496639748579 -3.29635311047e-11)
(0.508295751595 -0.000386534792092 -2.84869620047e-11)
(0.444273633414 -0.000295028049733 -2.44217280747e-11)
(0.383868950452 -0.000219969087604 -2.07267216612e-11)
(0.326997922169 -0.000159319895447 -1.73661542754e-11)
(0.273553520909 -0.000111189510477 -1.4308378395e-11)
(0.22341185733 -7.38495511109e-05 -1.15224256869e-11)
(0.176437371568 -4.57361858069e-05 -8.98287846272e-12)
(0.132487023257 -2.5450124899e-05 -6.66468414218e-12)
(0.0914136458479 -1.17802923086e-05 -4.54708971044e-12)
(0.0530686068292 -3.73202916214e-06 -2.61092898354e-12)
(0.0173038939902 -1.97106552565e-07 -8.39126649788e-13)
(1.9301602881 -0.00052871275342 -2.93197831318e-11)
(1.91083004255 -0.00130394591871 -6.86965548311e-11)
(1.87207502401 -0.00185306589079 -9.30752601532e-11)
(1.81841830889 -0.00222907908019 -1.06509121173e-10)
(1.75281197156 -0.00241865440381 -1.11879665829e-10)
(1.67779942773 -0.00245387553629 -1.11630289366e-10)
(1.59567387703 -0.00237513351284 -1.07706344799e-10)
(1.50849836205 -0.00221979226753 -1.01547787785e-10)
(1.41809422549 -0.00201881170611 -9.41780008367e-11)
(1.32603140362 -0.00179606363484 -8.63008934611e-11)
(1.2336300472 -0.00156882319889 -7.83580590032e-11)
(1.14197338589 -0.00134881932781 -7.06421795624e-11)
(1.05192853205 -0.00114342985497 -6.33113695642e-11)
(0.964171536722 -0.000956792169445 -5.64576332571e-11)
(0.879213708466 -0.000790735671098 -5.01153585412e-11)
(0.797427144825 -0.000645517320384 -4.4288799551e-11)
(0.719068262214 -0.000520376822111 -3.89589077029e-11)
(0.644298731759 -0.000413941287615 -3.40977045849e-11)
(0.573203645734 -0.000324511208348 -2.96740038327e-11)
(0.505806992351 -0.000250256342354 -2.565133293e-11)
(0.442084654801 -0.000189345091009 -2.19951917886e-11)
(0.381975212769 -0.000140025868885 -1.86687533031e-11)
(0.325388841008 -0.000100674577717 -1.56426265887e-11)
(0.272214588481 -6.98186492382e-05 -1.28878679818e-11)
(0.222326296369 -4.61448386506e-05 -1.03792964474e-11)
(0.175587382379 -2.84955031965e-05 -8.09136700655e-12)
(0.131854686866 -1.5860875983e-05 -6.00328045485e-12)
(0.0909815455977 -7.38463000939e-06 -4.09582250015e-12)
(0.0528202270959 -2.38065575651e-06 -2.3517648893e-12)
(0.0172238485781 -1.61991796769e-07 -7.55736079931e-13)
(1.94422567203 -0.000405976533086 -2.42982871064e-11)
(1.92382929531 -0.00100589989492 -5.76276835139e-11)
(1.88311640869 -0.00143808070856 -7.89542930438e-11)
(1.82710557028 -0.00173709627879 -9.11690444941e-11)
(1.75908960629 -0.00189168717059 -9.65066530861e-11)
(1.68183283676 -0.001926218018 -9.692174929e-11)
(1.59774937633 -0.00187155551344 -9.40267425178e-11)
(1.50895015411 -0.00175634196795 -8.90506751819e-11)
(1.41725696921 -0.00160441129396 -8.28901650924e-11)
(1.32421302305 -0.00143423279686 -7.61901115685e-11)
(1.23109882802 -0.00125925114016 -6.93479408885e-11)
(1.1389542899 -0.0010886677467 -6.2642647665e-11)
(1.0486049187 -0.000928345843993 -5.62231064681e-11)
(0.960689651041 -0.000781657919171 -5.01938144926e-11)
(0.875688230102 -0.000650199175497 -4.45953819667e-11)
(0.793946777572 -0.000534350187607 -3.94358925214e-11)
(0.715700815247 -0.000433700486512 -3.47074135458e-11)
(0.641095451607 -0.000347355898285 -3.03888170965e-11)
(0.57020274792 -0.000274154468379 -2.64525627891e-11)
(0.503036449528 -0.000212813519769 -2.28704857986e-11)
(0.439564350668 -0.000162026508835 -1.96127130888e-11)
(0.379718587382 -0.00012052427028 -1.6648882482e-11)
(0.323404147523 -8.71116274867e-05 -1.39516271895e-11)
(0.270505864146 -6.06872879352e-05 -1.14961590451e-11)
(0.220894129054 -4.02521857806e-05 -9.25884958633e-12)
(0.174429532655 -2.49095939878e-05 -7.21804946606e-12)
(0.13096660735 -1.38633846559e-05 -5.35540792008e-12)
(0.0903568248791 -6.42875597203e-06 -3.65385907605e-12)
(0.0524509752132 -2.04756059162e-06 -2.09806215251e-12)
(0.017101034258 -1.17619040969e-07 -6.74267787365e-13)
(1.95505542813 -0.000307250183254 -2.01434042962e-11)
(1.9338544939 -0.000759083477786 -4.83448688151e-11)
(1.89166436157 -0.00108155459763 -6.68527732105e-11)
(1.83387676674 -0.00130380592887 -7.78812395396e-11)
(1.76404184831 -0.00141750413016 -8.29948505464e-11)
(1.68509178272 -0.00144095161139 -8.38157136543e-11)
(1.59953338066 -0.00139742864437 -8.16864828164e-11)
(1.50951483788 -0.00130860186037 -7.76568096178e-11)
(1.4168588711 -0.0011925198406 -7.25095353246e-11)
(1.32308857042 -0.00106316123964 -6.68074621511e-11)
(1.2294542145 -0.000930681979939 -6.09235789169e-11)
(1.13696238921 -0.000802007457355 -5.5113350448e-11)
(1.0464063011 -0.000681521788619 -4.95236390938e-11)
(0.958395693565 -0.000571713563445 -4.42624171499e-11)
(0.873385059543 -0.000473719454291 -3.93586130308e-11)
(0.79169932232 -0.000387753182615 -3.48241781889e-11)
(0.713556593629 -0.000313429078326 -3.0664428022e-11)
(0.639087936089 -0.000249997653685 -2.68587619056e-11)
(0.568354261246 -0.000196511888352 -2.33852506792e-11)
(0.501360606851 -0.000151941052656 -2.02225000061e-11)
(0.438068086702 -0.000115245943331 -1.73429132593e-11)
(0.378403815754 -8.54264031983e-05 -1.47225902944e-11)
(0.322269100183 -6.15493804983e-05 -1.23375516781e-11)
(0.269546156422 -4.27635989757e-05 -1.01660430614e-11)
(0.220103592708 -2.83049372593e-05 -8.18711619816e-12)
(0.173800855735 -1.74952012796e-05 -6.38236898868e-12)
(0.130491815826 -9.73884968081e-06 -4.73564688776e-12)
(0.0900276370694 -4.52808498279e-06 -3.23100385592e-12)
(0.052259055883 -1.45344660862e-06 -1.85520681614e-12)
(0.0170381711358 -9.32568284081e-08 -5.96167963893e-13)
(1.96327005095 -0.000236244714707 -1.67600354872e-11)
(1.94145485492 -0.000584845322096 -4.0631255119e-11)
(1.89813489498 -0.000835507496648 -5.66616144776e-11)
(1.83898594475 -0.00100905813058 -6.647234872e-11)
(1.76775462603 -0.00109880275765 -7.12374154337e-11)
(1.68750182595 -0.00111874724382 -7.22773855057e-11)
(1.60080578157 -0.00108676689553 -7.07107743259e-11)
(1.50984364433 -0.0010195162199 -6.74322321734e-11)
(1.41643914104 -0.000930887042979 -6.31211825445e-11)
(1.32210019156 -0.000831657707007 -5.82730810793e-11)
(1.22805414496 -0.000729678220705 -5.32245385754e-11)
(1.13528235113 -0.000630321113824 -4.82077334213e-11)
(1.04455366353 -0.000537008006821 -4.33634880598e-11)
(0.956455981835 -0.000451703808441 -3.87787457963e-11)
(0.871425096448 -0.000375333151043 -3.44967092021e-11)
(0.789770417182 -0.000308109098463 -3.05367971735e-11)
(0.711697470765 -0.0002497809558 -2.68951974125e-11)
(0.637327268191 -0.000199814449055 -2.35609597565e-11)
(0.566712776364 -0.000157518661683 -2.05185232136e-11)
(0.499852794057 -0.000122132760194 -1.77458891366e-11)
(0.436703552066 -9.28832889728e-05 -1.52215763041e-11)
(0.377188348674 -6.90204744862e-05 -1.29228213106e-11)
(0.321205508138 -4.98399138971e-05 -1.08298294244e-11)
(0.268634919081 -3.46942817516e-05 -8.9243635875e-12)
(0.219343377278 -2.29981144962e-05 -7.18708541258e-12)
(0.17318892643 -1.42276565841e-05 -5.60314702213e-12)
(0.130024362382 -7.91943152706e-06 -4.15731364711e-12)
(0.0897000407803 -3.67581299599e-06 -2.83643070638e-12)
(0.0520661066053 -1.17380406384e-06 -1.62865152974e-12)
(0.016974245119 -7.00195180887e-08 -5.23365345103e-13)
(1.96959592394 -0.000180608033562 -1.39567944079e-11)
(1.9473117654 -0.000446547466182 -3.41511835923e-11)
(1.90312925307 -0.000636984194307 -4.80080741152e-11)
(1.84294092042 -0.000768603079672 -5.66559506062e-11)
(1.77064354498 -0.000836345310062 -6.10233248498e-11)
(1.6893965687 -0.00085089453528 -6.21620518061e-11)
(1.60183302731 -0.000825899151212 -6.10115085652e-11)
(1.51015235686 -0.000774085205943 -5.83340281516e-11)
(1.41617914385 -0.000706069493073 -5.47183561328e-11)
(1.32140974053 -0.000630086805392 -5.05987315601e-11)
(1.2270539365 -0.000552130169538 -4.62747679157e-11)
(1.1340736894 -0.000476295598139 -4.19546994199e-11)
(1.04321905516 -0.00040518511523 -3.77675200677e-11)
(0.955060971048 -0.000340285084019 -3.37939991516e-11)
(0.870020592484 -0.000282285091895 -3.00767830506e-11)
(0.788395081242 -0.000231329818505 -2.66311968675e-11)
(0.710379937336 -0.000187209141268 -2.34607462076e-11)
(0.636088102628 -0.000149496606553 -2.05562895993e-11)
(0.565566142627 -0.000117647204626 -1.79041017766e-11)
(0.498807843781 -9.10643298492e-05 -1.54863976531e-11)
(0.435765562887 -6.91440926454e-05 -1.3283912025e-11)
(0.376359645269 -5.13033872528e-05 -1.12787563207e-11)
(0.320486199351 -3.69965744669e-05 -9.45217655862e-12)
(0.26802348189 -2.57243419429e-05 -7.78856643283e-12)
(0.218837114816 -1.70371309089e-05 -6.27290568395e-12)
(0.172784323616 -1.05346895843e-05 -4.8904664394e-12)
(0.129717359168 -5.86448689255e-06 -3.62854319024e-12)
(0.0894862398187 -2.72520726983e-06 -2.47566669487e-12)
(0.0519409292526 -8.73215278536e-07 -1.42150502075e-12)
(0.016933047123 -5.46444793726e-08 -4.56798813855e-13)
(1.97443803275 -0.000139078672006 -1.16553167735e-11)
(1.95179373145 -0.000344163852918 -2.87587644124e-11)
(1.90694839803 -0.000491484018628 -4.07144411146e-11)
(1.84596089821 -0.000593494551088 -4.82519941494e-11)
(1.77284331516 -0.000646235204179 -5.21801981353e-11)
(1.69083082482 -0.000657920600967 -5.33231456881e-11)
(1.6025986119 -0.000639054034282 -5.24751540087e-11)
(1.51036329162 -0.000599430897976 -5.0290813393e-11)
(1.41595017019 -0.000547226877245 -4.72571152856e-11)
(1.32084677211 -0.000488788250156 -4.37528793714e-11)
(1.22624946153 -0.000428738858523 -4.00640263733e-11)
(1.13310537742 -0.000370244245606 -3.63557640862e-11)
(1.04215023846 -0.000315320857872 -3.27500297034e-11)
(0.953942084595 -0.000265126547082 -2.93170748133e-11)
(0.868890991038 -0.000220205566891 -2.61054504398e-11)
(0.787284893577 -0.00018068213048 -2.31194513296e-11)
(0.70931177859 -0.000146406488677 -2.0371824867e-11)
(0.635078566365 -0.000117061282111 -1.78523520795e-11)
(0.564627053168 -9.22365831137e-05 -1.55495983732e-11)
(0.497947281032 -7.14812538031e-05 -1.34497722504e-11)
(0.434988686668 -5.43369324492e-05 -1.15376068435e-11)
(0.375669350919 -4.03595966336e-05 -9.79641261043e-12)
(0.319883635655 -2.91324494044e-05 -8.21076524569e-12)
(0.26750845897 -2.02728612141e-05 -6.76639488168e-12)
(0.218408425244 -1.34351829071e-05 -5.4503462629e-12)
(0.172439995579 -8.31061037722e-06 -4.24890328416e-12)
(0.129454856566 -4.62624603442e-06 -3.15258808832e-12)
(0.0893026208084 -2.14821638612e-06 -2.15095121168e-12)
(0.0518329721103 -6.86815046068e-07 -1.23506012911e-12)
(0.0168973502181 -4.16537454983e-08 -3.96885251477e-13)
(1.97816968193 -0.000106858719312 -9.74003495652e-12)
(1.95524878521 -0.00026428619801 -2.4217991919e-11)
(1.90989444955 -0.000377164292324 -3.44839766713e-11)
(1.84829330825 -0.000455261861156 -4.10657255584e-11)
(1.7745460222 -0.000495554962021 -4.45599146238e-11)
(1.69194595777 -0.00050435122861 -4.56736839315e-11)
(1.6032006951 -0.000489716273755 -4.50526921446e-11)
(1.51054006394 -0.000459173487303 -4.32498457071e-11)
(1.41578993835 -0.000419002288888 -4.06994804427e-11)
(1.32043106941 -0.000374076288352 -3.77306462823e-11)
(1.22564950381 -0.000327945261104 -3.45754598119e-11)
(1.13238097559 -0.000283038084219 -3.13964607673e-11)
(1.04135014733 -0.000240900346957 -2.82971569207e-11)
(0.953105086838 -0.000202417603312 -2.53433052506e-11)
(0.868047273296 -0.000168003676943 -2.25679671735e-11)
(0.78645745714 -0.000137749474764 -1.99955836645e-11)
(0.708517749858 -0.000111535358984 -1.76216345922e-11)
(0.634330348087 -8.91130267459e-05 -1.54442721261e-11)
(0.563933300884 -7.01633444365e-05 -1.34542224477e-11)
(0.497313712022 -5.433597188e-05 -1.16389983251e-11)
(0.434418739141 -4.12756046679e-05 -9.98514305631e-12)
(0.375164714647 -3.06386227615e-05 -8.47806651704e-12)
(0.319444675066 -2.21030190517e-05 -7.10543517547e-12)
(0.267134547851 -1.5373712263e-05 -5.85501090471e-12)
(0.218098209704 -1.01846512761e-05 -4.7157501248e-12)
(0.17219159934 -6.29862907544e-06 -3.67655274734e-12)
(0.129266040254 -3.50643735196e-06 -2.72790183951e-12)
(0.0891709048065 -1.62906893845e-06 -1.86119660565e-12)
(0.0517557306898 -5.21608700098e-07 -1.06868716371e-12)
(0.016871883159 -3.22949207868e-08 -3.43421917442e-13)
(1.98103873867 -8.23776300648e-05 -8.1462951712e-12)
(1.95790485282 -0.000203813403003 -2.03964530795e-11)
(1.91215847616 -0.000291000043197 -2.91586119379e-11)
(1.85008461112 -0.0003513699267 -3.49195513899e-11)
(1.77585211893 -0.000382576405893 -3.80153097156e-11)
(1.69279917049 -0.000389479508008 -3.90600677072e-11)
(1.60365829328 -0.000378295286646 -3.86042830773e-11)
(1.51066950005 -0.000354822029548 -3.71161759377e-11)
(1.41565911347 -0.000323900100159 -3.49702607104e-11)
(1.32010268298 -0.00028928741557 -3.24503757137e-11)
(1.2251783277 -0.000253722447493 -2.97586348631e-11)
(1.13181302141 -0.000219080333632 -2.70375407315e-11)
(1.0407229415 -0.000186555739689 -2.43787355647e-11)
(0.952448512898 -0.000156834723478 -2.18403770583e-11)
(0.867384638681 -0.000130239726459 -1.94543913277e-11)
(0.785806584273 -0.000106844169162 -1.72393899053e-11)
(0.707891986351 -8.65589809677e-05 -1.51953904167e-11)
(0.633739449848 -6.91956385193e-05 -1.33193760941e-11)
(0.563384176342 -5.45106798392e-05 -1.16044458132e-11)
(0.496811034018 -4.22361954387e-05 -1.00395880018e-11)
(0.433965439572 -3.21000234651e-05 -8.61438991539e-12)
(0.374762379724 -2.38385724012e-05 -7.31371878863e-12)
(0.319093858745 -1.72044869656e-05 -6.12974355307e-12)
(0.266835019183 -1.19707764017e-05 -5.05106232817e-12)
(0.217849147518 -7.9324831893e-06 -4.06832666078e-12)
(0.171991745264 -4.90659459447e-06 -3.17184307427e-12)
(0.129113818925 -2.73146465222e-06 -2.35343374108e-12)
(0.0890645182733 -1.26862222348e-06 -1.60570522309e-12)
(0.0516932324804 -4.05813723955e-07 -9.21984826329e-13)
(0.016851236302 -2.47896444668e-08 -2.96278733874e-13)
(1.98325146566 -6.34543189348e-05 -6.81722127205e-12)
(1.95995355095 -0.000156956865157 -1.71772060249e-11)
(1.91390526966 -0.000224034618594 -2.47091210018e-11)
(1.85146739255 -0.000270464052158 -2.96635514776e-11)
(1.77686130889 -0.000294442629263 -3.23850931669e-11)
(1.69345969735 -0.000299713227628 -3.33481167298e-11)
(1.60401429971 -0.000291062915254 -3.29968749335e-11)
(1.51077297278 -0.000272957222883 -3.17830824799e-11)
(1.41556238667 -0.000249123859422 -2.99752599262e-11)
(1.319854086 -0.000222456683677 -2.78361065105e-11)
(1.22482008346 -0.000195064220381 -2.55459203646e-11)
(1.13138060115 -0.000168389922255 -2.32235774013e-11)
(1.04024527145 -0.000143353032659 -2.09498397841e-11)
(0.951948617308 -0.000120480970927 -1.87761837933e-11)
(0.866880456174 -0.000100021020412 -1.67314775662e-11)
(0.785311804522 -8.20286127606e-05 -1.48292183449e-11)
(0.707416826676 -6.64340064656e-05 -1.3070473675e-11)
(0.633291336528 -5.30908813227e-05 -1.14583018766e-11)
(0.562968321383 -4.18106691292e-05 -9.98326858843e-12)
(0.496430911899 -3.23860811923e-05 -8.63702930355e-12)
(0.433623174793 -2.46066971329e-05 -7.41002803779e-12)
(0.374459058096 -1.82688630891e-05 -6.29223345988e-12)
(0.318829775207 -1.31816044371e-05 -5.27403178719e-12)
(0.266609873755 -9.16980117143e-06 -4.3463844867e-12)
(0.217662199383 -6.07545952717e-06 -3.50074917554e-12)
(0.171841933375 -3.75762359725e-06 -2.72935732475e-12)
(0.128999856013 -2.09189895905e-06 -2.02514296156e-12)
(0.0889849638168 -9.7179688674e-07 -1.38173237629e-12)
(0.0516465491023 -3.11063421762e-07 -7.93386865339e-13)
(0.0168358331357 -1.91716184137e-08 -2.54955097542e-13)
(1.98495653285 -4.89550944587e-05 -5.70971869187e-12)
(1.96153213637 -0.000121111330132 -1.44696934738e-11)
(1.91525103482 -0.000172904733791 -2.09032385621e-11)
(1.85253242146 -0.00020876695079 -2.51795453023e-11)
(1.77763818829 -0.000227303353542 -2.75578676564e-11)