/*--------------------------------*- C++ -*----------------------------------*\
  =========                 |
  \\      /  F ield         | OpenFOAM: The Open Source CFD Toolbox
   \\    /   O peration     | Website:  https://openfoam.org
    \\  /    A nd           | Version:  12
     \\/     M anipulation  |
\*---------------------------------------------------------------------------*/
FoamFile
{
    format      ascii;
    class       volVectorField;
    location    "600";
    object      wallShearStress;
}
// * * * * * * * * * * * * * * * * * * * * * * * * * * * * * * * * * * * * * //

dimensions      [0 2 -2 0 0 0 0];

internalField   uniform (0 0 0);

boundaryField
{
    top
    {
        type            calculated;
        value           nonuniform List<vector> 
100
(
(-0.201066519425 0.0484002967009 3.26508205988e-12)
(-0.128375440368 0.000358147400454 4.72289228241e-12)
(-0.0848860580661 6.84773125101e-05 5.21752258945e-12)
(-0.0957543521938 7.64706501156e-06 5.24116603697e-12)
(-0.085372291909 1.84770319275e-05 5.19952291276e-12)
(-0.087165156957 6.26164754401e-06 5.00664444206e-12)
(-0.0838535704907 8.1476786059e-06 4.73849158996e-12)
(-0.0837061499644 4.34394867486e-06 4.39311650179e-12)
(-0.0824330834417 4.14862326987e-06 4.01432350063e-12)
(-0.0820517600629 2.72160539652e-06 3.61538881567e-12)
(-0.0814666916975 2.29597888239e-06 3.22565017042e-12)
(-0.0811672217324 1.65017305028e-06 2.85202604899e-12)
(-0.0808626881496 1.3217205712e-06 2.50374338613e-12)
(-0.0806664273718 9.88613018324e-07 2.18529373281e-12)
(-0.0804963728918 7.74833463227e-07 1.89867141968e-12)
(-0.0803750518143 5.89845754398e-07 1.64290655033e-12)
(-0.0802766934152 4.58207515017e-07 1.41737684105e-12)
(-0.0802033151425 3.51583216902e-07 1.21968744085e-12)
(-0.0801454672478 2.72159608669e-07 1.04624436066e-12)
(-0.0801014571894 2.09586717646e-07 8.95925484569e-13)
(-0.080067168223 1.62024379739e-07 7.66462599327e-13)
(-0.0800408564053 1.24984098851e-07 6.53841016841e-13)
(-0.0800204574018 9.65756681091e-08 5.56883181506e-13)
(-0.0800047447988 7.45574594421e-08 4.75457382072e-13)
(-0.0799925881136 5.76027009185e-08 4.03613643606e-13)
(-0.0799832085502 4.44872731053e-08 3.42614146867e-13)
(-0.0799759577726 3.43697130326e-08 2.90660332255e-13)
(-0.0799703591999 2.65493502751e-08 2.46324117324e-13)
(-0.0799660327349 2.05116141306e-08 2.08727960946e-13)
(-0.0799626909853 1.584605857e-08 1.7671208802e-13)
(-0.0799601088938 1.22425856336e-08 1.4923592071e-13)
(-0.0799581141823 9.45835618795e-09 1.25963542308e-13)
(-0.0799565729809 7.30754888824e-09 1.0630229868e-13)
(-0.0799553822907 5.64583782224e-09 8.96284815748e-14)
(-0.0799544623318 4.3621249317e-09 7.54553537322e-14)
(-0.0799537515676 3.37027107054e-09 6.33838045982e-14)
(-0.0799532024156 2.60388738582e-09 5.33085417657e-14)
(-0.0799527781383 2.01177342584e-09 4.47753035044e-14)
(-0.0799524503285 1.55431851755e-09 3.75337118587e-14)
(-0.0799521970531 1.20090468672e-09 3.14560458828e-14)
(-0.0799520013728 9.27887060355e-10 2.63001299134e-14)
(-0.0799518501884 7.16946823553e-10 2.18262756446e-14)
(-0.0799517333771 5.53891641296e-10 1.81574702666e-14)
(-0.0799516431305 4.27892252782e-10 1.50989015062e-14)
(-0.079951573408 3.30599045435e-10 1.24889255096e-14)
(-0.0799515195357 2.55451584156e-10 1.02425488185e-14)
(-0.0799514779141 1.97353972678e-10 8.59237180161e-15)
(-0.0799514457637 1.52482020104e-10 7.32130276586e-15)
(-0.0799514209232 1.17815908613e-10 5.85045610753e-15)
(-0.0799514017287 9.09916194042e-11 4.72049115881e-15)
(-0.0799513869057 7.02958878767e-11 3.71135747955e-15)
(-0.0799513754559 5.43234899655e-11 2.91375572289e-15)
(-0.0799513666061 4.19449580743e-11 2.28551137372e-15)
(-0.0799513597717 3.23732298064e-11 1.72628942951e-15)
(-0.0799513544965 2.50470836209e-11 1.26473261094e-15)
(-0.0799513504179 1.93781785605e-11 8.18220624384e-16)
(-0.0799513472675 1.49486161575e-11 7.31344221436e-16)
(-0.0799513448411 1.15251072787e-11 3.53102620469e-16)
(-0.0799513429652 8.88408747331e-12 2.59588914073e-17)
(-0.0799513415113 6.83318283692e-12 -1.19101687629e-16)
(-0.0799513403928 5.29910299904e-12 -2.73053290976e-16)
(-0.0799513395322 4.15792260575e-12 -3.59682204905e-16)
(-0.0799513388638 3.20894800063e-12 -4.94192255469e-16)
(-0.0799513383501 2.41506957646e-12 -5.76630002008e-16)
(-0.0799513379579 1.83951595896e-12 -6.26406019467e-16)
(-0.07995133765 1.43258522688e-12 -6.36633047794e-16)
(-0.07995133741 1.12025215445e-12 -6.66759316771e-16)
(-0.0799513372315 8.94803535515e-13 -6.83619888685e-16)
(-0.0799513370941 7.06161671359e-13 -7.15494167483e-16)
(-0.079951336983 4.99452551874e-13 -5.12775740062e-16)
(-0.0799513369008 3.52041083595e-13 -3.8394172347e-16)
(-0.0799513368399 3.03607673082e-13 -2.86752535508e-16)
(-0.0799513367878 2.50833000677e-13 -9.10777282625e-16)
(-0.0799513367489 1.7710712e-13 -5.83316950919e-16)
(-0.0799513367241 1.30249955469e-13 -4.25381506416e-16)
(-0.0799513367012 1.16949537701e-13 -3.18833361764e-16)
(-0.0799513366797 7.94614268608e-14 -8.29098230291e-16)
(-0.0799513366696 6.79923439769e-14 -5.52378199315e-16)
(-0.0799513366624 5.40291858486e-14 -4.40351476174e-16)
(-0.0799513366509 1.44142926549e-14 -3.45569608559e-16)
(-0.0799513366449 4.06693000759e-15 -7.33285570906e-16)
(-0.0799513366429 4.0142630408e-14 -5.48881406511e-16)
(-0.0799513366373 5.43789188439e-14 -5.68250308156e-16)
(-0.0799513366331 1.83720187327e-14 -5.6428025913e-16)
(-0.0799513366357 -1.81193450062e-14 -5.49819219439e-16)
(-0.0799513366346 -2.13327718794e-14 -5.18182400324e-16)
(-0.0799513366281 -1.69673448611e-15 -4.90082830059e-16)
(-0.0799513366284 2.31203139969e-14 -4.49607870079e-16)
(-0.0799513366304 4.32091456375e-14 -4.24389724677e-16)
(-0.0799513366276 1.3270631492e-14 -4.00722019102e-16)
(-0.0799513366269 -2.87704847614e-14 -3.84963294456e-16)
(-0.0799513366299 -3.35548766511e-14 -3.51077177942e-16)
(-0.0799513366279 1.8772423463e-14 -3.2315447005e-16)
(-0.0799513366241 2.35258664801e-14 -3.08554374357e-16)
(-0.0799513366279 5.11767535798e-15 -2.31770445071e-16)
(-0.0799513366287 -7.95972210703e-16 -1.93274862653e-16)
(-0.0799513366261 1.15066297169e-15 -1.69660507193e-16)
(-0.079951336625 -9.32483872389e-15 -2.02791770585e-16)
(-0.0799513366304 -1.89869075939e-14 -1.70005038532e-16)
(-0.0799513366244 1.14320233268e-14 -1.37473119139e-16)
)
;
    }
    inlet
    {
        type            calculated;
        value           uniform (0 0 0);
    }
    outlet
    {
        type            calculated;
        value           uniform (0 0 0);
    }
    front
    {
        type            wedge;
    }
    back
    {
        type            wedge;
    }
}


// ************************************************************************* //
