# Selection     : all 
# Volume        : 2.33333000e+00
# Time          	min(p)	location	cell	min(k)	location	cell	min(omega)	location	cell	min(nut)	location	cell
0               	0.00000000e+00	(-3.13296488e-01 1.00232707e-06 5.00000000e-01)	0	1.50000000e-04	(-3.13296488e-01 1.00232707e-06 5.00000000e-01)	0	7.50000000e+02	(-3.13296488e-01 1.00232707e-06 5.00000000e-01)	0	2.00000000e-07	(-3.13296488e-01 1.00232707e-06 5.00000000e-01)	0
0.00011999      	5.08799092e-04	(1.97852077e+00 9.42574530e-01 5.00000000e-01)	13055	1.20246309e-04	(1.97852077e+00 2.02494007e-05 5.00000000e-01)	1223	7.45008887e+02	(1.97852077e+00 9.42574530e-01 5.00000000e-01)	13055	8.46357128e-11	(2.00594380e-03 1.00232707e-06 5.00000000e-01)	24
0.000263962     	3.32957071e-04	(1.97852077e+00 9.42574530e-01 5.00000000e-01)	13055	7.93985673e-05	(1.93556230e+00 2.02494007e-05 5.00000000e-01)	1222	7.39287590e+02	(1.97852077e+00 9.42574530e-01 5.00000000e-01)	13055	9.77302029e-12	(2.00594380e-03 1.00232707e-06 5.00000000e-01)	24
0.000436717     	1.75306235e-04	(1.97852077e+00 9.42574530e-01 5.00000000e-01)	13055	1.47706298e-05	(2.00594380e-03 1.00232707e-06 5.00000000e-01)	24	7.32601610e+02	(1.97852077e+00 9.42574530e-01 5.00000000e-01)	13055	9.27465905e-13	(2.00594380e-03 1.00232707e-06 5.00000000e-01)	24
0.000644009     	1.16879022e-04	(1.97852077e+00 9.42574530e-01 5.00000000e-01)	13055	1.43094157e-06	(1.93556230e+00 1.00232707e-06 5.00000000e-01)	134	7.24754957e+02	(1.97852077e+00 9.42574530e-01 5.00000000e-01)	13055	8.98505710e-14	(1.93556230e+00 1.00232707e-06 5.00000000e-01)	134
0.000892729     	1.09286864e-04	(1.97852077e+00 9.42574530e-01 5.00000000e-01)	13055	1.59274421e-07	(6.03404640e-03 1.00232707e-06 5.00000000e-01)	25	7.15557086e+02	(1.97852077e+00 9.42574530e-01 5.00000000e-01)	13055	1.00010356e-14	(6.03404640e-03 1.00232707e-06 5.00000000e-01)	25
0.00119115      	9.74871149e-05	(1.97852077e+00 9.42574530e-01 5.00000000e-01)	13055	2.71594126e-08	(6.03404640e-03 1.00232707e-06 5.00000000e-01)	25	7.04811642e+02	(1.97852077e+00 9.42574530e-01 5.00000000e-01)	13055	1.70537272e-15	(6.03404640e-03 1.00232707e-06 5.00000000e-01)	25
0.00154914      	8.21179034e-05	(1.97852077e+00 9.42574530e-01 5.00000000e-01)	13055	8.97055116e-09	(6.03404640e-03 1.00232707e-06 5.00000000e-01)	25	6.92317418e+02	(1.97852077e+00 9.42574530e-01 5.00000000e-01)	13055	5.63271876e-16	(6.03404640e-03 1.00232707e-06 5.00000000e-01)	25
0.00197859      	7.02062306e-05	(1.97852077e+00 9.42574530e-01 5.00000000e-01)	13055	4.80909442e-09	(6.03404640e-03 1.00232707e-06 5.00000000e-01)	25	6.77871016e+02	(1.97852077e+00 9.42574530e-01 5.00000000e-01)	13055	3.01968919e-16	(6.03404640e-03 1.00232707e-06 5.00000000e-01)	25
0.00249383      	6.11412493e-05	(1.97852077e+00 9.42574530e-01 5.00000000e-01)	13055	3.18707117e-09	(6.03404640e-03 1.00232707e-06 5.00000000e-01)	25	6.61272603e+02	(1.97852077e+00 9.42574530e-01 5.00000000e-01)	13055	2.00120096e-16	(6.03404640e-03 1.00232707e-06 5.00000000e-01)	25
0.00311186      	5.34491514e-05	(1.97852077e+00 9.42574530e-01 5.00000000e-01)	13055	2.38431936e-09	(6.03404640e-03 1.00232707e-06 5.00000000e-01)	25	6.42348838e+02	(1.97852077e+00 9.42574530e-01 5.00000000e-01)	13055	1.49714328e-16	(6.03404640e-03 1.00232707e-06 5.00000000e-01)	25
0.00385304      	4.68014667e-05	(1.97852077e+00 9.42574530e-01 5.00000000e-01)	13055	1.91983300e-09	(6.03404640e-03 1.00232707e-06 5.00000000e-01)	25	6.20963009e+02	(1.97852077e+00 9.42574530e-01 5.00000000e-01)	13055	1.20548661e-16	(6.03404640e-03 1.00232707e-06 5.00000000e-01)	25
0.00474246      	4.10920527e-05	(1.97852077e+00 9.42574530e-01 5.00000000e-01)	13055	1.63578056e-09	(6.03404640e-03 1.00232707e-06 5.00000000e-01)	25	5.97015062e+02	(1.97852077e+00 9.42574530e-01 5.00000000e-01)	13055	1.02712661e-16	(6.03404640e-03 1.00232707e-06 5.00000000e-01)	25
0.00580919      	3.61991075e-05	(1.97852077e+00 9.42574530e-01 5.00000000e-01)	13055	1.44823365e-09	(6.03404640e-03 1.00232707e-06 5.00000000e-01)	25	5.70505305e+02	(1.97852077e+00 9.42574530e-01 5.00000000e-01)	13055	9.09363618e-17	(6.03404640e-03 1.00232707e-06 5.00000000e-01)	25
0.00708871      	3.19567957e-05	(1.97852077e+00 9.42574530e-01 5.00000000e-01)	13055	1.32011682e-09	(6.03404640e-03 1.00232707e-06 5.00000000e-01)	25	5.41513481e+02	(1.97852077e+00 9.42574530e-01 5.00000000e-01)	13055	8.28917492e-17	(6.03404640e-03 1.00232707e-06 5.00000000e-01)	25
0.00862335      	-1.25620901e-04	(6.03404640e-03 1.00232707e-06 5.00000000e-01)	25	1.22787737e-09	(6.03404640e-03 1.00232707e-06 5.00000000e-01)	25	5.10234070e+02	(1.97852077e+00 9.42574530e-01 5.00000000e-01)	13055	7.70999211e-17	(6.03404640e-03 1.00232707e-06 5.00000000e-01)	25
0.0104626       	-8.78327311e-04	(6.03404640e-03 1.00232707e-06 5.00000000e-01)	25	1.15992636e-09	(6.03404640e-03 1.00232707e-06 5.00000000e-01)	25	4.77000003e+02	(1.97852077e+00 9.42574530e-01 5.00000000e-01)	13055	7.28331946e-17	(6.03404640e-03 1.00232707e-06 5.00000000e-01)	25
0.0126665       	-1.55819235e-03	(6.03404640e-03 1.00232707e-06 5.00000000e-01)	25	1.10313121e-09	(1.00952164e-02 1.00232707e-06 5.00000000e-01)	26	4.42244835e+02	(1.97852077e+00 9.42574530e-01 5.00000000e-01)	13055	6.92669574e-17	(1.00952164e-02 1.00232707e-06 5.00000000e-01)	26
0.0153064       	-2.16832690e-03	(6.03404640e-03 1.00232707e-06 5.00000000e-01)	25	1.05577827e-09	(1.00952164e-02 1.00232707e-06 5.00000000e-01)	26	4.06502628e+02	(1.97852077e+00 9.42574530e-01 5.00000000e-01)	13055	6.62936085e-17	(1.00952164e-02 1.00232707e-06 5.00000000e-01)	26
0.0184727       	-2.72615601e-03	(6.03404640e-03 1.00232707e-06 5.00000000e-01)	25	1.01679897e-09	(1.00952164e-02 1.00232707e-06 5.00000000e-01)	26	3.70325204e+02	(1.97852077e+00 9.42574530e-01 5.00000000e-01)	13055	6.38460504e-17	(1.00952164e-02 1.00232707e-06 5.00000000e-01)	26
0.0222623       	-3.20656039e-03	(6.03404640e-03 1.00232707e-06 5.00000000e-01)	25	9.84863277e-10	(1.00952164e-02 1.00232707e-06 5.00000000e-01)	26	3.34416656e+02	(1.97852077e+00 9.42574530e-01 5.00000000e-01)	13055	6.18407694e-17	(1.00952164e-02 1.00232707e-06 5.00000000e-01)	26
0.02681         	-3.58984814e-03	(6.03404640e-03 1.00232707e-06 5.00000000e-01)	25	9.59234488e-10	(1.00952164e-02 1.00232707e-06 5.00000000e-01)	26	2.99307199e+02	(1.97852077e+00 9.42574530e-01 5.00000000e-01)	13055	6.02315064e-17	(1.00952164e-02 1.00232707e-06 5.00000000e-01)	26
0.0322468       	-3.85924164e-03	(6.03404640e-03 1.00232707e-06 5.00000000e-01)	25	9.39564240e-10	(1.00952164e-02 1.00232707e-06 5.00000000e-01)	26	2.65696897e+02	(1.97852077e+00 9.42574530e-01 5.00000000e-01)	13055	5.89963874e-17	(1.00952164e-02 1.00232707e-06 5.00000000e-01)	26
0.0387418       	-4.05419472e-03	(6.03404640e-03 1.00232707e-06 5.00000000e-01)	25	9.25666624e-10	(1.00952164e-02 1.00232707e-06 5.00000000e-01)	26	2.34070557e+02	(1.97852077e+00 9.42574530e-01 5.00000000e-01)	13055	5.81237391e-17	(1.00952164e-02 1.00232707e-06 5.00000000e-01)	26
0.0464938       	-4.19214582e-03	(6.03404640e-03 1.00232707e-06 5.00000000e-01)	25	9.11760413e-10	(1.41907466e-02 1.00232707e-06 5.00000000e-01)	27	2.04792473e+02	(1.97852077e+00 9.42574530e-01 5.00000000e-01)	13055	5.72505512e-17	(1.41907466e-02 1.00232707e-06 5.00000000e-01)	27
0.0557512       	-4.28083541e-03	(6.03404640e-03 1.00232707e-06 5.00000000e-01)	25	9.00322188e-10	(1.41907466e-02 1.00232707e-06 5.00000000e-01)	27	1.78057487e+02	(1.97852077e+00 9.42574530e-01 5.00000000e-01)	13055	5.65323310e-17	(1.41907466e-02 1.00232707e-06 5.00000000e-01)	27
0.0656906       	-4.21505796e-03	(6.03404640e-03 1.00232707e-06 5.00000000e-01)	25	8.92198951e-10	(1.97852077e+00 1.00232707e-06 5.00000000e-01)	135	1.56214192e+02	(1.97852077e+00 9.42574530e-01 5.00000000e-01)	13055	5.60222630e-17	(1.97852077e+00 1.00232707e-06 5.00000000e-01)	135
0.0756301       	-4.06485471e-03	(6.03404640e-03 1.00232707e-06 5.00000000e-01)	25	8.86251064e-10	(1.97852077e+00 1.00232707e-06 5.00000000e-01)	135	1.39319846e+02	(1.97852077e+00 9.42574530e-01 5.00000000e-01)	13055	5.56487879e-17	(1.97852077e+00 1.00232707e-06 5.00000000e-01)	135
0.0855696       	-3.91194852e-03	(6.03404640e-03 1.00232707e-06 5.00000000e-01)	25	8.84328937e-10	(1.97852077e+00 1.00232707e-06 5.00000000e-01)	135	1.25899850e+02	(1.97852077e+00 9.42574530e-01 5.00000000e-01)	13055	5.55280952e-17	(1.97852077e+00 1.00232707e-06 5.00000000e-01)	135
0.095509        	-3.75363475e-03	(6.03404640e-03 1.00232707e-06 5.00000000e-01)	25	8.86905362e-10	(1.97852077e+00 1.00232707e-06 5.00000000e-01)	135	1.14970420e+02	(1.97852077e+00 9.42574530e-01 5.00000000e-01)	13055	5.56898721e-17	(1.97852077e+00 1.00232707e-06 5.00000000e-01)	135
0.105448        	-3.58979673e-03	(6.03404640e-03 1.00232707e-06 5.00000000e-01)	25	8.94479933e-10	(1.97852077e+00 1.00232707e-06 5.00000000e-01)	135	1.05878326e+02	(1.97852077e+00 9.42574530e-01 5.00000000e-01)	13055	5.61654887e-17	(1.97852077e+00 1.00232707e-06 5.00000000e-01)	135
0.115388        	-3.41526198e-03	(6.03404640e-03 1.00232707e-06 5.00000000e-01)	25	9.07708730e-10	(1.97852077e+00 1.00232707e-06 5.00000000e-01)	135	9.81810585e+01	(1.97852077e+00 9.42574530e-01 5.00000000e-01)	13055	5.69961410e-17	(1.97852077e+00 1.00232707e-06 5.00000000e-01)	135
0.125327        	-3.23038054e-03	(6.03404640e-03 1.00232707e-06 5.00000000e-01)	25	9.27507590e-10	(1.97852077e+00 1.00232707e-06 5.00000000e-01)	135	9.15700598e+01	(1.97852077e+00 9.42574530e-01 5.00000000e-01)	13055	5.82393357e-17	(1.97852077e+00 1.00232707e-06 5.00000000e-01)	135
0.135267        	-3.02917714e-03	(6.03404640e-03 1.00232707e-06 5.00000000e-01)	25	9.55098923e-10	(1.97852077e+00 1.00232707e-06 5.00000000e-01)	135	8.58236247e+01	(1.97852077e+00 9.42574530e-01 5.00000000e-01)	13055	5.99718292e-17	(1.97852077e+00 1.00232707e-06 5.00000000e-01)	135
0.145206        	-2.80701210e-03	(6.03404640e-03 1.00232707e-06 5.00000000e-01)	25	9.92037213e-10	(1.97852077e+00 1.00232707e-06 5.00000000e-01)	135	8.07779939e+01	(1.97852077e+00 9.42574530e-01 5.00000000e-01)	13055	6.22912295e-17	(1.97852077e+00 1.00232707e-06 5.00000000e-01)	135
0.155146        	-2.55644833e-03	(6.03404640e-03 1.00232707e-06 5.00000000e-01)	25	1.04023899e-09	(1.97852077e+00 1.00232707e-06 5.00000000e-01)	135	7.63092568e+01	(1.97852077e+00 9.42574530e-01 5.00000000e-01)	13055	6.53178782e-17	(1.97852077e+00 1.00232707e-06 5.00000000e-01)	135
0.165085        	-2.45343367e-03	(1.00952164e-02 1.00232707e-06 5.00000000e-01)	26	1.10202345e-09	(1.97852077e+00 1.00232707e-06 5.00000000e-01)	135	7.23216960e+01	(1.97852077e+00 9.42574530e-01 5.00000000e-01)	13055	6.91974000e-17	(1.97852077e+00 1.00232707e-06 5.00000000e-01)	135
0.175025        	-2.37285525e-03	(1.00952164e-02 1.00232707e-06 5.00000000e-01)	26	1.14097013e-09	(6.03404640e-03 1.00232707e-06 5.00000000e-01)	25	6.87400540e+01	(1.97852077e+00 9.42574530e-01 5.00000000e-01)	13055	7.16429098e-17	(6.03404640e-03 1.00232707e-06 5.00000000e-01)	25
0.184964        	-2.29213097e-03	(1.00952164e-02 1.00232707e-06 5.00000000e-01)	26	1.17927480e-09	(6.03404640e-03 1.00232707e-06 5.00000000e-01)	25	6.55042512e+01	(1.97852077e+00 9.42574530e-01 5.00000000e-01)	13055	7.40481067e-17	(6.03404640e-03 1.00232707e-06 5.00000000e-01)	25
0.194904        	-2.21325227e-03	(1.00952164e-02 1.00232707e-06 5.00000000e-01)	26	1.22639713e-09	(6.03404640e-03 1.00232707e-06 5.00000000e-01)	25	6.25656853e+01	(1.97852077e+00 9.42574530e-01 5.00000000e-01)	13055	7.70069753e-17	(6.03404640e-03 1.00232707e-06 5.00000000e-01)	25
0.204843        	-2.12910262e-03	(1.00952164e-02 1.00232707e-06 5.00000000e-01)	26	1.28110148e-09	(6.03404640e-03 1.00232707e-06 5.00000000e-01)	25	5.98845782e+01	(1.97852077e+00 9.42574530e-01 5.00000000e-01)	13055	8.04419286e-17	(6.03404640e-03 1.00232707e-06 5.00000000e-01)	25
0.214783        	-2.03952932e-03	(1.00952164e-02 1.00232707e-06 5.00000000e-01)	26	1.34184975e-09	(6.03404640e-03 1.00232707e-06 5.00000000e-01)	25	5.74280354e+01	(1.97852077e+00 9.42574530e-01 5.00000000e-01)	13055	8.42563865e-17	(6.03404640e-03 1.00232707e-06 5.00000000e-01)	25
0.224722        	-1.94701562e-03	(1.00952164e-02 1.00232707e-06 5.00000000e-01)	26	1.40703294e-09	(6.03404640e-03 1.00232707e-06 5.00000000e-01)	25	5.51686025e+01	(1.97852077e+00 9.42574530e-01 5.00000000e-01)	13055	8.83493188e-17	(6.03404640e-03 1.00232707e-06 5.00000000e-01)	25
0.234661        	-1.84722883e-03	(1.00952164e-02 1.00232707e-06 5.00000000e-01)	26	1.47516188e-09	(6.03404640e-03 1.00232707e-06 5.00000000e-01)	25	5.30831736e+01	(1.97852077e+00 9.42574530e-01 5.00000000e-01)	13055	9.26272184e-17	(6.03404640e-03 1.00232707e-06 5.00000000e-01)	25
0.244601        	-1.74499126e-03	(1.00952164e-02 1.00232707e-06 5.00000000e-01)	26	1.54537410e-09	(6.03404640e-03 1.00232707e-06 5.00000000e-01)	25	5.11521551e+01	(1.97852077e+00 9.42574530e-01 5.00000000e-01)	13055	9.70359293e-17	(6.03404640e-03 1.00232707e-06 5.00000000e-01)	25
0.25454         	-1.64166006e-03	(1.00952164e-02 1.00232707e-06 5.00000000e-01)	26	1.61736389e-09	(6.03404640e-03 1.00232707e-06 5.00000000e-01)	25	4.93588166e+01	(1.97852077e+00 9.42574530e-01 5.00000000e-01)	13055	1.01556256e-16	(6.03404640e-03 1.00232707e-06 5.00000000e-01)	25
0.26448         	-1.53536891e-03	(1.00952164e-02 1.00232707e-06 5.00000000e-01)	26	1.69082146e-09	(6.03404640e-03 1.00232707e-06 5.00000000e-01)	25	4.76887824e+01	(1.97852077e+00 9.42574530e-01 5.00000000e-01)	13055	1.06168747e-16	(6.03404640e-03 1.00232707e-06 5.00000000e-01)	25
0.274419        	-1.42984363e-03	(1.00952164e-02 1.00232707e-06 5.00000000e-01)	26	1.76615087e-09	(6.03404640e-03 1.00232707e-06 5.00000000e-01)	25	4.61296281e+01	(1.97852077e+00 9.42574530e-01 5.00000000e-01)	13055	1.10898773e-16	(6.03404640e-03 1.00232707e-06 5.00000000e-01)	25
0.284359        	-1.32360287e-03	(1.00952164e-02 1.00232707e-06 5.00000000e-01)	26	1.84439447e-09	(6.03404640e-03 1.00232707e-06 5.00000000e-01)	25	4.46705576e+01	(1.97852077e+00 9.42574530e-01 5.00000000e-01)	13055	1.15811784e-16	(6.03404640e-03 1.00232707e-06 5.00000000e-01)	25
0.294298        	-1.22469572e-03	(1.00952164e-02 1.00232707e-06 5.00000000e-01)	26	1.92712723e-09	(6.03404640e-03 1.00232707e-06 5.00000000e-01)	25	4.33021434e+01	(1.97852077e+00 9.42574530e-01 5.00000000e-01)	13055	1.21006675e-16	(6.03404640e-03 1.00232707e-06 5.00000000e-01)	25
0.304238        	-1.12740417e-03	(1.00952164e-02 1.00232707e-06 5.00000000e-01)	26	2.01601734e-09	(6.03404640e-03 1.00232707e-06 5.00000000e-01)	25	4.20161147e+01	(1.97852077e+00 9.42574530e-01 5.00000000e-01)	13055	1.26588194e-16	(6.03404640e-03 1.00232707e-06 5.00000000e-01)	25
0.314177        	-1.03207042e-03	(1.00952164e-02 1.00232707e-06 5.00000000e-01)	26	2.11216323e-09	(6.03404640e-03 1.00232707e-06 5.00000000e-01)	25	4.08051843e+01	(1.97852077e+00 9.42574530e-01 5.00000000e-01)	13055	1.32625311e-16	(6.03404640e-03 1.00232707e-06 5.00000000e-01)	25
0.324117        	-9.40222243e-04	(1.00952164e-02 1.00232707e-06 5.00000000e-01)	26	2.21591241e-09	(6.03404640e-03 1.00232707e-06 5.00000000e-01)	25	3.96629057e+01	(1.97852077e+00 9.42574530e-01 5.00000000e-01)	13055	1.39139849e-16	(6.03404640e-03 1.00232707e-06 5.00000000e-01)	25
0.334056        	-8.51412578e-04	(1.00952164e-02 1.00232707e-06 5.00000000e-01)	26	2.32737457e-09	(6.03404640e-03 1.00232707e-06 5.00000000e-01)	25	3.85835546e+01	(1.97852077e+00 9.42574530e-01 5.00000000e-01)	13055	1.46138695e-16	(6.03404640e-03 1.00232707e-06 5.00000000e-01)	25
0.343996        	-7.64263941e-04	(1.00952164e-02 1.00232707e-06 5.00000000e-01)	26	2.44669315e-09	(6.03404640e-03 1.00232707e-06 5.00000000e-01)	25	3.75620297e+01	(1.97852077e+00 9.42574530e-01 5.00000000e-01)	13055	1.53630854e-16	(6.03404640e-03 1.00232707e-06 5.00000000e-01)	25
0.353935        	-6.78176956e-04	(1.00952164e-02 1.00232707e-06 5.00000000e-01)	26	2.57403114e-09	(6.03404640e-03 1.00232707e-06 5.00000000e-01)	25	3.65937702e+01	(1.97852077e+00 9.42574530e-01 5.00000000e-01)	13055	1.61626563e-16	(6.03404640e-03 1.00232707e-06 5.00000000e-01)	25
0.363874        	-5.93122152e-04	(1.00952164e-02 1.00232707e-06 5.00000000e-01)	26	2.70943488e-09	(6.03404640e-03 1.00232707e-06 5.00000000e-01)	25	3.56746854e+01	(1.97852077e+00 9.42574530e-01 5.00000000e-01)	13055	1.70128729e-16	(6.03404640e-03 1.00232707e-06 5.00000000e-01)	25
0.373814        	-5.09035180e-04	(1.00952164e-02 1.00232707e-06 5.00000000e-01)	26	2.85275851e-09	(6.03404640e-03 1.00232707e-06 5.00000000e-01)	25	3.48010953e+01	(1.97852077e+00 9.42574530e-01 5.00000000e-01)	13055	1.79128195e-16	(6.03404640e-03 1.00232707e-06 5.00000000e-01)	25
0.383753        	-4.25718109e-04	(1.00952164e-02 1.00232707e-06 5.00000000e-01)	26	3.00375424e-09	(6.03404640e-03 1.00232707e-06 5.00000000e-01)	25	3.39696804e+01	(1.97852077e+00 9.42574530e-01 5.00000000e-01)	13055	1.88609402e-16	(6.03404640e-03 1.00232707e-06 5.00000000e-01)	25
0.393693        	-3.43789498e-04	(1.00952164e-02 1.00232707e-06 5.00000000e-01)	26	3.16207391e-09	(6.03404640e-03 1.00232707e-06 5.00000000e-01)	25	3.31774379e+01	(1.97852077e+00 9.42574530e-01 5.00000000e-01)	13055	1.98550487e-16	(6.03404640e-03 1.00232707e-06 5.00000000e-01)	25
0.403632        	-2.63816379e-04	(1.00952164e-02 1.00232707e-06 5.00000000e-01)	26	3.32723185e-09	(6.03404640e-03 1.00232707e-06 5.00000000e-01)	25	3.24216452e+01	(1.97852077e+00 9.42574530e-01 5.00000000e-01)	13055	2.08920956e-16	(6.03404640e-03 1.00232707e-06 5.00000000e-01)	25
0.413572        	-1.86007464e-04	(1.00952164e-02 1.00232707e-06 5.00000000e-01)	26	3.49864103e-09	(6.03404640e-03 1.00232707e-06 5.00000000e-01)	25	3.16998274e+01	(1.97852077e+00 9.42574530e-01 5.00000000e-01)	13055	2.19683948e-16	(6.03404640e-03 1.00232707e-06 5.00000000e-01)	25
0.423511        	-1.09236316e-04	(1.00952164e-02 1.00232707e-06 5.00000000e-01)	26	3.67561975e-09	(6.03404640e-03 1.00232707e-06 5.00000000e-01)	25	3.10097299e+01	(1.97852077e+00 9.42574530e-01 5.00000000e-01)	13055	2.30796658e-16	(6.03404640e-03 1.00232707e-06 5.00000000e-01)	25
0.433451        	-3.44089034e-05	(1.00952164e-02 1.00232707e-06 5.00000000e-01)	26	3.85745717e-09	(6.03404640e-03 1.00232707e-06 5.00000000e-01)	25	3.03492942e+01	(1.97852077e+00 9.42574530e-01 5.00000000e-01)	13055	2.42214452e-16	(6.03404640e-03 1.00232707e-06 5.00000000e-01)	25
0.44339         	1.43144064e-05	(1.97852077e+00 9.42574530e-01 5.00000000e-01)	13055	4.04347492e-09	(6.03404640e-03 1.00232707e-06 5.00000000e-01)	25	2.97166369e+01	(1.97852077e+00 9.42574530e-01 5.00000000e-01)	13055	2.53894734e-16	(6.03404640e-03 1.00232707e-06 5.00000000e-01)	25
0.45333         	1.44694554e-05	(1.97852077e+00 9.42574530e-01 5.00000000e-01)	13055	4.23302280e-09	(6.03404640e-03 1.00232707e-06 5.00000000e-01)	25	2.91100316e+01	(1.63485302e+00 9.42574530e-01 5.00000000e-01)	13047	2.65796677e-16	(6.03404640e-03 1.00232707e-06 5.00000000e-01)	25
0.463269        	1.46194841e-05	(1.97852077e+00 9.42574530e-01 5.00000000e-01)	13055	4.42542714e-09	(6.03404640e-03 1.00232707e-06 5.00000000e-01)	25	2.85278925e+01	(1.63485302e+00 9.42574530e-01 5.00000000e-01)	13047	2.77877981e-16	(6.03404640e-03 1.00232707e-06 5.00000000e-01)	25
0.473209        	1.47663554e-05	(1.97852077e+00 9.42574530e-01 5.00000000e-01)	13055	4.61997392e-09	(6.03404640e-03 1.00232707e-06 5.00000000e-01)	25	2.79687608e+01	(1.63485302e+00 9.42574530e-01 5.00000000e-01)	13047	2.90093811e-16	(6.03404640e-03 1.00232707e-06 5.00000000e-01)	25
0.483148        	1.49108704e-05	(1.97852077e+00 9.42574530e-01 5.00000000e-01)	13055	4.81602141e-09	(6.03404640e-03 1.00232707e-06 5.00000000e-01)	25	2.74312915e+01	(1.63485302e+00 9.42574530e-01 5.00000000e-01)	13047	3.02403873e-16	(6.03404640e-03 1.00232707e-06 5.00000000e-01)	25
0.493087        	1.50505935e-05	(1.97852077e+00 9.42574530e-01 5.00000000e-01)	13055	5.01297461e-09	(6.03404640e-03 1.00232707e-06 5.00000000e-01)	25	2.69142432e+01	(1.63485302e+00 9.42574530e-01 5.00000000e-01)	13047	3.14770805e-16	(6.03404640e-03 1.00232707e-06 5.00000000e-01)	25
0.503027        	1.51850922e-05	(1.97852077e+00 9.42574530e-01 5.00000000e-01)	13055	5.21019390e-09	(6.03404640e-03 1.00232707e-06 5.00000000e-01)	25	2.64164678e+01	(1.67781148e+00 9.42574530e-01 5.00000000e-01)	13048	3.27154446e-16	(6.03404640e-03 1.00232707e-06 5.00000000e-01)	25
0.512966        	1.53155836e-05	(1.97852077e+00 9.42574530e-01 5.00000000e-01)	13055	5.40699398e-09	(6.03404640e-03 1.00232707e-06 5.00000000e-01)	25	2.59369021e+01	(1.67781148e+00 9.42574530e-01 5.00000000e-01)	13048	3.39511763e-16	(6.03404640e-03 1.00232707e-06 5.00000000e-01)	25
0.522906        	1.54433709e-05	(1.97852077e+00 9.42574530e-01 5.00000000e-01)	13055	5.60266736e-09	(6.03404640e-03 1.00232707e-06 5.00000000e-01)	25	2.54745598e+01	(1.67781148e+00 9.42574530e-01 5.00000000e-01)	13048	3.51798334e-16	(6.03404640e-03 1.00232707e-06 5.00000000e-01)	25
0.532845        	1.55666677e-05	(1.97852077e+00 9.42574530e-01 5.00000000e-01)	13055	5.60305867e-09	(2.00594380e-03 1.00232707e-06 5.00000000e-01)	24	2.50285252e+01	(1.67781148e+00 9.42574530e-01 5.00000000e-01)	13048	3.51822905e-16	(2.00594380e-03 1.00232707e-06 5.00000000e-01)	24
0.542785        	1.56847427e-05	(1.97852077e+00 9.42574530e-01 5.00000000e-01)	13055	5.50939068e-09	(2.00594380e-03 1.00232707e-06 5.00000000e-01)	24	2.45979462e+01	(1.97852077e+00 9.42574530e-01 5.00000000e-01)	13055	3.45941377e-16	(2.00594380e-03 1.00232707e-06 5.00000000e-01)	24
0.552724        	1.51572335e-05	(6.03404640e-03 1.00232707e-06 5.00000000e-01)	25	5.41780498e-09	(2.00594380e-03 1.00232707e-06 5.00000000e-01)	24	2.41820295e+01	(1.97852077e+00 9.42574530e-01 5.00000000e-01)	13055	3.40190599e-16	(2.00594380e-03 1.00232707e-06 5.00000000e-01)	24
0.562664        	-9.81390251e-06	(6.03404640e-03 1.00232707e-06 5.00000000e-01)	25	5.32824600e-09	(2.00594380e-03 1.00232707e-06 5.00000000e-01)	24	2.37800354e+01	(1.97852077e+00 9.42574530e-01 5.00000000e-01)	13055	3.34567081e-16	(2.00594380e-03 1.00232707e-06 5.00000000e-01)	24
0.572603        	-1.44237940e-05	(6.03404640e-03 1.00232707e-06 5.00000000e-01)	25	5.24058540e-09	(2.00594380e-03 1.00232707e-06 5.00000000e-01)	24	2.33912731e+01	(1.97852077e+00 9.42574530e-01 5.00000000e-01)	13055	3.29062765e-16	(2.00594380e-03 1.00232707e-06 5.00000000e-01)	24
0.582543        	-1.71653716e-06	(6.03404640e-03 1.00232707e-06 5.00000000e-01)	25	5.15473125e-09	(2.00594380e-03 1.00232707e-06 5.00000000e-01)	24	2.30150972e+01	(1.97852077e+00 9.42574530e-01 5.00000000e-01)	13055	3.23671878e-16	(2.00594380e-03 1.00232707e-06 5.00000000e-01)	24
0.592482        	1.62144758e-05	(1.97852077e+00 9.42574530e-01 5.00000000e-01)	13055	5.07072374e-09	(2.00594380e-03 1.00232707e-06 5.00000000e-01)	24	2.26509035e+01	(1.97852077e+00 9.42574530e-01 5.00000000e-01)	13055	3.18396944e-16	(2.00594380e-03 1.00232707e-06 5.00000000e-01)	24
0.602422        	1.63078244e-05	(1.97852077e+00 9.42574530e-01 5.00000000e-01)	13055	4.98850130e-09	(2.00594380e-03 1.00232707e-06 5.00000000e-01)	24	2.22981261e+01	(1.97852077e+00 9.42574530e-01 5.00000000e-01)	13055	3.13234096e-16	(2.00594380e-03 1.00232707e-06 5.00000000e-01)	24
0.612361        	1.63980001e-05	(1.97852077e+00 9.42574530e-01 5.00000000e-01)	13055	4.90800059e-09	(2.00594380e-03 1.00232707e-06 5.00000000e-01)	24	2.19562342e+01	(1.97852077e+00 9.42574530e-01 5.00000000e-01)	13055	3.08179358e-16	(2.00594380e-03 1.00232707e-06 5.00000000e-01)	24
0.6223          	1.64844281e-05	(1.97852077e+00 9.42574530e-01 5.00000000e-01)	13055	4.82917729e-09	(2.00594380e-03 1.00232707e-06 5.00000000e-01)	24	2.16247297e+01	(1.97852077e+00 9.42574530e-01 5.00000000e-01)	13055	3.03229947e-16	(2.00594380e-03 1.00232707e-06 5.00000000e-01)	24
0.63224         	1.65663960e-05	(1.97852077e+00 9.42574530e-01 5.00000000e-01)	13055	4.75199660e-09	(2.00594380e-03 1.00232707e-06 5.00000000e-01)	24	2.13031444e+01	(1.97852077e+00 9.42574530e-01 5.00000000e-01)	13055	2.98383677e-16	(2.00594380e-03 1.00232707e-06 5.00000000e-01)	24
0.642179        	1.66443837e-05	(1.97852077e+00 9.42574530e-01 5.00000000e-01)	13055	4.67642578e-09	(2.00594380e-03 1.00232707e-06 5.00000000e-01)	24	2.09910378e+01	(1.97852077e+00 9.42574530e-01 5.00000000e-01)	13055	2.93638493e-16	(2.00594380e-03 1.00232707e-06 5.00000000e-01)	24
0.652119        	1.67187987e-05	(1.97852077e+00 9.42574530e-01 5.00000000e-01)	13055	4.60243142e-09	(2.00594380e-03 1.00232707e-06 5.00000000e-01)	24	2.06879954e+01	(1.97852077e+00 9.42574530e-01 5.00000000e-01)	13055	2.88992297e-16	(2.00594380e-03 1.00232707e-06 5.00000000e-01)	24
0.662058        	1.67905141e-05	(1.97852077e+00 9.42574530e-01 5.00000000e-01)	13055	4.52997978e-09	(2.00594380e-03 1.00232707e-06 5.00000000e-01)	24	2.03936264e+01	(1.97852077e+00 9.42574530e-01 5.00000000e-01)	13055	2.84442969e-16	(2.00594380e-03 1.00232707e-06 5.00000000e-01)	24
0.671998        	1.68595029e-05	(1.97852077e+00 9.42574530e-01 5.00000000e-01)	13055	4.45903688e-09	(2.00594380e-03 1.00232707e-06 5.00000000e-01)	24	2.01075625e+01	(1.97852077e+00 9.42574530e-01 5.00000000e-01)	13055	2.79988378e-16	(2.00594380e-03 1.00232707e-06 5.00000000e-01)	24
0.681937        	1.69242332e-05	(1.97852077e+00 9.42574530e-01 5.00000000e-01)	13055	4.38956928e-09	(2.00594380e-03 1.00232707e-06 5.00000000e-01)	24	1.98294556e+01	(1.97852077e+00 9.42574530e-01 5.00000000e-01)	13055	2.75626422e-16	(2.00594380e-03 1.00232707e-06 5.00000000e-01)	24
0.691877        	1.69853051e-05	(1.97852077e+00 9.42574530e-01 5.00000000e-01)	13055	4.32154438e-09	(2.00594380e-03 1.00232707e-06 5.00000000e-01)	24	1.95589771e+01	(1.97852077e+00 9.42574530e-01 5.00000000e-01)	13055	2.71355055e-16	(2.00594380e-03 1.00232707e-06 5.00000000e-01)	24
0.701816        	1.70432717e-05	(1.97852077e+00 9.42574530e-01 5.00000000e-01)	13055	4.25498722e-09	(2.00594380e-03 1.00232707e-06 5.00000000e-01)	24	1.92958164e+01	(1.97852077e+00 9.42574530e-01 5.00000000e-01)	13055	2.67175850e-16	(2.00594380e-03 1.00232707e-06 5.00000000e-01)	24
0.711756        	1.70989362e-05	(1.97852077e+00 9.42574530e-01 5.00000000e-01)	13055	4.18989877e-09	(2.00594380e-03 1.00232707e-06 5.00000000e-01)	24	1.90396793e+01	(1.97852077e+00 9.42574530e-01 5.00000000e-01)	13055	2.63088867e-16	(2.00594380e-03 1.00232707e-06 5.00000000e-01)	24
0.721695        	1.71529335e-05	(1.97852077e+00 9.42574530e-01 5.00000000e-01)	13055	4.12618135e-09	(2.00594380e-03 1.00232707e-06 5.00000000e-01)	24	1.87902874e+01	(1.97852077e+00 9.42574530e-01 5.00000000e-01)	13055	2.59087972e-16	(2.00594380e-03 1.00232707e-06 5.00000000e-01)	24
0.731635        	1.72000758e-05	(1.97852077e+00 9.42574530e-01 5.00000000e-01)	13055	4.06376295e-09	(2.00594380e-03 1.00232707e-06 5.00000000e-01)	24	1.85473768e+01	(1.97852077e+00 9.42574530e-01 5.00000000e-01)	13055	2.55168645e-16	(2.00594380e-03 1.00232707e-06 5.00000000e-01)	24
0.741574        	1.72409802e-05	(1.97852077e+00 9.42574530e-01 5.00000000e-01)	13055	4.00260393e-09	(2.00594380e-03 1.00232707e-06 5.00000000e-01)	24	1.83106973e+01	(1.97852077e+00 9.42574530e-01 5.00000000e-01)	13055	2.51328395e-16	(2.00594380e-03 1.00232707e-06 5.00000000e-01)	24
0.751513        	1.72778648e-05	(1.97852077e+00 9.42574530e-01 5.00000000e-01)	13055	3.94267791e-09	(2.00594380e-03 1.00232707e-06 5.00000000e-01)	24	1.80800113e+01	(1.97852077e+00 9.42574530e-01 5.00000000e-01)	13055	2.47565567e-16	(2.00594380e-03 1.00232707e-06 5.00000000e-01)	24
0.761453        	1.73119966e-05	(1.97852077e+00 9.42574530e-01 5.00000000e-01)	13055	3.88396126e-09	(2.00594380e-03 1.00232707e-06 5.00000000e-01)	24	1.78550932e+01	(1.97852077e+00 9.42574530e-01 5.00000000e-01)	13055	2.43878677e-16	(2.00594380e-03 1.00232707e-06 5.00000000e-01)	24
0.771392        	1.73437662e-05	(1.97852077e+00 9.42574530e-01 5.00000000e-01)	13055	3.82642956e-09	(2.00594380e-03 1.00232707e-06 5.00000000e-01)	24	1.76357287e+01	(1.97852077e+00 9.42574530e-01 5.00000000e-01)	13055	2.40266190e-16	(2.00594380e-03 1.00232707e-06 5.00000000e-01)	24
0.781332        	1.73746878e-05	(1.97852077e+00 9.42574530e-01 5.00000000e-01)	13055	3.77005722e-09	(2.00594380e-03 1.00232707e-06 5.00000000e-01)	24	1.74217140e+01	(1.97852077e+00 9.42574530e-01 5.00000000e-01)	13055	2.36726503e-16	(2.00594380e-03 1.00232707e-06 5.00000000e-01)	24
0.791271        	1.74016134e-05	(1.97852077e+00 9.42574530e-01 5.00000000e-01)	13055	3.71481841e-09	(2.00594380e-03 1.00232707e-06 5.00000000e-01)	24	1.72128552e+01	(1.97852077e+00 9.42574530e-01 5.00000000e-01)	13055	2.33257990e-16	(2.00594380e-03 1.00232707e-06 5.00000000e-01)	24
0.801211        	1.74246258e-05	(1.97852077e+00 9.42574530e-01 5.00000000e-01)	13055	3.66068745e-09	(2.00594380e-03 1.00232707e-06 5.00000000e-01)	24	1.70089674e+01	(1.97852077e+00 9.42574530e-01 5.00000000e-01)	13055	2.29859041e-16	(2.00594380e-03 1.00232707e-06 5.00000000e-01)	24
0.81115         	1.74447378e-05	(1.97852077e+00 9.42574530e-01 5.00000000e-01)	13055	3.60763932e-09	(2.00594380e-03 1.00232707e-06 5.00000000e-01)	24	1.68098748e+01	(1.97852077e+00 9.42574530e-01 5.00000000e-01)	13055	2.26528084e-16	(2.00594380e-03 1.00232707e-06 5.00000000e-01)	24
0.82109         	1.74632007e-05	(1.97852077e+00 9.42574530e-01 5.00000000e-01)	13055	3.55564960e-09	(2.00594380e-03 1.00232707e-06 5.00000000e-01)	24	1.66154098e+01	(1.97852077e+00 9.42574530e-01 5.00000000e-01)	13055	2.23263586e-16	(2.00594380e-03 1.00232707e-06 5.00000000e-01)	24
0.831029        	1.74811976e-05	(1.97852077e+00 9.42574530e-01 5.00000000e-01)	13055	3.50469437e-09	(2.00594380e-03 1.00232707e-06 5.00000000e-01)	24	1.64254122e+01	(1.97852077e+00 9.42574530e-01 5.00000000e-01)	13055	2.20064045e-16	(2.00594380e-03 1.00232707e-06 5.00000000e-01)	24
0.840969        	1.74984791e-05	(1.97852077e+00 9.42574530e-01 5.00000000e-01)	13055	3.45475003e-09	(2.00594380e-03 1.00232707e-06 5.00000000e-01)	24	1.62397295e+01	(1.97852077e+00 9.42574530e-01 5.00000000e-01)	13055	2.16927979e-16	(2.00594380e-03 1.00232707e-06 5.00000000e-01)	24