/*--------------------------------*- C++ -*----------------------------------*\
  =========                 |
  \\      /  F ield         | OpenFOAM: The Open Source CFD Toolbox
   \\    /   O peration     | Website:  https://openfoam.org
    \\  /    A nd           | Version:  12
     \\/     M anipulation  |
\*---------------------------------------------------------------------------*/
FoamFile
{
    format      ascii;
    class       volScalarField;
    location    "300";
    object      nut;
}
// * * * * * * * * * * * * * * * * * * * * * * * * * * * * * * * * * * * * * //

dimensions      [0 2 -1 0 0 0 0];

internalField   nonuniform List<scalar> 
13056
(
2.2759626e-07
2.0257246e-07
1.9878185e-07
1.9767739e-07
1.9712327e-07
1.9676974e-07
1.9652969e-07
1.9636123e-07
1.9624013e-07
1.9615167e-07
1.9608656e-07
1.9603872e-07
1.9600407e-07
1.9597979e-07
1.9596389e-07
1.9595498e-07
1.9595214e-07
1.9595487e-07
1.9596329e-07
1.9597844e-07
1.9600647e-07
1.9599848e-07
1.9683821e-07
1.7785225e-07
3.6554442e-11
4.2801999e-11
3.6152299e-11
3.2084611e-11
2.9198433e-11
2.7025068e-11
2.5333902e-11
2.3984945e-11
2.2882463e-11
2.1961884e-11
2.1179695e-11
2.0505416e-11
1.9916954e-11
1.9398042e-11
1.8936403e-11
1.852251e-11
1.8148868e-11
1.7809496e-11
1.7499573e-11
1.7215167e-11
1.6953046e-11
1.6710522e-11
1.6485341e-11
1.6275594e-11
1.6079649e-11
1.5896105e-11
1.5723751e-11
1.5561527e-11
1.5408508e-11
1.5263878e-11
1.5126914e-11
1.4996973e-11
1.487348e-11
1.475592e-11
1.4643826e-11
1.4536779e-11
1.4434396e-11
1.4336328e-11
1.4242257e-11
1.4151891e-11
1.4064961e-11
1.3981219e-11
1.3900437e-11
1.3822402e-11
1.3746918e-11
1.3673801e-11
1.3602881e-11
1.3533999e-11
1.3467005e-11
1.3401761e-11
1.3338136e-11
1.3276008e-11
1.321526e-11
1.3155785e-11
1.3097481e-11
1.3040251e-11
1.2984006e-11
1.2928658e-11
1.2874127e-11
1.2820336e-11
1.2767212e-11
1.2714686e-11
1.2662692e-11
1.2611169e-11
1.2560056e-11
1.2509297e-11
1.2458837e-11
1.2408624e-11
1.235861e-11
1.2308745e-11
1.2258985e-11
1.2209285e-11
1.2159602e-11
1.2109894e-11
1.2060123e-11
1.2010248e-11
1.1960233e-11
1.1910039e-11
1.1859632e-11
1.1808976e-11
1.1758037e-11
1.1706779e-11
1.165517e-11
1.1603173e-11
1.1550755e-11
1.1497884e-11
1.1444528e-11
1.1390658e-11
1.1336315e-11
1.1282309e-11
1.1230258e-11
1.1180798e-11
1.1133803e-11
1.1089122e-11
1.1046626e-11
1.1006209e-11
1.0967778e-11
1.0931242e-11
1.0896507e-11
1.086348e-11
1.0832067e-11
1.0802176e-11
1.0773717e-11
1.0746604e-11
1.0720755e-11
1.0696088e-11
1.0672542e-11
1.0649983e-11
1.062856e-11
1.0607317e-11
1.0589498e-11
1.0559941e-11
2.2773263e-07
2.0257004e-07
1.9874733e-07
1.9763062e-07
1.9707008e-07
1.9671242e-07
1.964695e-07
1.9629895e-07
1.9617628e-07
1.960866e-07
1.9602053e-07
1.9597193e-07
1.9593665e-07
1.9591186e-07
1.9589554e-07
1.9588628e-07
1.9588316e-07
1.9588566e-07
1.9589392e-07
1.9590895e-07
1.9593703e-07
1.959281e-07
1.9677797e-07
1.779233e-07
7.5632567e-09
9.3544516e-09
8.0668869e-09
7.2241075e-09
6.6127362e-09
6.1476942e-09
5.7830312e-09
5.490332e-09
5.2498748e-09
5.0482188e-09
4.8762449e-09
4.7275248e-09
4.5973694e-09
4.4823103e-09
4.3797211e-09
4.2875569e-09
4.2042027e-09
4.1283659e-09
4.0590014e-09
3.9952555e-09
3.9364243e-09
3.8819217e-09
3.8312553e-09
3.7840075e-09
3.7398211e-09
3.6983888e-09
3.6594442e-09
3.6227548e-09
3.5881165e-09
3.5553497e-09
3.5242951e-09
3.4948105e-09
3.466769e-09
3.4400565e-09
3.41457e-09
3.3902162e-09
3.3669102e-09
3.3445749e-09
3.3231394e-09
3.3025388e-09
3.2827132e-09
3.2636074e-09
3.2451704e-09
3.2273548e-09
3.2101166e-09
3.1934149e-09
3.1772114e-09
3.1614704e-09
3.1461585e-09
3.1312442e-09
3.1166983e-09
3.1024931e-09
3.0886026e-09
3.0750022e-09
3.0616689e-09
3.0485809e-09
3.0357175e-09
3.0230593e-09
3.0105878e-09
2.9982854e-09
2.9861355e-09
2.9741223e-09
2.9622308e-09
2.9504466e-09
2.9387561e-09
2.9271463e-09
2.9156046e-09
2.904119e-09
2.8926782e-09
2.881271e-09
2.8698868e-09
2.8585154e-09
2.8471468e-09
2.8357714e-09
2.8243799e-09
2.8129632e-09
2.8015125e-09
2.7900193e-09
2.7784751e-09
2.7668718e-09
2.7552011e-09
2.7434551e-09
2.7316257e-09
2.7197048e-09
2.7076844e-09
2.6955566e-09
2.6833146e-09
2.6709509e-09
2.6584753e-09
2.6460738e-09
2.6341171e-09
2.6227498e-09
2.611943e-09
2.6016622e-09
2.5918778e-09
2.582566e-09
2.5737056e-09
2.5652761e-09
2.5572568e-09
2.5496266e-09
2.5423644e-09
2.5354494e-09
2.5288616e-09
2.5225813e-09
2.5165902e-09
2.5108695e-09
2.5054054e-09
2.5001671e-09
2.4951899e-09
2.4902514e-09
2.4861066e-09
2.4792257e-09
2.282024e-07
2.0258156e-07
1.9866083e-07
1.9750633e-07
1.9692614e-07
1.9655581e-07
1.9630406e-07
1.9612708e-07
1.9599957e-07
1.9590616e-07
1.9583714e-07
1.9578617e-07
1.9574898e-07
1.9572261e-07
1.9570499e-07
1.9569466e-07
1.9569066e-07
1.9569245e-07
1.9570018e-07
1.9571483e-07
1.9574305e-07
1.9573174e-07
1.9660905e-07
1.7776221e-07
3.7881875e-08
5.0911286e-08
4.5771805e-08
4.1842353e-08
3.8840077e-08
3.6505114e-08
3.4644302e-08
3.3130125e-08
3.1871511e-08
3.0805326e-08
2.9888167e-08
2.9089013e-08
2.8384931e-08
2.7758786e-08
2.7197494e-08
2.6690781e-08
2.6230465e-08
2.5809952e-08
2.5423877e-08
2.5067831e-08
2.4738163e-08
2.4431819e-08
2.4146222e-08
2.3879179e-08
2.3628806e-08
2.3393478e-08
2.3171782e-08
2.2962477e-08
2.2764474e-08
2.2576812e-08
2.2398633e-08
2.2229173e-08
2.2067745e-08
2.191373e-08
2.1766571e-08
2.1625758e-08
2.1490828e-08
2.1361359e-08
2.1236962e-08
2.1117278e-08
2.1001979e-08
2.0890759e-08
2.0783334e-08
2.0679441e-08
2.0578835e-08
2.0481286e-08
2.038658e-08
2.0294517e-08
2.0204907e-08
2.0117573e-08
2.003235e-08
1.9949079e-08
1.9867613e-08
1.9787812e-08
1.9709542e-08
1.963268e-08
1.9557105e-08
1.9482706e-08
1.9409375e-08
1.9337011e-08
1.9265516e-08
1.9194799e-08
1.9124771e-08
1.9055348e-08
1.898645e-08
1.8918e-08
1.8849923e-08
1.8782149e-08
1.871461e-08
1.8647239e-08
1.8579973e-08
1.851275e-08
1.8445511e-08
1.8378197e-08
1.8310752e-08
1.8243122e-08
1.8175252e-08
1.8107091e-08
1.8038586e-08
1.7969687e-08
1.7900345e-08
1.783051e-08
1.7760131e-08
1.7689159e-08
1.7617544e-08
1.7545238e-08
1.7472196e-08
1.7398371e-08
1.7323822e-08
1.7249646e-08
1.7178043e-08
1.7109882e-08
1.7044997e-08
1.698319e-08
1.6924293e-08
1.6868171e-08
1.6814705e-08
1.6763779e-08
1.6715276e-08
1.6669076e-08
1.6625059e-08
1.6583103e-08
1.6543093e-08
1.6504915e-08
1.6468462e-08
1.6433623e-08
1.6400319e-08
1.6368364e-08
1.6337978e-08
1.6307804e-08
1.6282461e-08
1.624034e-08
2.2902781e-07
2.0261095e-07
1.9852194e-07
1.9730247e-07
1.9668835e-07
1.9629616e-07
1.9602918e-07
1.958411e-07
1.9570524e-07
1.9560538e-07
1.9553127e-07
1.9547622e-07
1.954357e-07
1.9540661e-07
1.9538674e-07
1.9537454e-07
1.9536901e-07
1.9536957e-07
1.9537636e-07
1.9539033e-07
1.9541876e-07
1.9540366e-07
1.9632689e-07
1.7735914e-07
8.2205226e-08
1.1834846e-07
1.105645e-07
1.031032e-07
9.7040904e-08
9.2228704e-08
8.8340338e-08
8.5137254e-08
8.2445269e-08
8.0142606e-08
7.814486e-08
7.6390984e-08
7.4835289e-08
7.3443315e-08
7.2188552e-08
7.1050018e-08
7.0010877e-08
6.9057461e-08
6.817858e-08
6.7364993e-08
6.6609006e-08
6.5904159e-08
6.5244981e-08
6.4626797e-08
6.4045576e-08
6.3497829e-08
6.2980509e-08
6.2490941e-08
6.2026761e-08
6.1585877e-08
6.1166421e-08
6.0766719e-08
6.0385264e-08
6.0020698e-08
5.9671785e-08
5.9337402e-08
5.9016521e-08
5.8708199e-08
5.8411568e-08
5.8125828e-08
5.7850237e-08
5.7584106e-08
5.7326795e-08
5.7077707e-08
5.6836283e-08
5.6602e-08
5.6374367e-08
5.6152922e-08
5.593723e-08
5.5726882e-08
5.5521491e-08
5.5320691e-08
5.5124136e-08
5.4931498e-08
5.4742464e-08
5.4556741e-08
5.4374046e-08
5.4194111e-08
5.4016684e-08
5.3841518e-08
5.3668383e-08
5.3497055e-08
5.3327324e-08
5.3158985e-08
5.2991843e-08
5.282571e-08
5.2660406e-08
5.2495755e-08
5.233159e-08
5.2167748e-08
5.2004072e-08
5.1840408e-08
5.1676608e-08
5.1512525e-08
5.134802e-08
5.1182953e-08
5.1017189e-08
5.0850594e-08
5.0683039e-08
5.0514394e-08
5.0344532e-08
5.0173323e-08
5.0000641e-08
4.9826355e-08
4.9650337e-08
4.9472458e-08
4.9292605e-08
4.9110648e-08
4.8926738e-08
4.8743509e-08
4.8566337e-08
4.8397372e-08
4.8236242e-08
4.8082491e-08
4.7935734e-08
4.7795663e-08
4.7662012e-08
4.753452e-08
4.7412917e-08
4.7296927e-08
4.718627e-08
4.7080663e-08
4.697983e-08
4.6883502e-08
4.6791421e-08
4.6703323e-08
4.6619018e-08
4.6538044e-08
4.646097e-08
4.6384368e-08
4.6319965e-08
4.6212779e-08
2.3024619e-07
2.0266609e-07
1.9833126e-07
1.9701667e-07
1.9635273e-07
1.9592846e-07
1.9563911e-07
1.9543473e-07
1.9528658e-07
1.9517722e-07
1.9509562e-07
1.9503455e-07
1.9498914e-07
1.9495602e-07
1.9493282e-07
1.9491787e-07
1.9491007e-07
1.9490879e-07
1.9491417e-07
1.9492709e-07
1.9495576e-07
1.9493522e-07
1.9592546e-07
1.7672453e-07
1.2892009e-07
1.955627e-07
1.8770972e-07
1.7744314e-07
1.6856759e-07
1.6142281e-07
1.5560685e-07
1.507828e-07
1.4670155e-07
1.4318945e-07
1.4012604e-07
1.3742368e-07
1.3501626e-07
1.3285362e-07
1.3089703e-07
1.2911568e-07
1.2748475e-07
1.2598398e-07
1.2459674e-07
1.2330924e-07
1.2210996e-07
1.2098921e-07
1.1993878e-07
1.1895163e-07
1.1802166e-07
1.171436e-07
1.1631284e-07
1.1552531e-07
1.1477742e-07
1.1406598e-07
1.1338813e-07
1.1274132e-07
1.1212323e-07
1.1153179e-07
1.1096509e-07
1.104214e-07
1.0989913e-07
1.0939682e-07
1.0891314e-07
1.0844682e-07
1.0799672e-07
1.0756177e-07
1.0714095e-07
1.0673333e-07
1.0633804e-07
1.0595425e-07
1.0558118e-07
1.052181e-07
1.0486432e-07
1.0451919e-07
1.0418208e-07
1.0385242e-07
1.0352964e-07
1.0321322e-07
1.0290265e-07
1.0259746e-07
1.0229719e-07
1.020014e-07
1.0170968e-07
1.0142163e-07
1.0113686e-07
1.0085502e-07
1.0057575e-07
1.0029871e-07
1.0002359e-07
9.9750066e-08
9.9477841e-08
9.9206623e-08
9.893613e-08
9.8666089e-08
9.8396235e-08
9.812631e-08
9.7856061e-08
9.7585242e-08
9.7313612e-08
9.7040937e-08
9.6766983e-08
9.6491524e-08
9.6214335e-08
9.5935193e-08
9.5653878e-08
9.5370168e-08
9.5083841e-08
9.4794671e-08
9.4502435e-08
9.4206908e-08
9.3907889e-08
9.3605145e-08
9.329894e-08
9.2993511e-08
9.2697689e-08
9.2415078e-08
9.2145107e-08
9.1887077e-08
9.1640393e-08
9.1404585e-08
9.1179252e-08
9.0963998e-08
9.075841e-08
9.0562059e-08
9.0374502e-08
9.0195295e-08
9.0023996e-08
8.9860171e-08
8.9703407e-08
8.9553271e-08
8.9409461e-08
8.9271201e-08
8.9139483e-08
8.9008463e-08
8.8898211e-08
8.8714472e-08
2.3191163e-07
2.0275964e-07
1.9809104e-07
1.9664696e-07
1.9591498e-07
1.9544687e-07
1.9512694e-07
1.9490025e-07
1.947353e-07
1.9461294e-07
1.9452105e-07
1.9445173e-07
1.943996e-07
1.9436095e-07
1.9433317e-07
1.9431441e-07
1.9430347e-07
1.9429962e-07
1.9430302e-07
1.9431443e-07
1.9434333e-07
1.9431537e-07
1.9539737e-07
1.7586894e-07
1.7390797e-07
2.7585612e-07
2.7003759e-07
2.5763615e-07
2.4617817e-07
2.3684912e-07
2.2922519e-07
2.2287844e-07
2.1748847e-07
2.1283347e-07
2.0876017e-07
2.0515669e-07
2.0193815e-07
1.9903993e-07
1.9641205e-07
1.9401466e-07
1.9181552e-07
1.8978827e-07
1.8791121e-07
1.8616631e-07
1.845385e-07
1.830151e-07
1.815853e-07
1.8023987e-07
1.789708e-07
1.7777114e-07
1.7663482e-07
1.7555648e-07
1.7453137e-07
1.7355528e-07
1.7262443e-07
1.7173545e-07
1.7088526e-07
1.700711e-07
1.6929046e-07
1.6854102e-07
1.6782067e-07
1.6712748e-07
1.6645964e-07
1.6581549e-07
1.6519349e-07
1.6459219e-07
1.6401025e-07
1.6344641e-07
1.6289949e-07
1.6236836e-07
1.6185199e-07
1.6134938e-07
1.608596e-07
1.6038174e-07
1.5991499e-07
1.5945853e-07
1.590116e-07
1.5857348e-07
1.5814347e-07
1.5772093e-07
1.5730522e-07
1.5689574e-07
1.5649192e-07
1.560932e-07
1.5569905e-07
1.5530896e-07
1.5492245e-07
1.5453905e-07
1.541583e-07
1.5377977e-07
1.5340303e-07
1.5302768e-07
1.5265331e-07
1.5227955e-07
1.5190601e-07
1.5153233e-07
1.5115816e-07
1.5078314e-07
1.5040693e-07
1.500292e-07
1.4964961e-07
1.4926785e-07
1.4888358e-07
1.4849649e-07
1.4810627e-07
1.4771259e-07
1.4731513e-07
1.4691357e-07
1.465076e-07
1.4609687e-07
1.456811e-07
1.4525995e-07
1.448338e-07
1.4440834e-07
1.4399568e-07
1.4360086e-07
1.4322315e-07
1.4286164e-07
1.4251556e-07
1.4218431e-07
1.4186738e-07
1.4156427e-07
1.4127443e-07
1.4099732e-07
1.4073234e-07
1.404789e-07
1.4023642e-07
1.4000431e-07
1.39782e-07
1.3956891e-07
1.3936464e-07
1.3916808e-07
1.3898069e-07
1.3879416e-07
1.3863708e-07
1.3837498e-07
2.3409742e-07
2.029105e-07
1.9780624e-07
1.9619257e-07
1.9537118e-07
1.9484542e-07
1.9448526e-07
1.942292e-07
1.9404209e-07
1.9390258e-07
1.9379713e-07
1.937169e-07
1.9365587e-07
1.9360989e-07
1.9357603e-07
1.9355221e-07
1.9353706e-07
1.9352976e-07
1.9353048e-07
1.9353978e-07
1.9356881e-07
1.9353105e-07
1.9473139e-07
1.7480323e-07
2.1622501e-07
3.5753503e-07
3.5556412e-07
3.4158057e-07
3.2764106e-07
3.1615944e-07
3.0675075e-07
2.9890103e-07
2.9221817e-07
2.8643268e-07
2.8135932e-07
2.7686267e-07
2.7283951e-07
2.6921104e-07
2.6591624e-07
2.6290638e-07
2.6014197e-07
2.5759064e-07
2.5522569e-07
2.5302494e-07
2.5096979e-07
2.4904461e-07
2.4723605e-07
2.4553272e-07
2.4392471e-07
2.4240345e-07
2.4096142e-07
2.3959197e-07
2.3828924e-07
2.37048e-07
2.3586359e-07
2.347318e-07
2.3364883e-07
2.3261125e-07
2.3161593e-07
2.3066e-07
2.2974084e-07
2.2885603e-07
2.2800333e-07
2.2718067e-07
2.2638612e-07
2.2561787e-07
2.2487426e-07
2.2415369e-07
2.2345468e-07
2.2277584e-07
2.2211584e-07
2.2147345e-07
2.2084748e-07
2.202368e-07
2.1964036e-07
2.1905714e-07
2.1848617e-07
2.1792654e-07
2.1737738e-07
2.1683783e-07
2.1630711e-07
2.1578443e-07
2.1526908e-07
2.1476033e-07
2.1425751e-07
2.1375997e-07
2.1326708e-07
2.1277823e-07
2.1229284e-07
2.1181034e-07
2.113302e-07
2.1085187e-07
2.1037484e-07
2.0989862e-07
2.0942271e-07
2.0894665e-07
2.0846996e-07
2.0799218e-07
2.0751288e-07
2.0703162e-07
2.0654795e-07
2.0606147e-07
2.0557173e-07
2.0507833e-07
2.0458086e-07
2.0407888e-07
2.03572e-07
2.0305976e-07
2.0254176e-07
2.0201756e-07
2.0148678e-07
2.0094895e-07
2.004046e-07
1.9986073e-07
1.993326e-07
1.9882667e-07
1.9834208e-07
1.9787774e-07
1.9743272e-07
1.9700631e-07
1.965979e-07
1.9620689e-07
1.9583266e-07
1.9547452e-07
1.9513177e-07
1.9480367e-07
1.9448949e-07
1.9418851e-07
1.9390004e-07
1.9362332e-07
1.9335785e-07
1.9310225e-07
1.928584e-07
1.9261552e-07
1.9241085e-07
1.9206901e-07
2.3689936e-07
2.0314589e-07
1.9748596e-07
1.9565516e-07
1.9471884e-07
1.9411895e-07
1.9370699e-07
1.934131e-07
1.9319742e-07
1.9303576e-07
1.9291279e-07
1.9281844e-07
1.9274589e-07
1.9269041e-07
1.9264864e-07
1.9261822e-07
1.9259756e-07
1.9258572e-07
1.9258284e-07
1.9258927e-07
1.9261824e-07
1.925677e-07
1.9391502e-07
1.7353787e-07
2.5570495e-07
4.4045509e-07
4.4414163e-07
4.2913933e-07
4.127507e-07
3.9906908e-07
3.8782805e-07
3.7843455e-07
3.7042245e-07
3.634733e-07
3.5736949e-07
3.5195182e-07
3.4709844e-07
3.4271606e-07
3.3873237e-07
3.3508959e-07
3.3174081e-07
3.2864748e-07
3.257778e-07
3.2310526e-07
3.2060771e-07
3.1826642e-07
3.1606548e-07
3.1399123e-07
3.1203187e-07
3.1017709e-07
3.0841792e-07
3.0674641e-07
3.0515552e-07
3.03639e-07
3.0219126e-07
3.0080726e-07
2.9948244e-07
2.9821269e-07
2.9699426e-07
2.9582371e-07
2.9469789e-07
2.9361388e-07
2.9256901e-07
2.9156078e-07
2.9058687e-07
2.8964511e-07
2.8873348e-07
2.8785007e-07
2.869931e-07
2.8616087e-07
2.8535178e-07
2.8456434e-07
2.837971e-07
2.8304872e-07
2.8231788e-07
2.8160338e-07
2.8090402e-07
2.8021869e-07
2.7954633e-07
2.7888589e-07
2.7823641e-07
2.7759694e-07
2.7696659e-07
2.7634447e-07
2.7572976e-07
2.7512166e-07
2.7451938e-07
2.7392219e-07
2.7332935e-07
2.7274018e-07
2.72154e-07
2.7157014e-07
2.7098797e-07
2.7040688e-07
2.6982625e-07
2.6924549e-07
2.6866402e-07
2.6808127e-07
2.674967e-07
2.6690975e-07
2.6631987e-07
2.6572655e-07
2.6512925e-07
2.6452744e-07
2.6392062e-07
2.6330826e-07
2.6268982e-07
2.6206478e-07
2.6143261e-07
2.6079276e-07
2.6014475e-07
2.5948799e-07
2.5882315e-07
2.5815849e-07
2.5751244e-07
2.5689291e-07
2.5629889e-07
2.5572915e-07
2.551826e-07
2.5465842e-07
2.5415592e-07
2.5367441e-07
2.5321318e-07
2.5277143e-07
2.5234832e-07
2.51943e-07
2.5155461e-07
2.5118227e-07
2.5082516e-07
2.5048238e-07
2.5015334e-07
2.4983631e-07
2.4953369e-07
2.4923211e-07
2.4897781e-07
2.4855266e-07
2.4044027e-07
2.0350421e-07
1.9714545e-07
1.9504045e-07
1.9395833e-07
1.9326433e-07
1.9278657e-07
1.9244455e-07
1.921925e-07
1.9200262e-07
1.9185728e-07
1.917449e-07
1.9165761e-07
1.9158993e-07
1.9153801e-07
1.9149907e-07
1.914713e-07
1.9145353e-07
1.914459e-07
1.9144845e-07
1.91477e-07
1.9141006e-07
1.9293474e-07
1.7208484e-07
2.9229154e-07
5.2484906e-07
5.3618806e-07
5.2084901e-07
5.0202931e-07
4.8605542e-07
4.7288956e-07
4.6187171e-07
4.52459e-07
4.4428176e-07
4.3708901e-07
4.3069708e-07
4.249648e-07
4.1978373e-07
4.150698e-07
4.1075576e-07
4.0678692e-07
4.0311827e-07
3.997126e-07
3.9653892e-07
3.9357124e-07
3.9078764e-07
3.8816945e-07
3.8570066e-07
3.8336742e-07
3.8115765e-07
3.7906081e-07
3.7706757e-07
3.7516968e-07
3.7335979e-07
3.7163134e-07
3.6997841e-07
3.6839565e-07
3.6687823e-07
3.6542174e-07
3.6402214e-07
3.6267573e-07
3.6137908e-07
3.6012905e-07
3.5892269e-07
3.5775728e-07
3.5663026e-07
3.5553925e-07
3.54482e-07
3.534564e-07
3.5246045e-07
3.5149228e-07
3.505501e-07
3.496322e-07
3.4873699e-07
3.4786293e-07
3.4700856e-07
3.4617248e-07
3.4535335e-07
3.4454991e-07
3.4376094e-07
3.4298526e-07
3.4222173e-07
3.4146931e-07
3.4072693e-07
3.3999359e-07
3.3926833e-07
3.3855023e-07
3.3783838e-07
3.3713192e-07
3.3643e-07
3.3573181e-07
3.3503655e-07
3.3434345e-07
3.3365176e-07
3.3296075e-07
3.3226969e-07
3.3157789e-07
3.3088466e-07
3.3018933e-07
3.2949121e-07
3.2878967e-07
3.2808405e-07
3.2737371e-07
3.2665801e-07
3.2593632e-07
3.2520801e-07
3.2447243e-07
3.2372893e-07
3.2297687e-07
3.2221558e-07
3.2144447e-07
3.2066282e-07
3.1987143e-07
3.1907987e-07
3.1830985e-07
3.1757077e-07
3.1686154e-07
3.1618074e-07
3.1552712e-07
3.1489976e-07
3.1429787e-07
3.137207e-07
3.1316742e-07
3.1263712e-07
3.1212885e-07
3.1164162e-07
3.1117444e-07
3.1072628e-07
3.1029618e-07
3.0988309e-07
3.0948633e-07
3.0910382e-07
3.0873849e-07
3.0837422e-07
3.0806689e-07
3.075526e-07
2.4487579e-07
2.0403885e-07
1.9680878e-07
1.9436035e-07
1.9309473e-07
1.9228217e-07
1.9172143e-07
1.9131867e-07
1.9102065e-07
1.9079506e-07
1.9062139e-07
1.9048614e-07
1.9038012e-07
1.9029693e-07
1.9023204e-07
1.9018221e-07
1.9014528e-07
1.9011983e-07
1.9010597e-07
1.9010329e-07
1.9013087e-07
1.9004305e-07
1.9177625e-07
1.704593e-07
3.2584468e-07
6.1094029e-07
6.3225213e-07
6.1747185e-07
5.962677e-07
5.778873e-07
5.6267506e-07
5.4992518e-07
5.3901587e-07
5.2952369e-07
5.2116294e-07
5.1372463e-07
5.0704739e-07
5.0100683e-07
4.9550646e-07
4.9046903e-07
4.8583157e-07
4.8154224e-07
4.7755806e-07
4.7384323e-07
4.703677e-07
4.6710609e-07
4.640368e-07
4.6114131e-07
4.5840355e-07
4.5580956e-07
4.5334712e-07
4.5100541e-07
4.4877487e-07
4.4664701e-07
4.446142e-07
4.4266958e-07
4.4080697e-07
4.3902076e-07
4.3730584e-07
4.3565752e-07
4.3407151e-07
4.3254386e-07
4.3107089e-07
4.2964921e-07
4.2827565e-07
4.2694724e-07
4.2566121e-07
4.2441496e-07
4.2320604e-07
4.2203212e-07
4.2089101e-07
4.1978063e-07
4.18699e-07
4.1764426e-07
4.1661461e-07
4.1560834e-07
4.1462382e-07
4.1365949e-07
4.1271385e-07
4.1178547e-07
4.1087299e-07
4.0997505e-07
4.0909044e-07
4.0821788e-07
4.0735621e-07
4.0650428e-07
4.0566101e-07
4.0482533e-07
4.039962e-07
4.0317263e-07
4.0235365e-07
4.0153833e-07
4.0072573e-07
3.9991496e-07
3.9910516e-07
3.9829547e-07
3.9748504e-07
3.9667305e-07
3.958587e-07
3.950412e-07
3.9421975e-07
3.9339358e-07
3.9256192e-07
3.9172401e-07
3.908791e-07
3.9002641e-07
3.8916518e-07
3.8829463e-07
3.8741398e-07
3.8652244e-07
3.8561931e-07
3.8470368e-07
3.8377656e-07
3.8284882e-07
3.8194571e-07
3.8107826e-07
3.8024525e-07
3.7944509e-07
3.7867636e-07
3.77938e-07
3.7722914e-07
3.7654892e-07
3.7589642e-07
3.7527061e-07
3.7467042e-07
3.7409472e-07
3.7354236e-07
3.7301218e-07
3.7250307e-07
3.7201381e-07
3.7154362e-07
3.7109007e-07
3.7065665e-07
3.7022427e-07
3.6985927e-07
3.6924791e-07
2.504018e-07
2.0482331e-07
1.9651243e-07
1.9363591e-07
1.9214031e-07
1.9117901e-07
1.9051406e-07
1.9003493e-07
1.8967906e-07
1.8940847e-07
1.8919905e-07
1.8903489e-07
1.8890516e-07
1.8880229e-07
1.8872092e-07
1.886572e-07
1.8860852e-07
1.8857316e-07
1.8855114e-07
1.885415e-07
1.8856724e-07
1.8845307e-07
1.9042458e-07
1.6868109e-07
3.5610982e-07
6.9878509e-07
7.3284781e-07
7.1983307e-07
6.9636186e-07
6.7545736e-07
6.5805889e-07
6.434501e-07
6.3092996e-07
6.200187e-07
6.1039465e-07
6.0182266e-07
5.9412024e-07
5.8714617e-07
5.8079078e-07
5.7496619e-07
5.6960069e-07
5.6463506e-07
5.600202e-07
5.557151e-07
5.5168533e-07
5.4790182e-07
5.443398e-07
5.40978e-07
5.37798e-07
5.3478376e-07
5.3192127e-07
5.291981e-07
5.2660329e-07
5.2412706e-07
5.2176067e-07
5.1949625e-07
5.1732669e-07
5.1524554e-07
5.1324695e-07
5.1132554e-07
5.0947638e-07
5.0769491e-07
5.0597694e-07
5.0431856e-07
5.0271612e-07
5.0116623e-07
4.996657e-07
4.9821154e-07
4.9680091e-07
4.9543116e-07
4.9409976e-07
4.9280432e-07
4.9154255e-07
4.903123e-07
4.8911149e-07
4.8793815e-07
4.8679041e-07
4.8566644e-07
4.8456452e-07
4.8348298e-07
4.8242024e-07
4.8137473e-07
4.8034503e-07
4.7932967e-07
4.7832727e-07
4.7733651e-07
4.7635611e-07
4.7538483e-07
4.7442145e-07
4.7346481e-07
4.7251376e-07
4.7156721e-07
4.7062408e-07
4.696833e-07
4.6874385e-07
4.6780472e-07
4.6686492e-07
4.6592348e-07
4.6497945e-07
4.6403187e-07
4.6307983e-07
4.621224e-07
4.6115868e-07
4.6018776e-07
4.5920874e-07
4.5822071e-07
4.5722277e-07
4.5621399e-07
4.5519344e-07
4.541602e-07
4.5311341e-07
4.5205201e-07
4.5097716e-07
4.499012e-07
4.4885318e-07
4.4784595e-07
4.4687815e-07
4.4594799e-07
4.4505385e-07
4.4419453e-07
4.4336904e-07
4.4257643e-07
4.4181564e-07
4.4108554e-07
4.4038491e-07
4.3971247e-07
4.3906692e-07
4.3844694e-07
4.3785126e-07
4.372785e-07
4.3672776e-07
4.361962e-07
4.3568799e-07
4.3518071e-07
4.3475226e-07
4.3403396e-07
2.572636e-07
2.0595805e-07
1.9631008e-07
1.9290119e-07
1.9111789e-07
1.8997029e-07
1.891747e-07
1.8859972e-07
1.8817114e-07
1.8784393e-07
1.8758946e-07
1.8738882e-07
1.8722912e-07
1.8710134e-07
1.8699904e-07
1.8691761e-07
1.868539e-07
1.8680575e-07
1.8677307e-07
1.8675414e-07
1.8677679e-07
1.8662964e-07
1.8886381e-07
1.6677597e-07
3.8266209e-07
7.8821473e-07
8.3841462e-07
8.2875135e-07
8.0325075e-07
7.7972105e-07
7.5998769e-07
7.4338018e-07
7.2912137e-07
7.1667324e-07
7.056772e-07
6.9587131e-07
6.8705121e-07
6.7905794e-07
6.7176793e-07
6.6508201e-07
6.5891915e-07
6.5321228e-07
6.4790568e-07
6.4295277e-07
6.3831441e-07
6.3395748e-07
6.2985379e-07
6.2597913e-07
6.2231248e-07
6.1883559e-07
6.1553247e-07
6.1238895e-07
6.0939253e-07
6.0653207e-07
6.0379759e-07
6.0118012e-07
5.9867154e-07
5.9626453e-07
5.9395239e-07
5.9172899e-07
5.8958871e-07
5.8752636e-07
5.8553717e-07
5.8361666e-07
5.817607e-07
5.7996541e-07
5.7822714e-07
5.7654249e-07
5.7490823e-07
5.7332132e-07
5.7177888e-07
5.7027817e-07
5.6881658e-07
5.6739165e-07
5.6600101e-07
5.646424e-07
5.6331364e-07
5.6201267e-07
5.6073751e-07
5.5948623e-07
5.5825701e-07
5.5704804e-07
5.5585769e-07
5.5468425e-07
5.5352614e-07
5.5238182e-07
5.5124982e-07
5.5012867e-07
5.4901699e-07
5.4791342e-07
5.4681662e-07
5.4572531e-07
5.4463822e-07
5.4355414e-07
5.4247184e-07
5.4139016e-07
5.4030793e-07
5.3922402e-07
5.381373e-07
5.3704667e-07
5.3595103e-07
5.3484931e-07
5.3374044e-07
5.3262335e-07
5.3149698e-07
5.3036026e-07
5.2921213e-07
5.2805149e-07
5.2687727e-07
5.2568835e-07
5.2448374e-07
5.2326217e-07
5.2202499e-07
5.207861e-07
5.1957881e-07
5.1841795e-07
5.1730202e-07
5.1622899e-07
5.1519702e-07
5.1420473e-07
5.1325101e-07
5.1233476e-07
5.1145481e-07
5.1060988e-07
5.0979861e-07
5.0901954e-07
5.0827121e-07
5.0755214e-07
5.0686088e-07
5.0619585e-07
5.0555606e-07
5.049382e-07
5.0434718e-07
5.0375693e-07
5.0325812e-07
5.0242111e-07
2.6576704e-07
2.0757963e-07
1.9627915e-07
1.9220854e-07
1.9006532e-07
1.8868438e-07
1.8772499e-07
1.8702967e-07
1.8650969e-07
1.8611121e-07
1.8579996e-07
1.8555328e-07
1.853557e-07
1.8519634e-07
1.8506746e-07
1.8496347e-07
1.848805e-07
1.8481586e-07
1.8476927e-07
1.84738e-07
1.8475573e-07
1.8456766e-07
1.8707605e-07
1.6477709e-07
4.0492562e-07
8.7877929e-07
9.4925067e-07
9.4499701e-07
9.1788756e-07
8.9167312e-07
8.6945841e-07
8.5070585e-07
8.3457138e-07
8.2045821e-07
8.079705e-07
7.9681942e-07
7.8677823e-07
7.7766954e-07
7.6935513e-07
7.6172397e-07
7.5468511e-07
7.4816314e-07
7.4209526e-07
7.364289e-07
7.311198e-07
7.2613052e-07
7.2142913e-07
7.1698822e-07
7.1278398e-07
7.0879571e-07
7.050053e-07
7.0139669e-07
6.9795568e-07
6.9466965e-07
6.9152728e-07
6.8851839e-07
6.8563379e-07
6.8286515e-07
6.8020489e-07
6.7764606e-07
6.7518229e-07
6.728077e-07
6.7051686e-07
6.6830473e-07
6.661666e-07
6.6409808e-07
6.6209505e-07
6.6015363e-07
6.5827018e-07
6.5644124e-07
6.5466354e-07
6.5293398e-07
6.512496e-07
6.4960758e-07
6.4800525e-07
6.4644002e-07
6.4490942e-07
6.434111e-07
6.4194279e-07
6.405023e-07
6.3908754e-07
6.3769645e-07
6.3632714e-07
6.3497767e-07
6.3364621e-07
6.3233101e-07
6.3103034e-07
6.2974255e-07
6.2846602e-07
6.2719917e-07
6.2594048e-07
6.2468844e-07
6.2344161e-07
6.2219854e-07
6.2095784e-07
6.1971814e-07
6.1847809e-07
6.1723635e-07
6.1599162e-07
6.1474261e-07
6.1348805e-07
6.1222667e-07
6.1095721e-07
6.0967844e-07
6.0838911e-07
6.0708796e-07
6.0577375e-07
6.0444521e-07
6.0310105e-07
6.0174e-07
6.0036085e-07
5.9896215e-07
5.975454e-07
5.9612625e-07
5.9474276e-07
5.9341196e-07
5.9213222e-07
5.9090122e-07
5.8971687e-07
5.8857757e-07
5.8748203e-07
5.8642902e-07
5.8541721e-07
5.8444517e-07
5.8351135e-07
5.8261414e-07
5.8175187e-07
5.8092288e-07
5.8012554e-07
5.7935805e-07
5.7861929e-07
5.7790547e-07
5.7722232e-07
5.765397e-07
5.7596251e-07
5.749931e-07
2.762917e-07
2.0987291e-07
1.9652966e-07
1.916358e-07
1.8904171e-07
1.8736803e-07
1.8620294e-07
1.8535631e-07
1.8472124e-07
1.842329e-07
1.8384997e-07
1.8354508e-07
1.832995e-07
1.8310007e-07
1.8293737e-07
1.8280457e-07
1.826969e-07
1.8261098e-07
1.8254621e-07
1.8249856e-07
1.825088e-07
1.8227038e-07
1.8505913e-07
1.6271214e-07
4.2221732e-07
9.6965172e-07
1.0654861e-06
1.0692526e-06
1.0412187e-06
1.0123358e-06
9.8750998e-07
9.664676e-07
9.4831675e-07
9.3240372e-07
9.1829637e-07
9.0567962e-07
8.9430447e-07
8.8397461e-07
8.7453662e-07
8.6586709e-07
8.578647e-07
8.5044516e-07
8.4353814e-07
8.3708468e-07
8.3103502e-07
8.2534702e-07
8.1998477e-07
8.1491735e-07
8.1011794e-07
8.055632e-07
8.0123267e-07
7.9710825e-07
7.9317389e-07
7.8941536e-07
7.8581989e-07
7.8237596e-07
7.7907319e-07
7.759022e-07
7.7285443e-07
7.6992202e-07
7.670978e-07
7.6437512e-07
7.6174787e-07
7.5921035e-07
7.5675727e-07
7.5438365e-07
7.5208485e-07
7.4985652e-07
7.4769452e-07
7.4559497e-07
7.4355417e-07
7.4156862e-07
7.3963497e-07
7.3775005e-07
7.3591082e-07
7.3411436e-07
7.3235788e-07
7.306387e-07
7.2895425e-07
7.2730204e-07
7.256797e-07
7.2408488e-07
7.2251544e-07
7.2096914e-07
7.1944391e-07
7.1793774e-07
7.1644866e-07
7.1497477e-07
7.135142e-07
7.1206515e-07
7.1062585e-07
7.0919459e-07
7.0776968e-07
7.0634946e-07
7.0493232e-07
7.0351667e-07
7.0210094e-07
7.0068359e-07
6.992631e-07
6.9783798e-07
6.9640673e-07
6.9496788e-07
6.9351998e-07
6.9206157e-07
6.9059119e-07
6.891074e-07
6.8760873e-07
6.8609369e-07
6.8456079e-07
6.8300853e-07
6.8143552e-07
6.7984003e-07
6.7822376e-07
6.7660429e-07
6.75025e-07
6.7350542e-07
6.7204375e-07
6.7063736e-07
6.6928385e-07
6.6798136e-07
6.6672839e-07
6.6552352e-07
6.6436527e-07
6.6325201e-07
6.6218199e-07
6.611534e-07
6.6016439e-07
6.5921306e-07
6.5829759e-07
6.5741594e-07
6.5656687e-07
6.5574602e-07
6.5496004e-07
6.5417428e-07
6.5350949e-07
6.5239195e-07
2.8930583e-07
2.1308738e-07
1.9721628e-07
1.9129616e-07
1.8813583e-07
1.8609394e-07
1.846698e-07
1.8363236e-07
1.8285199e-07
1.8225003e-07
1.8177632e-07
1.813976e-07
1.8109106e-07
1.8084063e-07
1.8063478e-07
1.8046511e-07
1.8032569e-07
1.8021222e-07
1.8012368e-07
1.8005434e-07
1.8005347e-07
1.7975359e-07
1.8282217e-07
1.6060608e-07
4.3360113e-07
1.0597282e-06
1.1870502e-06
1.2020642e-06
1.1741588e-06
1.1427475e-06
1.1152178e-06
1.0917535e-06
1.071449e-06
1.0535997e-06
1.03774e-06
1.0235305e-06
1.0107008e-06
9.9903579e-07
9.8836658e-07
9.7855704e-07
9.6949508e-07
9.6108718e-07
9.5325505e-07
9.4593293e-07
9.3906519e-07
9.3260469e-07
9.265112e-07
9.2075003e-07
9.152911e-07
9.1010821e-07
9.0517838e-07
9.0048126e-07
8.9599882e-07
8.9171505e-07
8.8761559e-07
8.836875e-07
8.799191e-07
8.7629983e-07
8.7282007e-07
8.69471e-07
8.6624453e-07
8.6313322e-07
8.6013017e-07
8.5722901e-07
8.5442377e-07
8.5170888e-07
8.4907913e-07
8.465296e-07
8.4405568e-07
8.4165298e-07
8.3931736e-07
8.3704488e-07
8.3483178e-07
8.3267449e-07
8.3056958e-07
8.2851377e-07
8.2650391e-07
8.2453698e-07
8.2261008e-07
8.2072039e-07
8.1886522e-07
8.1704193e-07
8.1524806e-07
8.134811e-07
8.1173868e-07
8.1001851e-07
8.0831835e-07
8.0663602e-07
8.049694e-07
8.0331642e-07
8.0167506e-07
8.0004334e-07
7.9841932e-07
7.9680111e-07
7.9518684e-07
7.9357467e-07
7.919628e-07
7.9034944e-07
7.8873284e-07
7.8711126e-07
7.8548297e-07
7.8384627e-07
7.8219945e-07
7.8054083e-07
7.7886872e-07
7.7718142e-07
7.7547722e-07
7.7375441e-07
7.7201124e-07
7.7024596e-07
7.6845695e-07
7.6664218e-07
7.6480355e-07
7.6296079e-07
7.6116325e-07
7.5943332e-07
7.5776901e-07
7.5616733e-07
7.5462551e-07
7.5314138e-07
7.5171318e-07
7.5033929e-07
7.4901799e-07
7.4774745e-07
7.465257e-07
7.4535071e-07
7.4422039e-07
7.4313261e-07
7.4208532e-07
7.4107623e-07
7.4010394e-07
7.3916347e-07
7.3826252e-07
7.3736137e-07
7.3659851e-07
7.3531495e-07
3.0538246e-07
2.1755872e-07
1.98555e-07
1.9135182e-07
1.8747793e-07
1.8497118e-07
1.8321961e-07
1.8194064e-07
1.8097606e-07
1.8022986e-07
1.7964077e-07
1.7916806e-07
1.7878377e-07
1.7846817e-07
1.7820705e-07
1.7799001e-07
1.7780964e-07
1.7766042e-07
1.7754076e-07
1.7744266e-07
1.7742564e-07
1.770514e-07
1.8038979e-07
1.5848791e-07
4.3778527e-07
1.1475616e-06
1.3136483e-06
1.343777e-06
1.3175545e-06
1.283945e-06
1.2536853e-06
1.2276954e-06
1.2051136e-06
1.1851971e-06
1.1674526e-06
1.1515202e-06
1.1371104e-06
1.1239899e-06
1.1119748e-06
1.100916e-06
1.0906907e-06
1.0811959e-06
1.0723448e-06
1.0640648e-06
1.0562938e-06
1.0489796e-06
1.0420772e-06
1.035548e-06
1.0293582e-06
1.0234788e-06
1.0178839e-06
1.0125508e-06
1.0074593e-06
1.0025915e-06
9.9793126e-07
9.9346411e-07
9.8917696e-07
9.8505798e-07
9.810964e-07
9.7728232e-07
9.736067e-07
9.7006119e-07
9.6663808e-07
9.6333022e-07
9.6013094e-07
9.57034e-07
9.5403357e-07
9.5112415e-07
9.4830059e-07
9.4555796e-07
9.4289164e-07
9.4029721e-07