/*--------------------------------*- C++ -*----------------------------------*\
  =========                 |
  \\      /  F ield         | OpenFOAM: The Open Source CFD Toolbox
   \\    /   O peration     | Website:  https://openfoam.org
    \\  /    A nd           | Version:  12
     \\/     M anipulation  |
\*---------------------------------------------------------------------------*/
FoamFile
{
    format      ascii;
    class       volScalarField;
    location    "300";
    object      nut;
}
// * * * * * * * * * * * * * * * * * * * * * * * * * * * * * * * * * * * * * //

dimensions      [0 2 -1 0 0 0 0];

internalField   nonuniform List<scalar> 
7480
(
2.2787582e-06
3.6571701e-06
4.9260692e-06
5.9829604e-06
6.8029008e-06
7.3995738e-06
7.8044681e-06
8.055257e-06
8.1890462e-06
8.2382385e-06
8.2288508e-06
8.1805182e-06
8.1074058e-06
8.0193865e-06
7.9231649e-06
7.8232492e-06
7.722788e-06
7.6241658e-06
7.5291881e-06
7.4393656e-06
7.3560705e-06
7.2805961e-06
7.2141094e-06
7.1575557e-06
7.1115463e-06
7.0760703e-06
7.0499816e-06
7.0314171e-06
7.0177298e-06
7.0060328e-06
6.9939545e-06
6.9801179e-06
6.9641678e-06
6.9465346e-06
6.9278996e-06
6.908799e-06
6.889452e-06
6.8698191e-06
6.8497728e-06
6.8292616e-06
6.8083807e-06
6.7873246e-06
6.7662943e-06
6.7454187e-06
6.724743e-06
6.7042696e-06
6.6840006e-06
6.6639486e-06
6.644127e-06
6.6245432e-06
6.6051967e-06
6.5860816e-06
6.5671917e-06
6.5485243e-06
6.530077e-06
6.5118436e-06
6.4938163e-06
6.4759909e-06
6.4583669e-06
6.4409369e-06
6.4236939e-06
6.406632e-06
6.389746e-06
6.3730313e-06
6.3564848e-06
6.3401029e-06
6.3238819e-06
6.3078185e-06
6.2919089e-06
6.2761496e-06
6.2605372e-06
6.2450679e-06
6.2297385e-06
6.2145457e-06
6.1994863e-06
6.184557e-06
6.1697548e-06
6.1550769e-06
6.1405203e-06
6.1260821e-06
6.1117598e-06
6.0975505e-06
6.0834516e-06
6.0694605e-06
6.0555746e-06
6.0417914e-06
6.0281083e-06
6.0145226e-06
6.0010315e-06
5.9876316e-06
5.9743204e-06
5.9610911e-06
5.9479453e-06
5.9348572e-06
5.9218663e-06
5.9088212e-06
5.8960374e-06
5.882535e-06
5.8710505e-06
5.8499559e-06
8.4921765e-06
2.5240235e-06
1.1977807e-06
9.0882811e-07
9.2943257e-07
1.0544098e-06
1.2203702e-06
1.4063289e-06
1.6000324e-06
1.7942413e-06
1.9883785e-06
2.1842473e-06
2.3833245e-06
2.5911226e-06
2.8186058e-06
3.0819114e-06
3.4094465e-06
3.8230183e-06
4.2928086e-06
4.8167389e-06
5.3991523e-06
6.0430277e-06
6.7465993e-06
7.5105272e-06
8.3184622e-06
9.1409497e-06
9.943818e-06
1.0690985e-05
1.1349173e-05
1.1903428e-05
1.235972e-05
1.2737244e-05
1.3059381e-05
1.3344809e-05
1.3603373e-05
1.3836473e-05
1.4041606e-05
1.4217459e-05
1.4366545e-05
1.4494886e-05
1.4609459e-05
1.4715486e-05
1.4815724e-05
1.49103e-05
1.4998738e-05
1.5081148e-05
1.5158308e-05
1.5231084e-05
1.5299972e-05
1.5365089e-05
1.5426428e-05
1.54841e-05
1.5538328e-05
1.5589306e-05
1.5637124e-05
1.5681846e-05
1.572358e-05
1.5762459e-05
1.5798492e-05
1.5831938e-05
1.5862836e-05
1.5891251e-05
1.5917277e-05
1.5941023e-05
1.5962588e-05
1.5982062e-05
1.5999532e-05
1.6015079e-05
1.6028778e-05
1.6040704e-05
1.6050929e-05
1.6059521e-05
1.6066548e-05
1.6072074e-05
1.6076161e-05
1.6078871e-05
1.6080262e-05
1.6080391e-05
1.6079311e-05
1.6077076e-05
1.6073736e-05
1.6069338e-05
1.606393e-05
1.6057556e-05
1.6050259e-05
1.604208e-05
1.603306e-05
1.6023235e-05
1.6012643e-05
1.6001318e-05
1.5989292e-05
1.5976605e-05
1.5963266e-05
1.5949373e-05
1.5934783e-05
1.5919987e-05
1.5903969e-05
1.5888502e-05
1.5873147e-05
1.5844201e-05
5.0706603e-05
2.7776108e-05
1.4496413e-05
8.3567851e-06
5.359121e-06
3.7246741e-06
2.7514267e-06
2.1351741e-06
1.7270786e-06
1.4476368e-06
1.2516972e-06
1.1121564e-06
1.0120108e-06
9.4039744e-07
8.9056664e-07
8.5832326e-07
8.4342253e-07
8.4106597e-07
8.8362124e-07
9.8080772e-07
1.1373819e-06
1.3595874e-06
1.6550414e-06
2.0128365e-06
2.4605728e-06
3.0383014e-06
3.8219903e-06
4.7874992e-06
5.896462e-06
7.1070955e-06
8.377482e-06
9.6545825e-06
1.0876263e-05
1.1993476e-05
1.2979594e-05
1.3834224e-05
1.4577545e-05
1.5239645e-05
1.5847943e-05
1.6419269e-05
1.6958469e-05
1.7463183e-05
1.7929814e-05
1.8359355e-05
1.875695e-05
1.9129115e-05
1.9480878e-05
1.9814681e-05
2.0131261e-05
2.0431181e-05
2.0715618e-05
2.0986099e-05
2.1243891e-05
2.1489782e-05
2.1724297e-05
2.1947974e-05
2.2161402e-05
2.2365129e-05
2.2559565e-05
2.274488e-05
2.2921567e-05
2.3090069e-05
2.3250749e-05
2.3403932e-05
2.3549915e-05
2.3688979e-05
2.3821384e-05
2.3947378e-05
2.406719e-05
2.4181045e-05
2.4289153e-05
2.4391718e-05
2.4488937e-05
2.4580997e-05
2.4668082e-05
2.4750369e-05
2.4828029e-05
2.4901228e-05
2.4970128e-05
2.5034882e-05
2.5095641e-05
2.515255e-05
2.520575e-05
2.5255378e-05
2.5301565e-05
2.5344439e-05
2.5384125e-05
2.5420741e-05
2.5454402e-05
2.5485222e-05
2.5513304e-05
2.5538771e-05
2.5561685e-05
2.5582289e-05
2.5600367e-05
2.5616879e-05
2.5629904e-05
2.5644149e-05
2.5650696e-05
2.5663486e-05
6.732411e-05
6.0458704e-05
4.9657437e-05
3.880067e-05
3.0044704e-05
2.353833e-05
1.8784618e-05
1.5285574e-05
1.2671002e-05
1.0684615e-05
9.1508618e-06
7.9478495e-06
6.989342e-06
6.2137468e-06
5.575402e-06
5.040353e-06
4.5819589e-06
4.1789647e-06
3.8153116e-06
3.482838e-06
3.1613875e-06
2.8723245e-06
2.5886283e-06
2.3200299e-06
2.0703466e-06
1.8524513e-06
1.6798738e-06
1.5720612e-06
1.6134701e-06
1.8355042e-06
2.2186902e-06
2.7775755e-06
3.5546486e-06
4.6307183e-06
5.9424394e-06
7.3936092e-06
8.9253411e-06
1.0461302e-05
1.1925334e-05
1.3267349e-05
1.4470572e-05
1.5548359e-05
1.6531286e-05
1.745047e-05
1.8325697e-05
1.9162534e-05
1.9958018e-05
2.0708816e-05
2.141611e-05
2.2085174e-05
2.2721959e-05
2.3330349e-05
2.3911978e-05
2.446773e-05
2.4998952e-05
2.5507442e-05
2.5994833e-05
2.6462299e-05
2.6910743e-05
2.7340964e-05
2.7753836e-05
2.8150188e-05
2.8530743e-05
2.889616e-05
2.9247059e-05
2.9584013e-05
2.9907548e-05
3.0218155e-05
3.0516295e-05
3.0802403e-05
3.1076891e-05
3.1340148e-05
3.159255e-05
3.1834452e-05
3.20662e-05
3.2288125e-05
3.2500549e-05
3.2703781e-05
3.289812e-05
3.3083857e-05
3.3261272e-05
3.3430639e-05
3.3592221e-05
3.3746276e-05
3.3893054e-05
3.4032798e-05
3.4165743e-05
3.4292117e-05
3.4412143e-05
3.4526039e-05
3.4634005e-05
3.4736272e-05
3.4832985e-05
3.4924523e-05
3.501067e-05
3.5092794e-05
3.5168115e-05
3.5244943e-05
3.5300524e-05
3.5402707e-05
6.961689e-05
6.8461063e-05
6.5788251e-05
6.152306e-05
5.6214775e-05
5.0567342e-05
4.5106241e-05
4.0114244e-05
3.5695174e-05
3.1851199e-05
2.8536866e-05
2.5688748e-05
2.3241389e-05
2.1132163e-05
1.930668e-05
1.7718234e-05
1.6326417e-05
1.5096567e-05
1.399913e-05
1.3007698e-05
1.2099878e-05
1.1256268e-05
1.045799e-05
9.6865064e-06
8.9225528e-06
8.1605769e-06
7.3628654e-06
6.573056e-06
5.7602618e-06
4.9741311e-06
4.2432123e-06
3.5916743e-06
3.0609412e-06
2.6657335e-06
2.4710782e-06
2.5842164e-06
2.9364794e-06
3.554909e-06
4.4875742e-06
5.7760089e-06
7.2942289e-06
8.9523701e-06
1.0662273e-05
1.2332697e-05
1.3902497e-05
1.5348419e-05
1.6680624e-05
1.7926979e-05
1.9114449e-05
2.0257216e-05
2.1356557e-05
2.2408607e-05
2.3412024e-05
2.4370153e-05
2.5288333e-05
2.6170603e-05
2.7018909e-05
2.7834391e-05
2.861856e-05
2.9373243e-05
3.0100058e-05
3.0800261e-05
3.1474945e-05
3.2125197e-05
3.275206e-05
3.3356463e-05
3.3939242e-05
3.4501183e-05
3.5043023e-05
3.5565446e-05
3.6069094e-05
3.6554573e-05
3.7022461e-05
3.7473303e-05
3.7907626e-05
3.8325933e-05
3.8728707e-05
3.9116416e-05
3.948951e-05
3.9848426e-05
4.0193586e-05
4.0525401e-05
4.0844272e-05
4.1150587e-05
4.1444724e-05
4.1727053e-05
4.1997933e-05
4.2257714e-05
4.2506737e-05
4.2745335e-05
4.2973825e-05
4.3192551e-05
4.3401763e-05
4.360198e-05
4.3793012e-05
4.397664e-05
4.4149069e-05
4.4323389e-05
4.4456793e-05
4.4699108e-05
7.0295124e-05
6.9969941e-05
6.9358965e-05
6.8255783e-05
6.6537904e-05
6.4216851e-05
6.1410928e-05
5.8286163e-05
5.5006331e-05
5.1705904e-05
4.848247e-05
4.5400555e-05
4.2498013e-05
3.9792327e-05
3.7287365e-05
3.4978267e-05
3.2854646e-05
3.0902859e-05
2.9107602e-05
2.7452162e-05
2.592017e-05
2.4494213e-05
2.3157611e-05
2.1892644e-05
2.0683151e-05
1.9514674e-05
1.8366715e-05
1.7222555e-05
1.6060697e-05
1.4868124e-05
1.3637014e-05
1.2340886e-05
1.1033435e-05
9.6791906e-06
8.3252551e-06
7.0511456e-06
5.8958346e-06
4.9128779e-06
4.1555645e-06
3.6285113e-06
3.4914798e-06
3.6988768e-06
4.2484593e-06
5.1822387e-06
6.5274476e-06
8.1292479e-06
9.9021043e-06
1.1739158e-05
1.3548173e-05
1.5271299e-05
1.6891955e-05
1.8423915e-05
1.9890983e-05
2.1309489e-05
2.2683046e-05
2.4008325e-05
2.5283283e-05
2.6510215e-05
2.7693448e-05
2.8836225e-05
2.9940126e-05
3.1006318e-05
3.2036367e-05
3.3032001e-05
3.3994686e-05
3.4925626e-05
3.5825958e-05
3.6696791e-05
3.7539145e-05
3.8353949e-05
3.9142078e-05
3.9904358e-05
4.0641568e-05
4.1354445e-05
4.2043691e-05
4.2709978e-05
4.3353951e-05
4.3976228e-05
4.4577406e-05
4.5158062e-05
4.5718756e-05
4.6260033e-05
4.6782422e-05
4.728644e-05
4.777259e-05
4.8241365e-05
4.8693245e-05
4.9128701e-05
4.954819e-05
4.9952165e-05
5.0341054e-05
5.0715321e-05
5.1075323e-05
5.1421718e-05
5.175435e-05
5.2075442e-05
5.2379967e-05
5.2687052e-05
5.2927881e-05
5.336167e-05
7.096421e-05
7.0722159e-05
7.0435323e-05
7.00506e-05
6.9497416e-05
6.8711209e-05
6.765121e-05
6.6308174e-05
6.4702248e-05
6.287418e-05
6.0875513e-05
5.8760224e-05
5.6577783e-05
5.4370637e-05
5.2173246e-05
5.0012268e-05
4.7907309e-05
4.5871908e-05
4.3914606e-05
4.2039668e-05
4.0248103e-05
3.853801e-05
3.6905292e-05
3.5343804e-05
3.3845833e-05
3.2402639e-05
3.100375e-05
2.9636514e-05
2.8285859e-05
2.6935938e-05
2.557173e-05
2.4175431e-05
2.274134e-05
2.1250611e-05
1.9686663e-05
1.8042172e-05
1.6334396e-05
1.4561935e-05
1.2770245e-05
1.0991658e-05
9.3100155e-06
7.7842275e-06
6.481812e-06
5.4761288e-06
4.7763233e-06
4.5872795e-06
4.7977541e-06
5.4397883e-06
6.5750406e-06
8.0842263e-06
9.8519596e-06
1.1770674e-05
1.373069e-05
1.565195e-05
1.7497939e-05
1.9268857e-05
2.0981086e-05
2.2647225e-05
2.4269057e-05
2.5842748e-05
2.7366347e-05
2.8841772e-05
3.0272134e-05
3.1659421e-05
3.3004694e-05
3.4309107e-05
3.5574121e-05
3.680112e-05
3.7991268e-05
3.9145644e-05
4.0265312e-05
4.1351276e-05
4.240447e-05
4.3425783e-05
4.4416063e-05
4.5376123e-05
4.6306738e-05
4.7208652e-05
4.8082584e-05
4.8929229e-05
4.9749264e-05
5.0543344e-05
5.1312112e-05
5.2056192e-05
5.2776196e-05
5.3472723e-05
5.4146359e-05
5.4797683e-05
5.5427256e-05
5.6035637e-05
5.662336e-05
5.7190995e-05
5.7739001e-05
5.8268167e-05
5.8778367e-05
5.9272292e-05
5.9743469e-05
6.0218219e-05
6.0596307e-05
6.1272648e-05
7.1751051e-05
7.151147e-05
7.1259278e-05
7.0989787e-05
7.0686746e-05
7.0324657e-05
6.9874349e-05
6.9308838e-05
6.8607523e-05
6.7758936e-05
6.6760914e-05
6.5619481e-05
6.4348405e-05
6.2966081e-05
6.1493142e-05
5.995063e-05
5.8358707e-05
5.6735818e-05
5.509822e-05
5.3459722e-05
5.1831662e-05
5.0222933e-05
4.8640121e-05
4.7087614e-05
4.5567749e-05
4.4081e-05
4.2626123e-05
4.1200086e-05
3.9797888e-05
3.8412737e-05
3.7036368e-05
3.5660436e-05
3.4265103e-05
3.2837636e-05
3.1363034e-05
2.9828289e-05
2.822299e-05
2.6530369e-05
2.4748441e-05
2.286924e-05
2.0896179e-05
1.8846567e-05
1.6740775e-05
1.4630344e-05
1.2550844e-05
1.0622371e-05
8.8924751e-06
7.4716556e-06
6.3904221e-06
5.8279425e-06
5.7801051e-06
6.2317352e-06
7.2393545e-06
8.6955305e-06
1.047816e-05
1.2470853e-05
1.4553257e-05
1.6633584e-05
1.8666121e-05
2.0644002e-05
2.2576366e-05
2.4468804e-05
2.631872e-05
2.8121508e-05
2.9875871e-05
3.1583302e-05
3.3245355e-05
3.4862774e-05
3.6436229e-05
3.7966732e-05
3.9455372e-05
4.0903114e-05
4.2310875e-05
4.3679583e-05
4.5010138e-05
4.6303399e-05
4.7560199e-05
4.8781347e-05
4.9967627e-05
5.1119802e-05
5.2238617e-05
5.3324802e-05
5.437907e-05
5.5402122e-05
5.6394643e-05
5.7357309e-05
5.8290786e-05
5.9195731e-05
6.0072789e-05
6.09226e-05
6.1745784e-05
6.2542999e-05
6.3314788e-05
6.4062052e-05
6.4784687e-05
6.548586e-05
6.6157472e-05
6.683403e-05
6.7379034e-05
6.8348311e-05
7.2650844e-05
7.2409063e-05
7.215759e-05
7.1900027e-05
7.163498e-05
7.1357196e-05
7.1057783e-05
7.0724973e-05
7.0345367e-05
6.9905508e-05
6.9393381e-05
6.8799512e-05
6.8117885e-05
6.7346247e-05
6.6485909e-05
6.5541233e-05
6.451896e-05
6.3427502e-05
6.2276272e-05
6.1075094e-05
5.9833719e-05
5.8561445e-05
5.7266828e-05
5.5957468e-05
5.4639847e-05
5.3319223e-05
5.19996e-05
5.0683692e-05
4.9372822e-05
4.8066903e-05
4.6764321e-05
4.5462853e-05
4.4156536e-05
4.2838106e-05
4.1498957e-05
4.0129767e-05
3.8720766e-05
3.7262756e-05
3.5732971e-05
3.4118763e-05
3.2411395e-05
3.0601246e-05
2.8675853e-05
2.6636335e-05
2.4482814e-05
2.2236781e-05
1.9913516e-05
1.7559103e-05
1.5210789e-05
1.2977317e-05
1.0945274e-05
9.231934e-06
7.8961435e-06
7.1317605e-06
6.9507313e-06
7.3465849e-06
8.3647888e-06
9.8590245e-06
1.1725943e-05
1.383141e-05
1.6046048e-05
1.8277629e-05
2.0483344e-05
2.2655285e-05
2.4795364e-05
2.6900784e-05
2.8965118e-05
3.0984127e-05
3.295703e-05
3.488416e-05
3.676553e-05
3.8601174e-05
4.0391532e-05
4.2137237e-05
4.3838919e-05
4.5497234e-05
4.7112884e-05
4.8686587e-05
5.0219061e-05
5.1711027e-05
5.3163209e-05
5.4576327e-05
5.5951097e-05
5.7288229e-05
5.858843e-05
5.9852401e-05
6.1080841e-05
6.2274444e-05
6.3433899e-05
6.4559895e-05
6.5653103e-05
6.6714238e-05
6.7743905e-05
6.8743084e-05
6.9711675e-05
7.0653318e-05
7.1558128e-05
7.2469643e-05
7.3210737e-05
7.4522345e-05
7.3655984e-05
7.3412048e-05
7.3158695e-05
7.2900462e-05
7.2638431e-05
7.2372203e-05
7.21001e-05
7.1819065e-05
7.1524596e-05
7.1210871e-05
7.0871102e-05
7.0498024e-05
7.0084471e-05
6.9623944e-05
6.9111085e-05
6.8542002e-05
6.7914428e-05
6.7227733e-05
6.6482824e-05
6.568194e-05
6.4828413e-05
6.3926392e-05
6.2980574e-05
6.1995946e-05
6.0977536e-05
5.9930196e-05
5.8858434e-05
5.7766273e-05
5.665711e-05
5.5533622e-05
5.4397616e-05
5.3250222e-05
5.2091304e-05
5.0919373e-05
4.9731588e-05
4.8523919e-05
4.7291134e-05
4.6027918e-05
4.4724798e-05
4.3371162e-05
4.1956844e-05
4.0471707e-05
3.8905025e-05
3.7242793e-05
3.5468486e-05
3.3571546e-05
3.1548015e-05
2.9368401e-05
2.7092559e-05
2.4689449e-05
2.2188234e-05
1.9642138e-05
1.7090965e-05
1.4654036e-05
1.2434849e-05
1.0563105e-05
9.116917e-06
8.3545139e-06
8.2037885e-06
8.7280989e-06
9.8880533e-06
1.1548752e-05
1.3588977e-05
1.5859402e-05
1.8230905e-05
2.0624754e-05
2.3009788e-05
2.5377561e-05
2.7721439e-05
3.0032393e-05
3.2303393e-05
3.453121e-05
3.6714467e-05
3.8852061e-05
4.0943211e-05
4.2987665e-05
4.4985479e-05
4.6936838e-05
4.8842057e-05
5.0701559e-05
5.2515832e-05
5.4285412e-05
5.6010873e-05
5.7692817e-05
5.9331864e-05
6.0928653e-05
6.2483836e-05
6.3998077e-05
6.5472048e-05
6.690643e-05
6.83019e-05
6.965918e-05
7.09789e-05
7.2262075e-05
7.3508585e-05
7.4722513e-05
7.5892064e-05
7.7070506e-05
7.8036125e-05
7.9738221e-05
7.4760105e-05
7.451398e-05
7.4258562e-05
7.3998462e-05
7.3734991e-05
7.3468513e-05
7.3198931e-05
7.2925735e-05
7.26479e-05
7.236377e-05
7.207099e-05
7.1766516e-05
7.1446705e-05
7.1107482e-05
7.0744567e-05
7.0353719e-05
6.9930984e-05
6.9472907e-05
6.8976697e-05
6.8440335e-05
6.7862622e-05
6.7243172e-05
6.6582359e-05
6.588123e-05
6.5141385e-05
6.4364841e-05
6.3553899e-05
6.2711012e-05
6.1838655e-05
6.093921e-05
6.0014842e-05
5.9067455e-05
5.8098531e-05
5.710897e-05
5.6098934e-05
5.5067766e-05
5.4013877e-05
5.2935066e-05
5.1827771e-05
5.0686924e-05
4.950637e-05
4.8279126e-05
4.6997565e-05
4.5652625e-05
4.4232887e-05
4.272631e-05
4.1122548e-05
3.9409432e-05
3.7575893e-05
3.5603061e-05
3.3479169e-05
3.120526e-05
2.8779499e-05
2.6227116e-05
2.3571104e-05
2.0866787e-05
1.8161825e-05
1.5608767e-05
1.3319441e-05
1.1415633e-05
1.0096864e-05
9.4902968e-06
9.5895082e-06
1.0428638e-05
1.1875268e-05
1.3824393e-05
1.6114721e-05
1.8590634e-05
2.1144412e-05
2.3722645e-05
2.6303726e-05
2.887423e-05
3.1421268e-05
3.3934945e-05
3.6409599e-05
3.8841917e-05
4.1229437e-05
4.3570434e-05
4.5863896e-05
4.8109246e-05
5.0306186e-05
5.2454648e-05
5.4554734e-05
5.6606669e-05
5.8610776e-05
6.0567453e-05
6.247716e-05
6.4340406e-05
6.615774e-05
6.7929745e-05
6.9657022e-05
7.1340234e-05
7.2979972e-05
7.4577227e-05
7.6131814e-05
7.7648216e-05
7.9112611e-05
8.0588588e-05
8.1806192e-05
8.3945448e-05
7.5957077e-05
7.5708662e-05
7.5451046e-05
7.5188867e-05
7.4923402e-05
7.465507e-05
7.4384009e-05
7.411022e-05
7.3833562e-05
7.3553701e-05
7.3270042e-05
7.2981672e-05
7.2687316e-05
7.2385314e-05
7.2073643e-05
7.1749964e-05
7.1411705e-05
7.1056164e-05
7.068063e-05
7.0282499e-05
6.9859383e-05
6.9409202e-05
6.8930252e-05
6.8421251e-05
6.7881346e-05
6.7310107e-05
6.6707497e-05
6.607382e-05
6.5409672e-05
6.4715866e-05
6.3993373e-05
6.3243254e-05
6.2466575e-05
6.166432e-05
6.0837266e-05
5.9985877e-05
5.9110173e-05
5.8209729e-05
5.7283521e-05
5.6329726e-05
5.5345643e-05
5.432769e-05
5.3271473e-05
5.217172e-05
5.1021843e-05
4.981389e-05
4.8539304e-05
4.7188651e-05
4.575192e-05
4.4215807e-05
4.2568354e-05
4.0797792e-05
3.8889951e-05
3.6822927e-05
3.4587748e-05
3.2188364e-05
2.9619772e-05
2.6916683e-05
2.4117095e-05
2.1267908e-05
1.8476221e-05
1.5892149e-05
1.3654529e-05
1.1930018e-05
1.0969672e-05
1.0742829e-05
1.1324455e-05
1.260519e-05
1.4489993e-05
1.6806845e-05
1.9381195e-05
2.2085166e-05
2.4848189e-05
2.7636169e-05
3.042771e-05
3.3205342e-05
3.5956333e-05
3.8672739e-05
4.1349332e-05
4.3982292e-05
4.6568935e-05
4.9107464e-05
5.1596659e-05
5.4035719e-05
5.6424172e-05
5.8761789e-05
6.1048528e-05
6.3284496e-05
6.5469916e-05
6.7605107e-05
6.9690453e-05
7.1726437e-05
7.3713513e-05
7.5652553e-05
7.7543243e-05
7.9390384e-05
8.1178021e-05
8.2980548e-05
8.4476364e-05
8.7097691e-05
7.7240832e-05
7.6989996e-05
7.6730022e-05
7.6465587e-05
7.6197925e-05
7.592743e-05
7.565425e-05
7.5378455e-05
7.5100068e-05
7.4819054e-05
7.4535303e-05
7.4248601e-05
7.39586e-05
7.3664781e-05
7.3366431e-05
7.3062619e-05
7.2752191e-05
7.243378e-05
7.2105831e-05
7.1766639e-05
7.1414403e-05
7.1047286e-05
7.0663471e-05
7.0261224e-05
6.9838944e-05
6.9395204e-05
6.8928785e-05
6.8438689e-05
6.7924154e-05
6.7384642e-05
6.6819838e-05
6.6229623e-05
6.5614046e-05
6.497328e-05
6.430757e-05
6.3617156e-05
6.2902194e-05
6.2162692e-05
6.1398435e-05
6.0608882e-05
5.9793053e-05
5.8949436e-05
5.8075928e-05
5.7169804e-05
5.6227573e-05
5.5244802e-05
5.421618e-05
5.3135437e-05
5.1995644e-05
5.078831e-05
4.9503917e-05
4.813214e-05
4.6661555e-05
4.5077814e-05
4.3366714e-05
4.1513055e-05
3.9505809e-05
3.7319198e-05
3.4951022e-05
3.2397452e-05
2.966725e-05
2.6804422e-05
2.3860111e-05
2.0910265e-05
1.8128472e-05
1.5654753e-05
1.3666111e-05
1.2457768e-05
1.2021673e-05
1.2444397e-05
1.3647247e-05
1.5533447e-05
1.791715e-05
2.0610304e-05
2.3473394e-05
2.6425249e-05
2.942205e-05
3.2435086e-05
3.5442636e-05
3.8429504e-05
4.1385714e-05
4.4304312e-05
4.7180243e-05
5.0009922e-05
5.2790813e-05
5.5521105e-05
5.8199536e-05
6.0825259e-05
6.3397741e-05
6.5916696e-05
6.8382021e-05
7.0793798e-05
7.3152162e-05
7.5457707e-05
7.770987e-05
7.9913658e-05
8.2050836e-05
8.4207021e-05
8.6005724e-05
8.9151913e-05
7.8605357e-05
7.835194e-05
7.8089424e-05
7.7822536e-05
7.7552483e-05
7.7279626e-05
7.7004099e-05
7.6725971e-05
7.6445283e-05
7.6162051e-05
7.5876265e-05
7.5587882e-05
7.5296819e-05
7.5002938e-05
7.4706026e-05
7.4405782e-05
7.4101792e-05
7.379352e-05
7.3480293e-05
7.3161296e-05
7.2835576e-05
7.2502057e-05
7.2159552e-05
7.1806795e-05
7.1442469e-05
7.1065237e-05
7.0673775e-05
7.0266805e-05
6.9843126e-05
6.9401633e-05
6.8941344e-05
6.8461412e-05
6.796113e-05
6.7439928e-05
6.6897362e-05
6.6333088e-05
6.5746829e-05
6.5138332e-05
6.450733e-05
6.3853484e-05
6.3176313e-05
6.2475122e-05
6.174892e-05
6.0996364e-05
6.0215687e-05
5.9404584e-05
5.8560141e-05
5.7678725e-05
5.6756057e-05
5.5786996e-05
5.4765428e-05
5.368425e-05
5.2535397e-05
5.1309215e-05
4.9994796e-05
4.8579322e-05
4.7051259e-05
4.5394664e-05
4.3590852e-05
4.1624172e-05
3.9481616e-05
3.7141083e-05
3.4598869e-05
3.1854293e-05
2.8945123e-05
2.5927489e-05
2.2868784e-05
1.9952248e-05
1.7320127e-05
1.5191552e-05
1.3844951e-05
1.3329449e-05
1.371366e-05
1.4951538e-05
1.6926264e-05
1.9436284e-05
2.2285623e-05
2.5330906e-05
2.8486297e-05
3.170142e-05
3.4941973e-05
3.8183123e-05
4.1407851e-05
4.460456e-05
4.7764955e-05
5.0883031e-05
5.3954457e-05
5.6976079e-05
5.9945604e-05
6.2861382e-05
6.5722243e-05
6.8527411e-05
7.1276349e-05
7.3969085e-05
7.660458e-05
7.9187846e-05
8.1698171e-05
8.4232714e-05
8.6356977e-05
9.0068187e-05
8.0044672e-05
7.9788492e-05
7.9523231e-05
7.925368e-05
7.8981024e-05
7.8705599e-05
7.8427524e-05
7.8146857e-05
7.7863636e-05
7.757788e-05
7.7289594e-05
7.6998768e-05
7.6705378e-05
7.6409382e-05
7.6110717e-05
7.5809286e-05
7.5504958e-05
7.5197547e-05
7.4886806e-05
7.4572415e-05
7.4253966e-05
7.3930959e-05
7.3602797e-05
7.3268783e-05
7.2928129e-05
7.2579959e-05
7.222333e-05
7.1857241e-05
7.1480659e-05
7.109254e-05
7.0691848e-05
7.0277585e-05
6.9848799e-05
6.9404606e-05
6.8944196e-05
6.8466837e-05
6.7971866e-05
6.745869e-05
6.6926761e-05
6.6375562e-05
6.5804574e-05
6.521323e-05
6.4600873e-05
6.3966701e-05
6.330972e-05
6.2628673e-05
6.1921978e-05
6.1187628e-05
6.0423165e-05
5.9625605e-05
5.8791327e-05
5.7915978e-05
5.699443e-05
5.6020569e-05
5.4987236e-05
5.3885813e-05
5.2707012e-05
5.1439981e-05
5.0071239e-05
4.8586409e-05
4.6972548e-05
4.5207524e-05
4.3272688e-05
4.1150727e-05
3.8827913e-05
3.6287177e-05
3.3523234e-05
3.0570343e-05
2.7484821e-05
2.434703e-05
2.1341698e-05
1.8618223e-05
1.6463936e-05
1.5096557e-05
1.4632137e-05
1.511006e-05
1.6509512e-05
1.8670605e-05
2.1376087e-05
2.4428229e-05
2.7687136e-05
3.1067224e-05
3.4514714e-05
3.7992186e-05
4.1473331e-05
4.4940104e-05
4.8379826e-05
5.1783338e-05
5.5143997e-05
5.8456935e-05
6.1718557e-05
6.4926223e-05
6.8077958e-05
7.1172632e-05
7.4208284e-05
7.718956e-05
8.0092937e-05
8.302732e-05
8.5497152e-05
8.9810108e-05
8.1552832e-05
8.1293689e-05
8.1025465e-05
8.0753024e-05
8.0477541e-05
8.0199329e-05
7.9918494e-05
7.9635083e-05
7.9349126e-05
7.9060639e-05
7.8769626e-05
7.8476082e-05
7.8179993e-05
7.7881338e-05
7.7580086e-05
7.7276198e-05
7.6969622e-05
7.666029e-05
7.6348111e-05
7.6032965e-05
7.5714694e-05
7.5393092e-05
7.5067896e-05
7.4738784e-05
7.4405358e-05
7.4067151e-05
7.3723619e-05
7.3374145e-05
7.3018049e-05
7.2654591e-05
7.2282991e-05
7.1902438e-05
7.1512102e-05
7.1111155e-05
7.0698775e-05
7.027416e-05
6.9836536e-05
6.9385161e-05
6.8919329e-05
6.8438368e-05
6.7941634e-05
6.7428494e-05
6.6898308e-05
6.63504e-05
6.5784033e-05
6.5198366e-05
6.4592416e-05
6.3964996e-05
6.331467e-05
6.2639703e-05
6.1937991e-05
6.1206982e-05
6.0443608e-05
5.9644186e-05
5.8804322e-05
5.7918705e-05
5.6981154e-05
5.5984519e-05
5.4920145e-05
5.3777762e-05
5.2546718e-05
5.1212863e-05
4.9761078e-05
4.8174569e-05
4.6433384e-05
4.451558e-05
4.2399746e-05
4.007628e-05
3.751837e-05
3.4719738e-05
3.1717858e-05
2.8560171e-05
2.5364876e-05
2.2307212e-05
1.9566145e-05
1.7500047e-05
1.624304e-05
1.5955226e-05
1.668538e-05
1.8369585e-05
2.0808663e-05
2.3774664e-05
2.7075693e-05
3.0581107e-05
3.420883e-05
3.7904421e-05
4.1629862e-05
4.5358831e-05
4.9073015e-05
5.2759306e-05
5.6408193e-05
6.0012707e-05
6.356766e-05
6.7069457e-05
7.0514241e-05
7.3905559e-05
7.721644e-05
8.0567533e-05
8.3399184e-05
8.8345859e-05
8.3123928e-05
8.2861608e-05
8.2590193e-05
8.2314626e-05
8.203608e-05
8.1754852e-05
8.1471033e-05
8.1184661e-05
8.0895757e-05
8.0604334e-05
8.0310391e-05
8.0013925e-05
7.971492e-05
7.9413359e-05
7.9109218e-05
7.8802468e-05
7.8493079e-05
7.8181012e-05
7.7866224e-05
7.7548658e-05
7.7228246e-05
7.6904897e-05
7.6578497e-05
7.6248897e-05
7.5915911e-05
7.5579307e-05
7.52388e-05
7.4894056e-05
7.4544682e-05
7.4190234e-05
7.3830216e-05
7.3464088e-05
7.309127e-05
7.2711149e-05
7.2323084e-05
7.1926416e-05
7.152047e-05
7.1104567e-05
7.0678027e-05
7.0240178e-05
6.9790359e-05
6.9327916e-05
6.8852201e-05
6.8362564e-05
6.7858338e-05
6.7338829e-05
6.680329e-05
6.625089e-05
6.5680686e-05
6.5091588e-05
6.4482312e-05
6.3851331e-05
6.3196826e-05
6.2516611e-05
6.1808071e-05
6.106805e-05
6.029277e-05
5.9477778e-05
5.8617751e-05
5.7706224e-05
5.6735889e-05
5.5697819e-05
5.4581508e-05
5.3374892e-05
5.2063301e-05
5.0631712e-05
4.9058759e-05
4.7325902e-05
4.5407547e-05
4.328008e-05
4.0930295e-05
3.8332796e-05
3.5482017e-05
3.2415016e-05
2.9183273e-05
2.5956099e-05
2.2887125e-05
2.0250722e-05
1.8346024e-05
1.7344944e-05
1.7390155e-05
1.8526522e-05
2.0607824e-05
2.3404875e-05
2.668779e-05
3.0279107e-05
3.4061332e-05
3.7957955e-05
4.1916594e-05
4.590089e-05
4.9885607e-05
5.3852848e-05
5.7789676e-05
6.1686864e-05
6.5536396e-05
6.9339105e-05
7.3063268e-05
7.6840824e-05
8.0044892e-05
8.5650273e-05
8.47521e-05
8.4486383e-05
8.4211538e-05
8.3932602e-05
8.3650751e-05
8.3366269e-05
8.3079235e-05
8.2789676e-05
8.2497606e-05
8.2203033e-05
8.1905954e-05
8.160636e-05
8.1304239e-05
8.099957e-05
8.0692331e-05
8.0382496e-05
8.0070037e-05
7.9754922e-05
7.9437119e-05
7.9116588e-05
7.8793288e-05
7.8467164e-05
7.8138153e-05
7.7806176e-05
7.7471132e-05
7.7132896e-05
7.6791317e-05
7.6446208e-05
7.609735e-05
7.5744486e-05
7.5387326e-05
7.5025541e-05
7.465877e-05
7.4286616e-05
7.3908651e-05
7.3524413e-05
7.3133411e-05
7.2735128e-05
7.2329027e-05
7.1914554e-05
7.1491141e-05
7.1058213e-05
7.0615187e-05
7.0161469e-05
6.9696462e-05
6.9219554e-05
6.8730112e-05
6.8227471e-05
6.771092e-05
6.7179682e-05
6.6632891e-05
6.6069557e-05
6.5488542e-05
6.4888512e-05
6.4267893e-05
6.3624808e-05
6.2957012e-05
6.226183e-05
6.1536072e-05
6.0775869e-05
5.997666e-05
5.9132975e-05
5.823823e-05
5.7284659e-05
5.6262778e-05
5.5161964e-05
5.3968566e-05
5.2667139e-05
5.124204e-05
4.9668271e-05
4.7925479e-05
4.5986619e-05
4.3825961e-05
4.1426884e-05
3.8762577e-05
3.5840449e-05
3.268989e-05
2.9404228e-05
2.6157767e-05
2.3149626e-05
2.0738428e-05
1.9117806e-05
1.8526254e-05
1.9094313e-05
2.0763395e-05
2.3329278e-05
2.65427e-05
3.0184756e-05
3.4099082e-05
3.8182531e-05
4.236558e-05
4.6600186e-05
5.085304e-05
5.5100912e-05
5.9325904e-05
6.3522235e-05
6.76505e-05
7.1852436e-05
7.5430415e-05
8.1708508e-05
8.6431562e-05
8.6162219e-05
8.5883702e-05
8.5601149e-05
8.5315745e-05
8.5027767e-05
8.4737279e-05
8.4444301e-05
8.414884e-05
8.3850897e-05
8.3550467e-05
8.3247537e-05
8.2942094e-05
8.2634117e-05
8.2323583e-05
8.2010466e-05
8.1694737e-05
8.1376367e-05
8.1055323e-05
8.0731571e-05
8.0405074e-05
8.0075788e-05
7.9743665e-05
7.9408647e-05
7.9070664e-05
7.8729633e-05
7.8385453e-05
7.8038006e-05
7.7687154e-05
7.7332738e-05
7.6974579e-05
7.6612474e-05
7.6246202e-05
7.5875517e-05
7.5500149e-05
7.5119801e-05
7.4734149e-05
7.4342844e-05
7.3945507e-05
7.3541738e-05
7.3131115e-05
7.2713192e-05
7.2287505e-05
7.1853574e-05
7.1410901e-05
7.0958974e-05
7.0497264e-05
7.0025225e-05
6.9542283e-05
6.9047836e-05
6.8541238e-05
6.8021786e-05
6.7488702e-05
6.6941112e-05
6.6378016e-05
6.5798257e-05
6.5200476e-05
6.4583068e-05
6.3944134e-05
6.3281391e-05
6.2592118e-05
6.1873052e-05
6.1120257e-05
6.0329026e-05
5.9493608e-05
5.8607254e-05
5.7661654e-05
5.6646655e-05
5.5551203e-05
5.4360155e-05
5.3056487e-05
5.1622523e-05
5.0031674e-05
4.8259651e-05
4.6278639e-05
4.4061744e-05
4.158647e-05
3.8833702e-05
3.5813996e-05
3.2568906e-05
2.9253861e-05
2.6031649e-05
2.3222547e-05
2.1109214e-05
1.9959202e-05
1.9988394e-05
2.1233268e-05
2.3535104e-05
2.6644421e-05
3.0311089e-05
3.4340851e-05
3.860122e-05
4.3003206e-05
4.7485922e-05
5.2005943e-05
5.6540668e-05
6.103581e-05
6.5638698e-05
6.9576338e-05
7.6522686e-05
8.8156619e-05
8.7883418e-05
8.7600985e-05
8.7314565e-05
8.7025359e-05
8.6733637e-05
8.6439454e-05
8.6142821e-05
8.5843739e-05
8.5542202e-05
8.5238201e-05
8.4931722e-05
8.4622749e-05
8.431126e-05
8.3997231e-05
8.3680635e-05
8.3361443e-05
8.3039626e-05
8.271515e-05
8.2387983e-05
8.2058086e-05
8.1725418e-05
8.1389936e-05
8.1051585e-05
8.0710307e-05
8.036603e-05
8.0018674e-05
7.9668146e-05
7.9314342e-05
7.8957143e-05
7.8596423e-05
7.8232041e-05
7.7863849e-05
7.7491682e-05
7.7115367e-05
7.6734709e-05
7.63495e-05
7.595951e-05
7.5564489e-05
7.5164167e-05
7.4758251e-05
7.4346428e-05
7.3928362e-05
7.3503697e-05
7.3072055e-05
7.263304e-05
7.2186237e-05
7.1731212e-05
7.1267509e-05
7.0794656e-05
7.0312151e-05
6.9819464e-05
6.9316024e-05
6.8801212e-05
6.8274349e-05
6.773467e-05
6.7181309e-05
6.661327e-05
6.6029396e-05
6.5428322e-05
6.4808433e-05
6.4167807e-05
6.3504134e-05
6.2814645e-05
6.2095975e-05
6.1344085e-05
6.0554072e-05
5.971985e-05
5.8834379e-05
5.7888747e-05
5.6871937e-05
5.5771713e-05
5.4571433e-05
5.3253935e-05
5.1795216e-05
5.0169342e-05
4.8347752e-05
4.6302259e-05
4.4002128e-05
4.1419878e-05
3.8554003e-05
3.5413976e-05
3.2098134e-05
2.8767126e-05
2.5693751e-05
2.319763e-05
2.1576833e-05
2.1123029e-05
2.1962843e-05
2.3995142e-05
2.698518e-05
3.0662532e-05
3.4798902e-05
3.923214e-05
4.3851042e-05
4.85882e-05
5.3355417e-05
5.8293892e-05
6.2547494e-05
7.012424e-05
8.9921693e-05
8.9644401e-05
8.9357805e-05
8.9067268e-05
8.877401e-05
8.8478296e-05
8.8180175e-05
8.7879651e-05
8.7576714e-05
8.7271356e-05
8.6963563e-05
8.6653319e-05
8.6340604e-05
8.6025396e-05
8.570767e-05
8.5387398e-05
8.506455e-05
8.4739096e-05
8.4411002e-05
8.4080235e-05
8.3746756e-05
8.3410525e-05
8.3071496e-05
8.2729619e-05
8.2384837e-05
8.2037083e-05
8.1686283e-05
8.1332353e-05
8.0975201e-05
8.0614728e-05
8.0250824e-05
7.9883379e-05
7.9512274e-05
7.9137386e-05
7.8758587e-05
7.8375738e-05
7.7988693e-05
7.7597295e-05
7.7201373e-05
7.6800744e-05
7.639521e-05
7.5984555e-05
7.5568547e-05
7.5146934e-05
7.4719448e-05
7.4285798e-05
7.3845678e-05
7.339876e-05
7.29447e-05
7.2483134e-05
7.2013678e-05
7.1535927e-05
7.104945e-05
7.055379e-05
7.0048456e-05
6.9532912e-05
6.9006569e-05
6.8468771e-05
6.7918779e-05
6.7355743e-05
6.6778681e-05
6.6186442e-05
6.5577667e-05
6.4950734e-05
6.4303698e-05
6.3634212e-05
6.2939443e-05
6.2215893e-05
6.1459375e-05
6.0664741e-05
5.9825514e-05
5.8934085e-05
5.7980649e-05
5.6953808e-05
5.583892e-05
5.4617857e-05
5.3271552e-05
5.1772603e-05
5.0091816e-05
4.8198708e-05
4.6062422e-05
4.3645237e-05
4.0935327e-05
3.7922765e-05
3.4665408e-05
3.1298711e-05
2.8061419e-05
2.5280479e-05
2.3279994e-05
2.2414986e-05
2.2892282e-05
2.4673735e-05
2.7549169e-05
3.1237606e-05
3.5480267e-05
4.0094769e-05
4.4909966e-05
5.002843e-05
5.4494483e-05
6.2598269e-05
9.1721336e-05
9.1439721e-05
9.1148719e-05
9.0853816e-05
9.0556258e-05
9.0256307e-05
8.9954007e-05
8.9649352e-05
8.9342329e-05
8.9032923e-05
8.8721117e-05
8.840689e-05
8.8090222e-05