/*--------------------------------*- C++ -*----------------------------------*\
  =========                 |
  \\      /  F ield         | OpenFOAM: The Open Source CFD Toolbox
   \\    /   O peration     | Website:  https://openfoam.org
    \\  /    A nd           | Version:  12
     \\/     M anipulation  |
\*---------------------------------------------------------------------------*/
FoamFile
{
    format      ascii;
    class       surfaceScalarField;
    location    "300";
    object      phi;
}
// * * * * * * * * * * * * * * * * * * * * * * * * * * * * * * * * * * * * * //

dimensions      [0 3 -1 0 0 0 0];

internalField   nonuniform List<scalar> 
25880
(
2.0046492e-06
4.9042201e-12
2.0046388e-06
1.0464303e-11
2.004627e-06
1.1827525e-11
2.0046139e-06
1.3005611e-11
2.0045989e-06
1.5009968e-11
2.0045815e-06
1.7405011e-11
2.0045613e-06
2.0228922e-11
2.0045377e-06
2.363771e-11
2.0045099e-06
2.7777341e-11
2.0044771e-06
3.2816767e-11
2.0044381e-06
3.8985284e-11
2.0043915e-06
4.662375e-11
2.0043353e-06
5.6194783e-11
2.0042668e-06
6.8507888e-11
2.0041823e-06
8.4493205e-11
2.0040755e-06
1.0674051e-10
2.0039391e-06
1.3644845e-10
2.0037528e-06
1.8632302e-10
2.0035043e-06
2.4841788e-10
2.003091e-06
4.133561e-10
2.0025172e-06
5.7377821e-10
2.0008993e-06
1.6178721e-09
2.0005508e-06
3.4848551e-10
1.0398477e-06
9.6070318e-07
6.7835331e-08
9.7201234e-07
5.4477952e-08
1.3357379e-08
4.9469664e-08
5.0082874e-09
4.6593739e-08
2.8759255e-09
4.4483258e-08
2.1104805e-09
4.2813063e-08
1.670195e-09
4.1458263e-08
1.3548007e-09
4.0340304e-08
1.1179585e-09
3.9400473e-08
9.3983139e-10
3.8596771e-08
8.0370175e-10
3.7899688e-08
6.9708315e-10
3.7287849e-08
6.1183846e-10
3.6745302e-08
5.4254767e-10
3.6260004e-08
4.8529735e-10
3.5822677e-08
4.3732695e-10
3.5425987e-08
3.9669008e-10
3.5064036e-08
3.6195137e-10
3.473205e-08
3.3198572e-10
3.4426127e-08
3.059233e-10
3.4143035e-08
2.8309182e-10
3.388009e-08
2.6294551e-10
3.3635026e-08
2.4506316e-10
3.3405919e-08
2.2910757e-10
3.3191128e-08
2.1479069e-10
3.298924e-08
2.0188816e-10
3.2799019e-08
1.9022082e-10
3.2619391e-08
1.7962786e-10
3.2449416e-08
1.6997529e-10
3.2288259e-08
1.6115741e-10
3.2135175e-08
1.5308336e-10
3.1989505e-08
1.4567005e-10
3.1850659e-08
1.3884566e-10
3.1718106e-08
1.3255394e-10
3.159136e-08
1.2674577e-10
3.1469984e-08
1.2137587e-10
3.1353582e-08
1.164022e-10
3.1241792e-08
1.1179016e-10
3.1134279e-08
1.0751212e-10
3.1030738e-08
1.035416e-10
3.0930884e-08
9.985418e-11
3.0834457e-08
9.6426801e-11
3.0741217e-08
9.3240122e-11
3.0650938e-08
9.027886e-11
3.056341e-08
8.7527634e-11
3.0478438e-08
8.4972138e-11
3.0395839e-08
8.2598867e-11
3.0315444e-08
8.0395497e-11
3.0237091e-08
7.8352368e-11
3.0160631e-08
7.6460388e-11
3.0085921e-08
7.4710371e-11
3.0012827e-08
7.3094004e-11
2.9941224e-08
7.1603069e-11
2.9870993e-08
7.0230312e-11
2.9802023e-08
6.8970148e-11
2.9734206e-08
6.7816735e-11
2.9667442e-08
6.6764419e-11
2.9601634e-08
6.5807808e-11
2.9536692e-08
6.4941979e-11
2.947253e-08
6.4162447e-11
2.9409064e-08
6.3465271e-11
2.9346217e-08
6.2846959e-11
2.9283914e-08
6.2303778e-11
2.9222081e-08
6.1832376e-11
2.9160652e-08
6.1429434e-11
2.909956e-08
6.1092214e-11
2.9038741e-08
6.0818501e-11
2.8978135e-08
6.0605856e-11
2.8917683e-08
6.0451983e-11
2.8857329e-08
6.0354696e-11
2.8797017e-08
6.0312032e-11
2.8736694e-08
6.0322577e-11
2.8676309e-08
6.0384977e-11
2.8615811e-08
6.0497797e-11
2.8555152e-08
6.0659663e-11
2.8494282e-08
6.0869295e-11
2.8433156e-08
6.112576e-11
2.8371728e-08
6.1428317e-11
2.8309952e-08
6.1776126e-11
2.8247784e-08
6.2168383e-11
2.8185179e-08
6.2604455e-11
2.8122095e-08
6.3084279e-11
2.8058487e-08
6.3608203e-11
2.799431e-08
6.417643e-11
2.7929521e-08
6.478884e-11
2.7864077e-08
6.5444776e-11
2.7797934e-08
6.6142236e-11
2.7731057e-08
6.6877283e-11
2.7663438e-08
6.7619158e-11
2.7594912e-08
6.8525764e-11
2.7528185e-08
6.6727633e-11
2.7464858e-08
6.3326453e-11
2.7404783e-08
6.0074706e-11
2.734775e-08
5.7033298e-11
2.7293554e-08
5.4196205e-11
2.7242028e-08
5.1526429e-11
2.7193032e-08
4.8995273e-11
2.7146443e-08
4.6589561e-11
2.7102137e-08
4.4305281e-11
2.7059996e-08
4.2141254e-11
2.70199e-08
4.0096114e-11
2.6981733e-08
3.8167526e-11
2.6945381e-08
3.6351984e-11
2.6910735e-08
3.4645427e-11
2.6877693e-08
3.3042424e-11
2.6846152e-08
3.1540838e-11
2.6816025e-08
3.0127202e-11
2.6787188e-08
2.8836691e-11
2.6759657e-08
2.7530938e-11
2.6732912e-08
2.6744778e-11
2.6708388e-08
2.4524447e-11
2.6678712e-08
2.9676016e-11
1.8620654e-11
2.034523e-06
9.9964472e-12
2.0345121e-06
2.1349959e-11
2.0344998e-06
2.4151881e-11
2.0344862e-06
2.6559104e-11
2.0344706e-06
3.0645391e-11
2.0344525e-06
3.5525597e-11
2.0344314e-06
4.1276863e-11
2.0344068e-06
4.8216275e-11
2.034378e-06
5.6640236e-11
2.0343439e-06
6.6891561e-11
2.0343034e-06
7.9435363e-11
2.0342551e-06
9.4963065e-11
2.0341969e-06
1.1441276e-10
2.034126e-06
1.3942638e-10
2.0340386e-06
1.7188862e-10
2.0339283e-06
2.1705188e-10
2.0337874e-06
2.7733593e-10
2.0335952e-06
3.7850513e-10
2.0333392e-06
5.0438385e-10
2.032914e-06
8.38597e-10
2.0323242e-06
1.1635614e-09
2.0306633e-06
3.2788096e-09
2.0302936e-06
7.1813008e-10
1.130937e-06
1.8600598e-06
2.0230587e-07
1.9006434e-06
1.6435489e-07
5.1308354e-08
1.4951934e-07
1.9843836e-08
1.4099441e-07
1.1400857e-08
1.3472529e-07
8.3796037e-09
1.2975342e-07
6.6420611e-09
1.2571319e-07
5.3950375e-09
1.2237466e-07
4.4564855e-09
1.1956504e-07
3.7494529e-09
1.1716023e-07
3.2085091e-09
1.1507285e-07
2.7844633e-09
1.1323949e-07
2.4452031e-09
1.1161278e-07
2.1692492e-09
1.1015698e-07
1.9411013e-09
1.0884447e-07
1.7498406e-09
1.076534e-07
1.5877543e-09
1.0656622e-07
1.4491308e-09
1.055687e-07
1.3295128e-09
1.0464918e-07
1.2254433e-09
1.0379802e-07
1.1342452e-09
1.0300721e-07
1.0537552e-09
1.0226998e-07
9.8229058e-10
1.0158059e-07
9.1850612e-10
1.0093411e-07
8.6126467e-10
1.0032633e-07
8.0966845e-10
9.9753555e-08
7.6299767e-10
9.9212565e-08
7.2061843e-10
9.8700542e-08
6.8199779e-10
9.8214991e-08
6.4670892e-10
9.7753685e-08
6.1438943e-10
9.7314643e-08
5.8471112e-10
9.6896101e-08
5.5738855e-10
9.649646e-08
5.3219436e-10
9.6114274e-08
5.0893169e-10
9.5748229e-08
4.87421e-10
9.5397135e-08
4.6749616e-10
9.5059907e-08
4.4901878e-10
9.4735543e-08
4.3187598e-10
9.4423121e-08
4.1596289e-10
9.4121793e-08
4.0118249e-10
9.3830776e-08
3.8744362e-10
9.3549347e-08
3.7466904e-10
9.327683e-08
3.6279586e-10
9.3012595e-08
3.5176309e-10
9.2756053e-08
3.4151418e-10
9.2506656e-08
3.3199527e-10
9.2263894e-08
3.2315762e-10
9.2027285e-08
3.1496195e-10
9.1796374e-08
3.0737126e-10
9.1570735e-08
3.0034954e-10
9.1349965e-08
2.9386352e-10
9.1133688e-08
2.8788068e-10
9.0921546e-08
2.8237226e-10
9.0713201e-08
2.7731511e-10
9.0508332e-08
2.7268586e-10
9.0306634e-08
2.6846236e-10
9.0107818e-08
2.6462292e-10
8.9911612e-08
2.6114814e-10
8.9717755e-08
2.5802017e-10
8.9525997e-08
2.5522265e-10
8.9336102e-08
2.5274172e-10
8.9147843e-08
2.5056275e-10
8.8961004e-08
2.4867221e-10
8.8775376e-08
2.4705706e-10
8.8590762e-08
2.4570633e-10
8.840697e-08
2.4461074e-10
8.8223815e-08
2.4376069e-10
8.804112e-08
2.4314717e-10
8.7858713e-08
2.4276142e-10
8.7676429e-08
2.4259569e-10
8.7494108e-08
2.4264419e-10
8.7311591e-08
2.4290135e-10
8.7128727e-08
2.4336158e-10
8.6945368e-08
2.4401944e-10
8.6761367e-08
2.448699e-10
8.6576584e-08
2.4590919e-10
8.6390878e-08
2.4713415e-10
8.6204112e-08
2.4854153e-10
8.6016153e-08
2.501282e-10
8.5826865e-08
2.518917e-10
8.5636118e-08
2.5383177e-10
8.5443776e-08
2.5594965e-10
8.5249707e-08
2.5824626e-10
8.5053774e-08
2.6072125e-10
8.4855847e-08
2.6337202e-10
8.4655799e-08
2.6619051e-10
8.4453515e-08
2.6916081e-10
8.4248974e-08
2.7215983e-10
8.4041682e-08
2.7581862e-10
8.3839824e-08
2.6858565e-10
8.3648248e-08
2.5490168e-10
8.3466501e-08
2.418219e-10
8.3293945e-08
2.2958959e-10
8.3129961e-08
2.1818003e-10
8.2974043e-08
2.0744417e-10
8.2825772e-08
1.9726619e-10
8.2684769e-08
1.8759273e-10
8.2550667e-08
1.7840737e-10
8.2423103e-08
1.697052e-10
8.2301719e-08
1.614807e-10
8.2186162e-08
1.5372447e-10
8.2076091e-08
1.4642245e-10
8.1971178e-08
1.3955836e-10
8.187111e-08
1.3311037e-10
8.1775581e-08
1.2707001e-10
8.1684325e-08
1.2138295e-10
8.1596971e-08
1.1619141e-10
8.1513565e-08
1.1093651e-10
8.1432532e-08
1.0777752e-10
8.1358241e-08
9.8816184e-11
8.1268235e-08
1.1968131e-10
7.4945085e-11
2.0947157e-06
1.5383745e-11
2.0947042e-06
3.289616e-11
2.094691e-06
3.7254198e-11
2.0946766e-06
4.0970466e-11
2.09466e-06
4.7261413e-11
2.0946408e-06
5.4770035e-11
2.0946184e-06
6.3613649e-11
2.0945924e-06
7.4278616e-11
2.0945618e-06
8.7219137e-11
2.0945257e-06
1.0296003e-10
2.094483e-06
1.2221306e-10
2.0944319e-06
1.4603637e-10
2.0943704e-06
1.7586495e-10
2.0942956e-06
2.1421138e-10
2.0942036e-06
2.6395592e-10
2.0940875e-06
3.3313591e-10
2.0939394e-06
4.2543079e-10
2.0937376e-06
5.8026122e-10
2.0934693e-06
7.7274574e-10
2.0930243e-06
1.283623e-09
2.0924079e-06
1.7799559e-09
2.0906739e-06
5.0127292e-09
2.090278e-06
1.1141119e-09
1.2350403e-06
2.7152975e-06
3.3323701e-07
2.8024467e-06
2.7207496e-07
1.124704e-07
2.4852354e-07
4.3395255e-08
2.3507745e-07
2.4846953e-08
2.2516208e-07
1.829497e-08
2.172626e-07
1.4541539e-08
2.1081813e-07
1.1839508e-08
2.054767e-07
9.7979175e-09
2.0097041e-07
8.255742e-09
1.9710535e-07
7.0735664e-09
1.9374443e-07
6.1453861e-09
1.9078779e-07
5.4018392e-09
1.8816071e-07
4.7963286e-09
1.8580665e-07
4.2951683e-09
1.8368185e-07
3.8746394e-09
1.8175164e-07
3.5179602e-09
1.7998811e-07
3.2126681e-09
1.7836857e-07
2.9490504e-09
1.7687446e-07
2.719551e-09
1.7549039e-07
2.5183165e-09
1.7420352e-07
2.3406206e-09
1.7300305e-07
2.1827654e-09
1.7187975e-07
2.0418039e-09
1.7082576e-07
1.9152523e-09
1.698343e-07
1.8011336e-09
1.6889943e-07
1.6978626e-09
1.68016e-07
1.6040566e-09
1.6717945e-07
1.518544e-09
1.6638578e-07
1.4403792e-09
1.656314e-07
1.3687665e-09
1.6491312e-07
1.3029886e-09
1.642281e-07
1.2424173e-09
1.6357374e-07
1.1865473e-09
1.6294773e-07
1.1349456e-09
1.6234793e-07
1.0872182e-09
1.6177243e-07
1.043001e-09
1.6121946e-07
1.0019875e-09
1.6068741e-07
9.6392636e-10
1.6017478e-07
9.2858754e-10
1.5968021e-07
8.9575771e-10
1.5920241e-07
8.6523692e-10
1.5874023e-07
8.36854e-10
1.5829256e-07
8.1046828e-10
1.5785837e-07
7.8594605e-10
1.5743673e-07
7.6316268e-10
1.5702672e-07
7.4200003e-10
1.5662753e-07
7.2235072e-10
1.5623836e-07
7.041264e-10
1.5585849e-07
6.872454e-10
1.5548721e-07
6.7162885e-10
1.5512387e-07
6.5720312e-10
1.5476785e-07
6.4389692e-10
1.5441858e-07
6.3164659e-10
1.5407549e-07
6.203999e-10
1.5373808e-07
6.1010553e-10
1.5340582e-07
6.0071488e-10
1.5307827e-07
5.921799e-10
1.5275496e-07
5.8445814e-10
1.5243547e-07
5.7750986e-10
1.5211939e-07
5.7129822e-10
1.5180634e-07
5.6579293e-10
1.5149594e-07
5.6096181e-10
1.5118784e-07
5.5677496e-10
1.5088169e-07
5.5320375e-10
1.5057717e-07
5.5022364e-10
1.5027397e-07
5.4781379e-10
1.4997178e-07
5.4595325e-10
1.496703e-07
5.4462215e-10
1.4936926e-07
5.4380129e-10
1.4906838e-07
5.434736e-10
1.487674e-07
5.4362593e-10
1.4846606e-07
5.4424598e-10
1.481641e-07
5.4532165e-10
1.4786128e-07
5.4684099e-10
1.4755735e-07
5.4879302e-10
1.4725209e-07
5.5116925e-10
1.4694527e-07
5.5396265e-10
1.4663664e-07
5.5716621e-10
1.46326e-07
5.6077318e-10
1.4601311e-07
5.6477833e-10
1.4569776e-07
5.6918101e-10
1.4537973e-07
5.7398408e-10
1.4505878e-07
5.7918978e-10
1.4473471e-07
5.8479766e-10
1.4440728e-07
5.9080205e-10
1.4407628e-07
5.9718499e-10
1.4374153e-07
6.0391053e-10
1.4340299e-07
6.107055e-10
1.4305984e-07
6.1896631e-10
1.4272567e-07
6.0275495e-10
1.4240851e-07
5.7206131e-10
1.421076e-07
5.427308e-10
1.4182188e-07
5.1530636e-10
1.4155033e-07
4.89731e-10
1.4129211e-07
4.6566906e-10
1.4104651e-07
4.428594e-10
1.4081293e-07
4.2118109e-10
1.4059074e-07
4.0059636e-10
1.4037935e-07
3.8109367e-10
1.4017817e-07
3.6266037e-10
1.3998662e-07
3.4527535e-10
1.3980413e-07
3.2890716e-10
1.3963017e-07
3.1351939e-10
1.3946422e-07
2.9906323e-10
1.3930577e-07
2.8552001e-10
1.3915438e-07
2.7276766e-10
1.3900945e-07
2.6112693e-10
1.3887105e-07
2.4933959e-10
1.3873656e-07
2.4226528e-10
1.3861325e-07
2.2212096e-10
1.3846377e-07
2.6916094e-10
1.6838871e-10
2.1861244e-06
2.1187094e-11
2.1861119e-06
4.5374641e-11
2.1860977e-06
5.1455695e-11
2.1860821e-06
5.6594473e-11
2.1860641e-06
6.5263952e-11
2.1860433e-06
7.5604195e-11
2.1860191e-06
8.7774382e-11
2.185991e-06
1.0244179e-10
2.1859579e-06
1.2022896e-10
2.1859191e-06
1.4185439e-10
2.185873e-06
1.6829204e-10
2.185818e-06
2.009899e-10
2.185752e-06
2.4191068e-10
2.1856717e-06
2.9449238e-10
2.185573e-06
3.6267e-10
2.1854487e-06
4.5744114e-10
2.1852903e-06
5.8380245e-10
2.1850749e-06
7.9568776e-10
2.1847888e-06
1.0588414e-09
2.1843154e-06
1.7570193e-09
2.1836607e-06
2.4346017e-09
2.1818219e-06
6.8515552e-09
2.1813891e-06
1.546884e-09
1.3524648e-06
3.5442218e-06
4.5896408e-07
3.6959474e-06
3.7456877e-07
1.9686572e-07
3.435116e-07
7.4452425e-08
3.2607748e-07
4.2281068e-08
3.1323304e-07
3.1139416e-08
3.0296099e-07
2.4813591e-08
2.9455045e-07
2.0250047e-08
2.8756003e-07
1.6788337e-08
2.8164939e-07
1.4166378e-08
2.7657009e-07
1.2152872e-08
2.7214581e-07
1.0569664e-08
2.682478e-07
9.2998486e-09
2.6477949e-07
8.2646362e-09
2.6166772e-07
7.406943e-09
2.5885577e-07
6.6865817e-09
2.5629865e-07
6.0750895e-09
2.5396003e-07
5.5512863e-09
2.5181041e-07
5.0986727e-09
2.4982557e-07
4.7043823e-09
2.4798544e-07
4.3584476e-09
2.4627325e-07
4.0528173e-09
2.4467484e-07
3.7811675e-09
2.4317818e-07
3.5384692e-09
2.4177294e-07
3.3204899e-09
2.4045023e-07
3.1238418e-09
2.3920229e-07
2.9458086e-09
2.3802231e-07
2.7840359e-09
2.3690433e-07
2.6365175e-09
2.3584309e-07
2.5016249e-09
2.3483386e-07
2.3779968e-09
2.3387244e-07
2.2644101e-09
2.3295507e-07
2.1597874e-09
2.3207836e-07
2.063256e-09
2.3123923e-07
1.9740736e-09
2.3043488e-07
1.8915667e-09
2.2966277e-07
1.8151123e-09
2.2892058e-07
1.7441819e-09
2.2820616e-07
1.6783409e-09
2.2751755e-07
1.6171959e-09
2.2685293e-07
1.5603812e-09
2.2621061e-07
1.5075545e-09
2.2558905e-07
1.4584203e-09
2.2498678e-07
1.4127348e-09
2.2440246e-07
1.3702691e-09
2.2383481e-07
1.3308092e-09
2.2328266e-07
1.294153e-09
2.2274489e-07
1.2601158e-09
2.2222047e-07
1.2285438e-09
2.2170842e-07
1.1992965e-09
2.2120781e-07
1.1722391e-09
2.2071777e-07
1.1472449e-09
2.2023748e-07
1.1241918e-09
2.1976615e-07
1.10297e-09
2.1930306e-07
1.0834884e-09
2.1884751e-07
1.065659e-09
2.1839883e-07
1.0493988e-09
2.1795638e-07
1.0346248e-09
2.1751958e-07
1.0212647e-09
2.1708784e-07
1.0092495e-09
2.1666062e-07
9.9851495e-10
2.162374e-07
9.8900956e-10
2.1581769e-07
9.8067807e-10
2.1540099e-07
9.7346913e-10
2.1498686e-07
9.6733363e-10
2.1457486e-07
9.6222898e-10
2.1416455e-07
9.5811901e-10
2.1375554e-07
9.5496802e-10
2.1334742e-07
9.527419e-10
2.1293981e-07
9.5140788e-10
2.1253235e-07
9.5093664e-10
2.1212467e-07
9.5130518e-10
2.1171642e-07
9.5249252e-10
2.1130726e-07
9.5447812e-10
2.1089686e-07
9.5724164e-10
2.1048489e-07
9.6076439e-10
2.1007103e-07
9.650317e-10
2.0965496e-07
9.7003145e-10
2.0923638e-07
9.7575191e-10
2.0881497e-07
9.8218184e-10
2.0839043e-07
9.8931254e-10
2.0796247e-07
9.9714299e-10
2.0753078e-07
1.0056784e-09
2.0709504e-07
1.0149231e-09
2.0665496e-07
1.024877e-09
2.0621024e-07
1.0355303e-09
2.0576057e-07
1.0468522e-09
2.053057e-07
1.0587784e-09
2.0484557e-07
1.0708389e-09
2.0437911e-07
1.0854254e-09
2.0392486e-07
1.0570036e-09
2.0349376e-07
1.0031631e-09
2.0308475e-07
9.5173433e-10
2.0269639e-07
9.0366605e-10
2.0232727e-07
8.5885379e-10
2.0197624e-07
8.1670514e-10
2.0164234e-07
7.767583e-10
2.0132472e-07
7.3879786e-10
2.0102256e-07
7.0275493e-10
2.0073505e-07
6.6860738e-10
2.0046138e-07
6.3633194e-10
2.0020076e-07
6.0589101e-10
1.9995244e-07
5.7722918e-10
1.9971568e-07
5.5028266e-10
1.9948977e-07
5.2496598e-10
1.9927405e-07
5.0124691e-10
1.990679e-07
4.7891108e-10
1.988705e-07
4.5852401e-10
1.9868197e-07
4.3787199e-10
1.9849874e-07
4.2550135e-10
1.9833071e-07
3.9014449e-10
1.9812694e-07
4.7292949e-10
2.9571858e-10
2.3101113e-06
2.7546231e-11
2.3100976e-06
5.9102232e-11
2.3100819e-06
6.713386e-11
2.3100647e-06
7.384844e-11
2.3100448e-06
8.5129819e-11
2.3100218e-06
9.8574361e-11
2.3099952e-06
1.1438526e-10
2.3099642e-06
1.3342625e-10
2.309928e-06
1.5650232e-10
2.3098853e-06
1.845413e-10
2.3098348e-06
2.1880014e-10
2.3097746e-06
2.611476e-10
2.3097024e-06
3.1411527e-10
2.3096148e-06
3.8213989e-10
2.3095071e-06
4.7029029e-10
2.3093718e-06
5.9275875e-10
2.3091997e-06
7.559364e-10
2.308966e-06
1.0294154e-09
2.3086561e-06
1.3686766e-09
2.3081448e-06
2.2683778e-09
2.3074389e-06
3.1404362e-09
2.3054599e-06
8.830565e-09
2.3049779e-06
2.028869e-09
1.4873283e-06
4.3618714e-06
5.854379e-07
4.5978379e-06
4.7617565e-07
3.0612796e-07
4.3779262e-07
1.1283546e-07
4.1671508e-07
6.3358607e-08
4.0126098e-07
4.6593517e-08
3.8887913e-07
3.7195439e-08
3.7871833e-07
3.041085e-08
3.7025966e-07
2.5247005e-08
3.6309901e-07
2.1327027e-08
3.5693923e-07
1.8312652e-08
3.5156891e-07
1.593998e-08
3.4683344e-07
1.403532e-08
3.4261674e-07
1.2481342e-08
3.388308e-07
1.1192884e-08
3.3540738e-07
1.0110001e-08
3.3229225e-07
9.1902134e-09
3.2944167e-07
8.401868e-09
3.2682003e-07
7.7203146e-09
3.2439811e-07
7.1262987e-09
3.2215166e-07
6.6049044e-09
3.2006039e-07
6.1440795e-09
3.1810723e-07
5.7343289e-09
3.1627759e-07
5.368115e-09
3.1455898e-07
5.0391004e-09
3.1294063e-07
4.7421897e-09
3.1141314e-07
4.4732993e-09
3.0996827e-07
4.2289062e-09
3.0859879e-07
4.0059955e-09
3.0729831e-07
3.8021084e-09
3.060611e-07
3.6152007e-09
3.0488207e-07
3.4434406e-09
3.0375665e-07
3.2852063e-09
3.0268073e-07
3.1391779e-09
3.0165056e-07
3.0042389e-09
3.0066275e-07
2.8793784e-09
2.9971421e-07
2.7636606e-09
2.988021e-07
2.656287e-09
2.9792384e-07
2.5565994e-09
2.9707703e-07
2.464007e-09
2.9625945e-07
2.3779603e-09
2.9546906e-07
2.2979447e-09
2.9470397e-07
2.2235135e-09
2.9396241e-07
2.1542965e-09
2.9324273e-07
2.0899501e-09
2.9254338e-07
2.0301524e-09
2.9186294e-07
1.9745996e-09
2.9120004e-07
1.9230135e-09
2.9055342e-07
1.8751599e-09
2.8992189e-07
1.8308273e-09
2.8930432e-07
1.7898133e-09
2.8869963e-07
1.7519271e-09
2.8810684e-07
1.7169851e-09
2.8752499e-07
1.6848216e-09
2.8695318e-07
1.6552981e-09
2.8639056e-07
1.6282823e-09
2.8583631e-07
1.6036495e-09
2.8528966e-07
1.581275e-09
2.8474987e-07
1.5610501e-09
2.8421625e-07
1.5428706e-09
2.8368813e-07
1.5266384e-09
2.8316486e-07
1.5122769e-09
2.8264583e-07
1.499703e-09
2.8213046e-07
1.4888395e-09
2.8161818e-07
1.4796127e-09
2.8110845e-07
1.4719579e-09
2.8060075e-07
1.4658204e-09
2.8009457e-07
1.4611469e-09
2.7958943e-07
1.4578863e-09
2.7908485e-07
1.4559893e-09
2.7858037e-07
1.4554121e-09
2.7807556e-07
1.4561197e-09
2.7756997e-07
1.4580806e-09
2.7706318e-07
1.4612643e-09
2.7655479e-07
1.4656407e-09
2.7604437e-07
1.4711818e-09
2.7553153e-07
1.4778655e-09
2.7501589e-07
1.4856736e-09
2.7449706e-07
1.4945889e-09
2.7397464e-07
1.504595e-09
2.7344828e-07
1.5156792e-09
2.7291758e-07
1.5278403e-09
2.7238217e-07
1.5410864e-09
2.7184167e-07
1.5554249e-09
2.7129569e-07
1.5708562e-09
2.7074385e-07
1.5873659e-09
2.701858e-07
1.6049077e-09
2.696212e-07
1.6233802e-09
2.6904995e-07
1.6420811e-09
2.6847082e-07
1.6645611e-09
2.6790693e-07
1.6208892e-09
2.673719e-07
1.5381914e-09
2.668644e-07
1.459242e-09
2.6638257e-07
1.3854927e-09
2.6592465e-07
1.3167748e-09
2.6548918e-07
1.2521702e-09
2.6507498e-07
1.1909627e-09
2.6468096e-07
1.132815e-09
2.643061e-07
1.0776153e-09
2.6394938e-07
1.0253253e-09
2.6360981e-07
9.7590605e-10
2.632864e-07
9.29298e-10
2.6297822e-07
8.8541492e-10
2.6268434e-07
8.4415836e-10
2.6240391e-07
8.0539686e-10
2.6213608e-07
7.6908145e-10
2.618801e-07
7.3488258e-10
2.6163496e-07
7.0367201e-10
2.6140078e-07
6.7204439e-10
2.6117315e-07
6.5313804e-10
2.6096438e-07
5.9891425e-10
2.6071113e-07
7.2617307e-10
4.5393324e-10
2.4685241e-06
3.4625711e-11
2.4685087e-06
7.4456041e-11
2.4684911e-06
8.4742031e-11
2.4684717e-06
9.3234123e-11
2.4684494e-06
1.0743149e-10
2.4684237e-06
1.2433526e-10
2.4683939e-06
1.4419521e-10
2.4683592e-06
1.6809157e-10
2.4683187e-06
1.9703005e-10
2.4682711e-06
2.3216792e-10
2.4682148e-06
2.7507186e-10
2.4681479e-06
3.280712e-10
2.4680677e-06
3.9431932e-10
2.4679704e-06
4.7934593e-10
2.4678513e-06
5.8945516e-10
2.4677017e-06
7.423354e-10
2.4675118e-06
9.4587032e-10
2.4672544e-06
1.2867818e-09
2.4669139e-06
1.7091402e-09
2.4663537e-06
2.828616e-09
2.465582e-06
3.9121023e-09
2.4634232e-06
1.0989406e-08
2.4628769e-06
2.5751197e-09
1.6448604e-06
5.179888e-06
7.2056684e-07
5.5221314e-06
5.8355124e-07
4.4314355e-07
5.371936e-07
1.5919311e-07
5.1231119e-07
8.8241014e-08
4.9419569e-07
6.4709013e-08
4.7967283e-07
5.17183e-08
4.6773835e-07
4.2345332e-08
4.5779438e-07
3.5190978e-08
4.4937171e-07
2.974969e-08
4.4212313e-07
2.556124e-08
4.3580105e-07
2.2262053e-08
4.3022429e-07
1.9612082e-08
4.2525673e-07
1.7448899e-08
4.2079519e-07
1.5654431e-08
4.1675961e-07
1.4145582e-08
4.1308637e-07
1.2863446e-08
4.0972415e-07
1.1764093e-08
4.0663114e-07
1.0813327e-08
4.0377303e-07
9.9844015e-09
4.0112133e-07
9.2566053e-09
3.9865222e-07
8.6131902e-09
3.9634561e-07
8.0409389e-09
3.9418436e-07
7.5293687e-09
3.9215378e-07
7.069675e-09
3.9024122e-07
6.6547536e-09
3.8843561e-07
6.2789115e-09
3.8672726e-07
5.9372583e-09
3.8510766e-07
5.6255935e-09
3.8356929e-07
5.3404781e-09
3.8210542e-07
5.0790655e-09
3.8071005e-07
4.8388115e-09
3.7937781e-07
4.6174538e-09
3.7810384e-07
4.4131436e-09
3.7688375e-07
4.2243238e-09
3.7571354e-07
4.0495886e-09
3.7458957e-07
3.8876346e-09
3.7350851e-07
3.7373444e-09
3.7246732e-07
3.5977955e-09
3.7146316e-07
3.468165e-09
3.7049343e-07
3.3476881e-09
3.6955573e-07
3.2356478e-09
3.6864782e-07
3.1314187e-09
3.6776764e-07
3.0344812e-09
3.6691323e-07
2.9443569e-09
3.6608279e-07
2.8605972e-09
3.6527461e-07
2.7827796e-09
3.644871e-07
2.7105156e-09
3.6371879e-07
2.6434759e-09
3.6296825e-07
2.5813654e-09
3.6223416e-07
2.5239028e-09
3.6151527e-07
2.4708221e-09
3.6081038e-07
2.4218682e-09
3.601184e-07
2.3768092e-09
3.5943824e-07
2.3354506e-09
3.5876892e-07
2.2976086e-09
3.5810946e-07
2.2631099e-09
3.5745895e-07
2.2317804e-09
3.5681653e-07
2.2034702e-09
3.5618137e-07
2.1780327e-09
3.5555268e-07
2.1553301e-09
3.549297e-07
2.1352569e-09
3.543117e-07
2.1176976e-09
3.53698e-07
2.1025447e-09
3.5308791e-07
2.0896959e-09
3.5248081e-07
2.0790608e-09
3.5187607e-07
2.0705628e-09
3.5127309e-07
2.0641281e-09
3.5067129e-07
2.0596858e-09
3.5007011e-07
2.057168e-09
3.4946901e-07
2.0565134e-09
3.4886745e-07
2.0576732e-09
3.4826493e-07
2.0606038e-09
3.4766093e-07
2.0652634e-09
3.4705496e-07
2.0716102e-09
3.4644654e-07
2.0796058e-09
3.4583518e-07
2.0892193e-09
3.4522043e-07
2.1004256e-09
3.4460182e-07
2.1132013e-09
3.4397889e-07
2.1275241e-09
3.4335119e-07
2.1433769e-09
3.4271828e-07
2.160758e-09
3.4207968e-07
2.1796797e-09
3.4143495e-07
2.2001527e-09
3.4078363e-07
2.2221784e-09
3.4012526e-07
2.2457371e-09
3.394594e-07
2.2707647e-09
3.3878567e-07
2.2971123e-09
3.3810394e-07
2.323817e-09
3.3741279e-07
2.3557084e-09
3.3674003e-07
2.2936498e-09
3.3610193e-07
2.1762922e-09
3.3549684e-07
2.0643322e-09
3.3492251e-07
1.9598206e-09
3.3437678e-07
1.8625033e-09
3.3385789e-07
1.7710654e-09
3.3336437e-07
1.6844793e-09
3.3289493e-07
1.6022552e-09
3.3244832e-07
1.524224e-09
3.3202332e-07
1.4503231e-09
3.3161874e-07
1.3804913e-09
3.3123339e-07
1.3146399e-09
3.3086617e-07
1.2526442e-09
3.3051596e-07
1.1943629e-09
3.3018175e-07
1.1396088e-09
3.2986252e-07
1.0883127e-09
3.2955739e-07
1.0400066e-09
3.2926514e-07
9.9593034e-10
3.2898593e-07
9.5125071e-10
3.2871447e-07
9.2459783e-10
3.2846547e-07
8.4791246e-10
3.2816338e-07
1.0282638e-09
6.4264656e-10
2.6637234e-06
4.2622208e-11
2.6637059e-06
9.1892088e-11
2.6636859e-06
1.0483373e-10
2.6636637e-06
1.1536503e-10
2.6636383e-06
1.3286797e-10
2.6636089e-06
1.5368492e-10
2.663575e-06
1.7811521e-10
2.6635356e-06
2.074808e-10
2.6634896e-06
2.4301123e-10
2.6634357e-06
2.8611859e-10
2.6633721e-06
3.3871284e-10
2.6632965e-06
4.0363389e-10
2.6632061e-06
4.8472325e-10
2.6630967e-06
5.8872191e-10
2.6629629e-06
7.2329628e-10
2.6627952e-06
9.1000922e-10
2.6625827e-06
1.1583571e-09
2.6622955e-06
1.5740378e-09
2.6619163e-06
2.0882581e-09
2.6612946e-06
3.4503494e-09
2.6604403e-06
4.766421e-09
2.6580564e-06
1.3373262e-08
2.6574274e-06
3.2041874e-09
1.8301487e-06
6.0071666e-06
8.7141061e-07
6.4808696e-06
7.0261285e-07
6.1194131e-07
6.4708385e-07
2.1472211e-07
6.1793031e-07
1.1739456e-07
5.968847e-07
8.5754623e-08
5.8001501e-07
6.8587988e-08
5.6613804e-07
5.6222309e-08
5.5456902e-07
4.6759992e-08
5.4476736e-07
3.9551347e-08
5.3633053e-07
3.3998072e-08
5.2897097e-07
2.9621612e-08
5.224781e-07
2.610496e-08
5.1669366e-07
2.3233331e-08
5.1149771e-07
2.0850386e-08
5.0679718e-07
1.8846106e-08
5.0251814e-07
1.7142493e-08
4.9860088e-07
1.5681348e-08
4.9499682e-07
1.4417386e-08
4.9166606e-07
1.3315159e-08
4.8857545e-07
1.2347218e-08
4.8569727e-07
1.149137e-08
4.8300815e-07
1.0730056e-08
4.8048815e-07
1.0049371e-08
4.7812018e-07
9.4376453e-09
4.758895e-07
8.8854346e-09
4.7378324e-07
8.3851707e-09
4.7179012e-07
7.9303769e-09
4.6990024e-07
7.5154736e-09
4.6810485e-07
7.1358764e-09
4.6639611e-07
6.7878052e-09
4.6476703e-07
6.4678896e-09
4.6321136e-07
6.1731214e-09
4.6172347e-07
5.9010332e-09
4.6029824e-07
5.6495552e-09
4.5893101e-07
5.4168221e-09
4.5761754e-07
5.2011041e-09
4.5635397e-07
5.000911e-09
4.5513675e-07
4.8150111e-09
4.5396261e-07
4.6423118e-09
4.528285e-07
4.4817982e-09
4.5173163e-07
4.332518e-09
4.5066941e-07
4.1936374e-09
4.4963943e-07
4.0644617e-09
4.4863943e-07
3.9443562e-09
4.476673e-07
3.8327254e-09
4.4672107e-07
3.7290088e-09
4.457989e-07
3.6326898e-09
4.4489904e-07
3.5433282e-09
4.4401988e-07
3.4605314e-09
4.4315985e-07
3.3839271e-09
4.4231751e-07
3.3131622e-09
4.4149148e-07
3.2478986e-09
4.4068046e-07
3.1878281e-09
4.3988322e-07
3.1326906e-09
4.3909859e-07
3.0822427e-09
4.3832544e-07
3.0362554e-09
4.3756273e-07
2.9944975e-09
4.3680943e-07
2.9567717e-09
4.3606458e-07
2.9228823e-09
4.3532726e-07
2.8926449e-09
4.345966e-07
2.8659213e-09
4.3387174e-07
2.8425589e-09
4.3315187e-07
2.8224152e-09
4.3243621e-07
2.805355e-09
4.3172401e-07
2.7912579e-09
4.3101455e-07
2.7800223e-09
4.3030713e-07
2.7715509e-09
4.2960106e-07
2.7657501e-09
4.288957e-07
2.7625304e-09
4.281904e-07
2.761811e-09
4.2748455e-07
2.7635267e-09
4.2677753e-07
2.7676201e-09
4.2606876e-07
2.7740365e-09
4.2535765e-07
2.7827211e-09
4.2464363e-07
2.7936234e-09
4.2392615e-07
2.8067025e-09
4.2320465e-07
2.8219252e-09
4.2247859e-07
2.8392611e-09
4.2174743e-07
2.8586815e-09
4.2101064e-07
2.8801641e-09
4.202677e-07
2.9037072e-09
4.1951805e-07
2.9293273e-09
4.1876116e-07
2.9570395e-09
4.1799649e-07
2.9868468e-09
4.1722351e-07
3.0187226e-09
4.1644169e-07
3.0525833e-09
4.1565058e-07
3.0882202e-09
4.1485001e-07
3.1243847e-09
4.1403844e-07
3.1672777e-09
4.1324873e-07
3.0833593e-09
4.1250003e-07
2.9249981e-09
4.1179032e-07
2.7740425e-09
4.1111689e-07
2.6332451e-09
4.1047716e-07
2.5022405e-09
4.0986898e-07
2.3792372e-09
4.0929063e-07
2.2628323e-09
4.0874054e-07
2.1523478e-09
4.0821722e-07
2.0475395e-09
4.0771924e-07
1.9483092e-09
4.0724516e-07
1.854565e-09
4.0679362e-07
1.7661801e-09
4.0636329e-07
1.6829819e-09
4.0595287e-07
1.6047771e-09
4.0556117e-07
1.5313118e-09
4.0518699e-07
1.4624924e-09
4.0482931e-07
1.3976873e-09
4.0448667e-07
1.338571e-09
4.0415929e-07
1.2786276e-09
4.0384094e-07
1.2429466e-09
4.0354889e-07
1.139968e-09
4.0319451e-07
1.3826428e-09
8.6401601e-10
2.8986181e-06
5.1773338e-11
2.898598e-06
1.119683e-10
2.8985748e-06
1.2809322e-10
2.8985491e-06
1.4100083e-10
2.8985197e-06
1.6230366e-10
2.8984858e-06
1.8760852e-10
2.8984466e-06
2.172675e-10
2.8984012e-06
2.5287584e-10
2.8983483e-06
2.9591566e-10
2.8982864e-06
3.4808537e-10
2.8982134e-06
4.1167978e-10
2.8981269e-06
4.9011118e-10
2.8980237e-06
5.8799119e-10
2.897899e-06
7.1341849e-10
2.8977467e-06
8.7557783e-10
2.8975563e-06
1.1003746e-09
2.8973156e-06
1.3990614e-09
2.8969911e-06
1.898594e-09
2.8965638e-06
2.5154959e-09
2.8958658e-06
4.1483301e-09
2.8949093e-06
5.7229441e-09
2.8922484e-06
1.6034183e-08
2.8915134e-06
3.9391751e-09
2.0482613e-06
6.8504187e-06
1.0443932e-06
7.4847376e-06
8.3861867e-07
8.1771588e-07
7.7224596e-07
2.8109482e-07
7.3812963e-07
1.5151088e-07
7.1373735e-07
1.1014691e-07
6.9419821e-07
8.812712e-08
6.7811245e-07
7.2308069e-08
6.6469622e-07
6.0176229e-08
6.5332794e-07
5.0919623e-08
6.4354206e-07
4.3783958e-08
6.3500531e-07
3.8158361e-08
6.2747352e-07
3.3636743e-08
6.2076318e-07
2.9943678e-08
6.1473513e-07
2.6878432e-08
6.092815e-07
2.4299738e-08
6.0431654e-07
2.2107449e-08
5.9977107e-07
2.0226822e-08
5.9558873e-07
1.8599726e-08
5.9172326e-07
1.7180624e-08
5.8813622e-07
1.5934265e-08
5.8479544e-07
1.4832144e-08
5.8167384e-07
1.3851663e-08
5.7874826e-07
1.297495e-08
5.7599889e-07
1.2187016e-08
5.7340862e-07
1.1475697e-08
5.7096255e-07
1.0831248e-08
5.6864757e-07
1.0245355e-08
5.664522e-07
9.7108395e-09
5.643663e-07
9.2217842e-09
5.6238077e-07
8.7733256e-09
5.6048753e-07
8.3611372e-09
5.586793e-07
7.9813448e-09
5.5694958e-07
7.6307612e-09
5.5529241e-07
7.3067203e-09
5.5370241e-07
7.0068254e-09
5.5217466e-07
6.7288517e-09
5.507047e-07
6.4708756e-09
5.492884e-07
6.2313055e-09
5.4792198e-07
6.0087358e-09
5.4660191e-07
5.801862e-09
5.4532497e-07
5.6094593e-09
5.4408816e-07
5.4304512e-09
5.4288868e-07
5.2639398e-09
5.4172393e-07
5.1091087e-09
5.4059146e-07
4.9651931e-09
5.39489e-07
4.8314726e-09
5.384144e-07
4.7072823e-09
5.3736568e-07
4.5920532e-09
5.3634093e-07
4.48528e-09
5.3533837e-07
4.3864851e-09
5.3435632e-07
4.2952154e-09
5.3339318e-07
4.2110368e-09
5.3244746e-07
4.133553e-09
5.3151772e-07
4.0624284e-09
5.3060261e-07
3.9973506e-09
5.2970084e-07
3.9380268e-09
5.2881118e-07
3.8841601e-09
5.2793245e-07
3.8354991e-09
5.2706354e-07
3.7917914e-09
5.2620339e-07
3.7527984e-09
5.2535096e-07
3.7183452e-09
5.2450528e-07
3.6882363e-09
5.2366541e-07
3.6622896e-09
5.2283043e-07
3.6403317e-09
5.2199948e-07
3.6222082e-09
5.2117172e-07
3.6077884e-09
5.2034632e-07
3.5969484e-09
5.195225e-07
3.5895687e-09
5.186995e-07
3.5855353e-09
5.1787656e-07
3.5847448e-09
5.1705298e-07
3.5871132e-09
5.1622803e-07
3.5925677e-09
5.1540103e-07
3.6010387e-09
5.1457129e-07
3.6124569e-09
5.1373816e-07
3.6267578e-09
5.1290097e-07
3.6438892e-09
5.1205909e-07
3.6638086e-09
5.1121187e-07
3.6864779e-09
5.1035869e-07
3.7118608e-09
5.0949892e-07
3.7399297e-09
5.0863195e-07
3.7706824e-09
5.0775713e-07
3.8041408e-09