/*--------------------------------*- C++ -*----------------------------------*\
  =========                 |
  \\      /  F ield         | OpenFOAM: The Open Source CFD Toolbox
   \\    /   O peration     | Website:  https://openfoam.org
    \\  /    A nd           | Version:  12
     \\/     M anipulation  |
\*---------------------------------------------------------------------------*/
FoamFile
{
    format      ascii;
    class       volVectorField;
    location    "300";
    object      U;
}
// * * * * * * * * * * * * * * * * * * * * * * * * * * * * * * * * * * * * * //

dimensions      [0 1 -1 0 0 0 0];

internalField   nonuniform List<vector> 
13056
(
(1 6.0692895e-11 3.4334573e-24)
(0.9999954 1.4683823e-10 0)
(0.99998963 1.8823541e-10 0)
(0.99998361 2.3482422e-10 0)
(0.99997671 3.0741719e-10 0)
(0.99996871 4.0418453e-10 0)
(0.99995942 5.3234865e-10 0)
(0.99994862 7.0442602e-10 0)
(0.99993595 9.365317e-10 0)
(0.99992103 1.2502816e-09 0)
(0.99990336 1.6758124e-09 0)
(0.99988232 2.2568075e-09 0)
(0.99985707 3.0554031e-09 0)
(0.99982651 4.1710023e-09 0)
(0.99978903 5.7378281e-09 0)
(0.99974259 8.0458067e-09 0)
(0.99968304 1.1348065e-08 0)
(0.99960699 1.6973969e-08 0)
(0.99949815 2.4573823e-08 0)
(0.99935966 4.3952301e-08 0)
(0.99908883 6.4793972e-08 0)
(0.99878626 1.9142588e-07 0)
(0.99748769 4.2951752e-08 -1.4156923e-20)
(0.99841569 0.00012012809 2.2852519e-16)
(0.038810003 0.00012487357 0)
(0.028822059 1.5683183e-07 -3.1366049e-20)
(0.025516859 7.2190367e-08 6.4642822e-22)
(0.023831227 4.6803488e-08 0)
(0.022649163 3.488345e-08 0)
(0.021726652 2.758604e-08 0)
(0.020983579 2.2357586e-08 0)
(0.020375526 1.8426375e-08 0)
(0.019868632 1.5455188e-08 0)
(0.019438194 1.3172163e-08 0)
(0.019067042 1.1376586e-08 0)
(0.018742934 9.9323063e-09 0)
(0.018456785 8.7548222e-09 0)
(0.018201779 7.7805391e-09 0)
(0.017972728 6.9618542e-09 0)
(0.017765565 6.2661265e-09 0)
(0.01757704 5.670499e-09 0)
(0.017404525 5.1556711e-09 0)
(0.017245887 4.7073763e-09 0)
(0.017099367 4.3142604e-09 0)
(0.016963502 3.9667622e-09 0)
(0.016837074 3.6583389e-09 0)
(0.016719046 3.3831438e-09 0)
(0.016608534 3.1358394e-09 0)
(0.016504785 2.9129523e-09 0)
(0.016407143 2.7115562e-09 0)
(0.016315032 2.5284651e-09 0)
(0.016227956 2.3614644e-09 0)
(0.016145473 2.209036e-09 0)
(0.016067192 2.0695046e-09 0)
(0.015992763 1.941221e-09 0)
(0.015921877 1.8229874e-09 0)
(0.015854255 1.7140198e-09 0)
(0.015789645 1.6133868e-09 0)
(0.015727816 1.5202185e-09 0)
(0.015668563 1.4337351e-09 0)
(0.015611695 1.353399e-09 0)
(0.015557042 1.27878e-09 0)
(0.015504442 1.2093484e-09 0)
(0.015453749 1.1446386e-09 0)
(0.015404827 1.0842156e-09 0)
(0.015357553 1.027769e-09 0)
(0.015311809 9.7506369e-10 0)
(0.015267489 9.2577825e-10 0)
(0.015224489 8.7964848e-10 0)
(0.015182718 8.3640317e-10 0)
(0.015142086 7.9582065e-10 0)
(0.015102511 7.5777149e-10 0)
(0.015063917 7.2206459e-10 0)
(0.01502623 6.8850901e-10 0)
(0.014989381 6.5695663e-10 0)
(0.014953305 6.2724262e-10 0)
(0.014917943 5.9924093e-10 0)
(0.014883237 5.7286714e-10 0)
(0.014849131 5.4799281e-10 0)
(0.014815575 5.2450155e-10 0)
(0.014782519 5.0229699e-10 0)
(0.014749916 4.8127582e-10 0)
(0.014717723 4.6136285e-10 0)
(0.014685898 4.4249515e-10 0)
(0.014654399 4.2458839e-10 0)
(0.01462319 4.0756946e-10 0)
(0.014592233 3.9137298e-10 0)
(0.014561493 3.759344e-10 0)
(0.014530937 3.6120644e-10 0)
(0.014500533 3.471431e-10 0)
(0.01447025 3.3368963e-10 0)
(0.014440057 3.2080042e-10 0)
(0.014409925 3.0843012e-10 0)
(0.014379829 2.965399e-10 0)
(0.014349739 2.851018e-10 0)
(0.014319631 2.7408098e-10 0)
(0.014289478 2.6344357e-10 0)
(0.014259255 2.531594e-10 0)
(0.014228939 2.4320122e-10 0)
(0.014198507 2.3354748e-10 0)
(0.014167933 2.2417709e-10 0)
(0.014137197 2.1506765e-10 0)
(0.014106275 2.0619843e-10 0)
(0.014075146 1.9755212e-10 0)
(0.014043786 1.8911611e-10 0)
(0.014012176 1.8087849e-10 0)
(0.013980292 1.7282662e-10 0)
(0.013948112 1.649478e-10 0)
(0.013915614 1.5723123e-10 0)
(0.013882776 1.4966503e-10 0)
(0.013849579 1.4223417e-10 0)
(0.013816005 1.3486965e-10 0)
(0.013782064 1.2787927e-10 0)
(0.013748349 1.2151202e-10 0)
(0.013715924 1.1550227e-10 0)
(0.01368517 1.09777e-10 0)
(0.013655989 1.0443061e-10 0)
(0.013628269 9.9451196e-11 0)
(0.013601918 9.4770875e-11 0)
(0.013576862 9.0334094e-11 0)
(0.013553037 8.6113145e-11 0)
(0.013530381 8.2098316e-11 0)
(0.013508834 7.8286511e-11 0)
(0.013488337 7.4675366e-11 0)
(0.013468831 7.1261494e-11 0)
(0.013450258 6.8039756e-11 0)
(0.013432564 6.5004319e-11 0)
(0.013415693 6.2146816e-11 0)
(0.013399598 5.9465215e-11 0)
(0.013384226 5.693572e-11 0)
(0.013369541 5.4628012e-11 0)
(0.013355456 5.2282502e-11 0)
(0.013342074 5.0896779e-11 0)
(0.013328771 2.1736513e-10 0)
(0.013317619 5.6343775e-11 3.5080867e-23)
(0.013299116 1.655256e-10 0)
(1 1.8520253e-10 0)
(0.99999529 4.4877487e-10 0)
(0.99998937 5.7577804e-10 0)
(0.99998319 7.1831499e-10 0)
(0.99997611 9.4014968e-10 0)
(0.99996789 1.2357275e-09 0)
(0.99995837 1.6270388e-09 0)
(0.99994729 2.1522016e-09 0)
(0.99993432 2.860272e-09 0)
(0.99991905 3.8170223e-09 0)
(0.99990098 5.1141146e-09 0)
(0.99987947 6.8843696e-09 0)
(0.99985368 9.3166323e-09 0)
(0.99982251 1.2712946e-08 0)
(0.99978429 1.7480863e-08 0)
(0.99973697 2.4500899e-08 0)
(0.99967636 3.4540076e-08 0)
(0.99959901 5.1634388e-08 0)
(0.99948845 7.4709965e-08 0)
(0.99934791 1.3351317e-07 0)
(0.99907347 1.9671456e-07 0)
(0.99876725 5.809092e-07 0)
(0.99745337 1.298618e-07 5.0511746e-20)
(0.99838481 0.00035589701 -4.6627326e-20)
(0.11316638 0.0003620363 0)
(0.085587109 6.5225268e-06 0)
(0.075940154 2.5322076e-06 3.5650271e-22)
(0.07102136 1.4540639e-06 0)
(0.067565048 1.0594982e-06 0)
(0.064861579 8.3088142e-07 0)
(0.062679667 6.6769848e-07 0)
(0.060891476 5.457549e-07 0)
(0.059399024 4.5435096e-07 0)
(0.058130468 3.8467341e-07 0)
(0.057035748 3.3023361e-07 0)
(0.056079109 2.8681048e-07 0)
(0.055233974 2.5159173e-07 0)
(0.054480407 2.2255896e-07 0)
(0.05380321 1.9828963e-07 0)
(0.053190452 1.7777824e-07 0)
(0.052632601 1.6028207e-07 0)
(0.052121935 1.4522298e-07 0)
(0.051652185 1.3215462e-07 0)
(0.051218181 1.2073153e-07 0)
(0.050815621 1.1067561e-07 0)
(0.050440918 1.0177104e-07 0)
(0.050091019 9.3844714e-08 0)
(0.049763323 8.6750874e-08 0)
(0.049455608 8.0374652e-08 0)
(0.04916594 7.4623301e-08 0)
(0.048892629 6.9415296e-08 0)
(0.048634201 6.4682644e-08 0)
(0.048389359 6.0370565e-08 0)
(0.048156948 5.6432032e-08 0)
(0.047935936 5.2824828e-08 0)
(0.047725407 4.9512607e-08 0)
(0.04752454 4.6465921e-08 0)
(0.04733259 4.365894e-08 0)
(0.047148879 4.1068268e-08 0)
(0.046972793 3.8672615e-08 0)
(0.046803775 3.6454043e-08 0)
(0.046641316 3.4397487e-08 0)
(0.046484943 3.2488946e-08 0)
(0.046334221 3.0715615e-08 0)
(0.046188751 2.9065677e-08 0)
(0.046048163 2.752894e-08 0)
(0.045912115 2.6096751e-08 0)
(0.045780286 2.476082e-08 0)
(0.045652377 2.3513524e-08 0)
(0.04552811 2.2347752e-08 0)
(0.045407223 2.1257062e-08 0)
(0.045289475 2.0235972e-08 0)
(0.045174635 1.927933e-08 0)
(0.045062486 1.8382224e-08 0)
(0.044952827 1.7540155e-08 0)
(0.044845464 1.6748853e-08 0)
(0.044740218 1.6004477e-08 0)
(0.044636918 1.5303711e-08 0)
(0.044535403 1.4643327e-08 0)
(0.044435519 1.4020297e-08 0)
(0.044337119 1.3431779e-08 0)
(0.044240066 1.2875165e-08 0)
(0.044144229 1.2348067e-08 0)
(0.044049483 1.1848298e-08 0)
(0.043955709 1.137386e-08 0)
(0.043862792 1.0922818e-08 0)
(0.043770623 1.0493391e-08 0)
(0.043679099 1.0083903e-08 0)
(0.043588119 9.6928635e-09 0)
(0.043497589 9.3189258e-09 0)
(0.043407415 8.960786e-09 0)
(0.043317508 8.6172348e-09 0)
(0.043227783 8.2871399e-09 0)
(0.043138157 7.9694703e-09 0)
(0.04304855 7.6633234e-09 0)
(0.042958883 7.3678493e-09 0)
(0.042869081 7.0822425e-09 0)
(0.042779069 6.8057526e-09 0)
(0.042688775 6.5376905e-09 0)
(0.042598129 6.2774488e-09 0)
(0.042507062 6.0244766e-09 0)
(0.042415504 5.7782538e-09 0)
(0.04232339 5.5383018e-09 0)
(0.042230652 5.304196e-09 0)
(0.042137227 5.0755926e-09 0)
(0.042043048 4.8522036e-09 0)
(0.041948048 4.633752e-09 0)
(0.041852162 4.4199627e-09 0)
(0.041755323 4.2105552e-09 0)
(0.041657467 4.0052043e-09 0)
(0.041558532 3.8035353e-09 0)
(0.041458468 3.603812e-09 0)
(0.041357306 3.4142335e-09 0)
(0.041256813 3.2407794e-09 0)
(0.041160162 3.0759512e-09 0)
(0.041068489 2.9183534e-09 0)
(0.040981499 2.7709232e-09 0)
(0.040898861 2.6333751e-09 0)
(0.040820298 2.5039197e-09 0)
(0.040745589 2.3811669e-09 0)
(0.040674543 2.2644788e-09 0)
(0.040606979 2.1536626e-09 0)
(0.040542717 2.0486635e-09 0)
(0.04048158 1.9494181e-09 0)
(0.040423393 1.8558158e-09 0)
(0.040367984 1.7676888e-09 0)
(0.04031519 1.6848424e-09 0)
(0.040264852 1.6070146e-09 0)
(0.04021682 1.5341039e-09 0)
(0.040170944 1.4654561e-09 0)
(0.040127113 1.4027869e-09 0)
(0.040085071 1.3393572e-09 0)
(0.040045125 1.3012079e-09 0)
(0.04000541 1.1982681e-09 0)
(0.039972112 1.4444717e-09 -5.3832291e-23)
(0.039916858 9.0942885e-10 2.622787e-24)
(1 3.1570651e-10 0)
(0.99999516 7.6568975e-10 0)
(0.99998906 9.8333682e-10 0)
(0.99998267 1.2268459e-09 0)
(0.99997535 1.6053286e-09 0)
(0.99996688 2.1094017e-09 0)
(0.99995706 2.7764358e-09 0)
(0.99994564 3.6712322e-09 0)
(0.99993229 4.8771527e-09 0)
(0.99991658 6.5059147e-09 0)
(0.99989801 8.7131451e-09 0)
(0.99987593 1.1724273e-08 0)
(0.99984947 1.5859672e-08 0)
(0.99981752 2.1631644e-08 0)
(0.9997784 2.9730946e-08 0)
(0.99973 4.165027e-08 0)
(0.99966808 5.8686952e-08 0)
(0.99958915 8.7680743e-08 0)
(0.99947647 1.2679132e-07 0)
(0.99933344 2.2639325e-07 0)
(0.99905465 3.3340148e-07 0)
(0.99874402 9.8392414e-07 0)
(0.99741191 2.2362049e-07 -2.6734347e-20)
(0.99834711 0.00057482708 4.066949e-54)
(0.18066759 0.00058906262 -6.378198e-54)
(0.13731899 1.8923151e-05 0)
(0.12239258 7.2988173e-06 -1.6735659e-22)
(0.11486142 4.1626336e-06 0)
(0.10956277 3.0356227e-06 0)
(0.10539887 2.3860881e-06 0)
(0.10202366 1.9212053e-06 0)
(0.099248207 1.572543e-06 0)
(0.096925635 1.3105674e-06 0)
(0.094947116 1.1105464e-06 0)
(0.093236465 9.5407318e-07 0)
(0.091739084 8.2914783e-07 0)
(0.09041426 7.2773666e-07 0)
(0.089231406 6.4406872e-07 0)
(0.088167158 5.7408141e-07 0)
(0.087203129 5.1489765e-07 0)
(0.086324609 4.6438517e-07 0)
(0.085519664 4.2088845e-07 0)
(0.084778589 3.8312533e-07 0)
(0.084093369 3.5010313e-07 0)
(0.083457328 3.2102421e-07 0)
(0.082864891 2.9526532e-07 0)
(0.082311314 2.7232829e-07 0)
(0.081792548 2.517957e-07 0)
(0.081305131 2.3333528e-07 0)
(0.080846047 2.1667866e-07 0)
(0.080412659 2.0159272e-07 0)
(0.080002666 1.8788136e-07 0)
(0.07961404 1.7538519e-07 0)
(0.079244975 1.6396872e-07 0)
(0.078893859 1.5351098e-07 0)
(0.078559255 1.439071e-07 0)
(0.078239876 1.3507122e-07 0)
(0.077934556 1.2692877e-07 0)
(0.07764223 1.1941245e-07 0)
(0.077361936 1.124611e-07 0)
(0.077092799 1.0602264e-07 0)
(0.076834017 1.000531e-07 0)
(0.076584849 9.451221e-08 0)
(0.076344611 8.9363055e-08 0)
(0.076112672 8.4571639e-08 0)
(0.075888453 8.0108389e-08 0)
(0.075671414 7.5947976e-08 0)
(0.075461048 7.2066548e-08 0)
(0.075256885 6.8442105e-08 0)
(0.075058484 6.5054156e-08 0)
(0.074865435 6.1884092e-08 0)
(0.074677353 5.8915852e-08 0)
(0.074493876 5.6134504e-08 0)
(0.074314662 5.3525927e-08 0)
(0.074139389 5.1077083e-08 0)
(0.073967752 4.8775661e-08 0)
(0.073799468 4.661053e-08 0)
(0.073634265 4.4571965e-08 0)
(0.073471888 4.2650638e-08 0)
(0.073312091 4.0837824e-08 0)
(0.073154644 3.9125274e-08 0)
(0.072999328 3.7505465e-08 0)
(0.072845932 3.5971452e-08 0)
(0.07269426 3.4516828e-08 0)
(0.072544121 3.3135825e-08 0)
(0.072395333 3.1822849e-08 0)
(0.072247722 3.0572729e-08 0)
(0.072101123 2.9380622e-08 0)
(0.071955377 2.8242174e-08 0)
(0.071810329 2.7153447e-08 0)
(0.071665833 2.6110674e-08 0)
(0.071521746 2.5110347e-08 0)
(0.071377931 2.4149184e-08 0)
(0.071234255 2.3224191e-08 0)
(0.071090589 2.2332719e-08 0)
(0.070946808 2.1472295e-08 0)
(0.070802791 2.0640587e-08 0)
(0.070658416 1.9835416e-08 0)
(0.07051357 1.905478e-08 0)
(0.070368137 1.8296901e-08 0)
(0.070222006 1.7560166e-08 0)
(0.070075068 1.6843068e-08 0)
(0.069927214 1.6144217e-08 0)
(0.069778338 1.5462379e-08 0)
(0.069628335 1.4796544e-08 0)
(0.069477097 1.4145867e-08 0)
(0.069324517 1.3509546e-08 0)
(0.069170489 1.2886781e-08 0)
(0.069014905 1.2276755e-08 0)
(0.06885766 1.1678518e-08 0)
(0.068698657 1.1090966e-08 0)
(0.068537809 1.0509095e-08 0)
(0.068375166 9.9564491e-09 0)
(0.068213585 9.4502966e-09 0)
(0.068058178 8.9692981e-09 0)
(0.067910768 8.5096017e-09 0)
(0.067770876 8.0797023e-09 0)
(0.067637971 7.6787302e-09 0)
(0.067511604 7.3014379e-09 0)
(0.067391422 6.9437456e-09 0)
(0.067277117 6.6037683e-09 0)
(0.067168397 6.2809237e-09 0)
(0.067064975 5.9750378e-09 0)
(0.066966567 5.685918e-09 0)
(0.066872892 5.4132367e-09 0)
(0.066783678 5.1565026e-09 0)
(0.066698659 4.9151469e-09 0)
(0.066617583 4.6884052e-09 0)
(0.066540211 4.4759841e-09 0)
(0.066466298 4.2759714e-09 0)
(0.066395672 4.093391e-09 0)
(0.066327916 3.9085311e-09 0)
(0.066263528 3.79752e-09 0)
(0.066199506 3.475143e-09 0)
(0.066145817 4.2183058e-09 0)
(0.066056712 2.6352372e-09 0)
(1 4.5512411e-10 7.1031337e-24)
(0.99999501 1.1053238e-09 0)
(0.99998867 1.4212685e-09 0)
(0.99998203 1.7733834e-09 0)
(0.99997443 2.3197894e-09 0)
(0.99996564 3.0471222e-09 0)
(0.99995546 4.0090746e-09 0)
(0.99994363 5.2987933e-09 0)
(0.99992981 7.0360523e-09 0)
(0.99991357 9.3812782e-09 0)
(0.99989439 1.2557839e-08 0)
(0.99987161 1.6889154e-08 0)
(0.99984435 2.2834618e-08 0)
(0.99981146 3.1128651e-08 0)
(0.99977123 4.2760625e-08 0)
(0.99972154 5.9869183e-08 0)
(0.99965804 8.4307767e-08 0)
(0.99957721 1.2587272e-07 0)
(0.99946199 1.8189135e-07 0)
(0.99931599 3.2445639e-07 0)
(0.99903202 4.7750148e-07 0)
(0.99871618 1.4082158e-06 0)
(0.99736264 3.2514068e-07 0)
(0.99830192 0.00078428183 -2.1224333e-54)
(0.23884589 0.00081345703 2.8420648e-54)
(0.18080116 3.7216381e-05 0)
(0.16179875 1.4134409e-05 0)
(0.15242628 8.0045612e-06 0)
(0.14585963 5.8445113e-06 0)
(0.14068086 4.6083127e-06 0)
(0.136466 3.7206549e-06 0)
(0.13298936 3.0518855e-06 0)
(0.13007306 2.5477997e-06 0)
(0.12758373 2.1620735e-06 0)
(0.1254276 1.8597748e-06 0)
(0.12353728 1.6180597e-06 0)
(0.12186239 1.4215713e-06 0)
(0.12036503 1.2592523e-06 0)
(0.1190162 1.1233207e-06 0)
(0.11779305 1.0082559e-06 0)
(0.11667726 9.0995573e-07 0)
(0.11565395 8.2523652e-07 0)
(0.11471101 7.5162605e-07 0)
(0.11383842 6.8720961e-07 0)
(0.11302783 6.3044835e-07 0)
(0.11227225 5.8013444e-07 0)
(0.11156574 5.3530464e-07 0)
(0.11090322 4.951532e-07 0)
(0.11028033 4.5903453e-07 0)
(0.10969329 4.2642739e-07 0)
(0.10913879 3.9688187e-07 0)
(0.10861391 3.7001717e-07 0)
(0.10811612 3.4552198e-07 0)
(0.10764314 3.231334e-07 0)
(0.10719293 3.0261751e-07 0)
(0.10676367 2.837702e-07 0)
(0.10635375 2.6642331e-07 0)
(0.10596169 2.5043178e-07 0)
(0.10558614 2.3566504e-07 0)
(0.10522589 2.2200424e-07 0)
(0.10487983 2.0934751e-07 0)
(0.10454695 1.9760861e-07 0)
(0.1042263 1.8670924e-07 0)
(0.10391702 1.7657757e-07 0)
(0.1036183 1.6714742e-07 0)
(0.10332942 1.5836083e-07 0)
(0.10304969 1.5016799e-07 0)
(0.10277847 1.4252246e-07 0)
(0.10251514 1.353813e-07 0)
(0.10225917 1.2870456e-07 0)
(0.10201002 1.2245587e-07 0)
(0.10176721 1.1660349e-07 0)
(0.10153026 1.1111824e-07 0)
(0.10129876 1.0597256e-07 0)
(0.10107228 1.0114093e-07 0)
(0.10085044 9.6599275e-08 0)
(0.10063287 9.2325759e-08 0)
(0.10041923 8.8301155e-08 0)
(0.1002092 8.4507223e-08 0)
(0.10000245 8.0926895e-08 0)
(0.099798695 7.7543973e-08 0)
(0.099597652 7.4343745e-08 0)
(0.09939905 7.1312516e-08 0)
(0.099202638 6.8437616e-08 0)
(0.09900817 6.5707766e-08 0)
(0.098815413 6.3111985e-08 0)
(0.098624143 6.064011e-08 0)
(0.098434146 5.8282629e-08 0)
(0.098245217 5.6030937e-08 0)
(0.098057158 5.3877254e-08 0)
(0.097869779 5.1814189e-08 0)
(0.097682895 4.9834838e-08 0)
(0.097496329 4.7932747e-08 0)
(0.097309908 4.6102012e-08 0)
(0.097123467 4.4337379e-08 0)
(0.096936842 4.2633971e-08 0)
(0.096749874 4.0987204e-08 0)
(0.096562409 3.9392781e-08 0)
(0.096374294 3.7846753e-08 0)
(0.096185383 3.6345594e-08 0)
(0.095995529 3.488611e-08 0)
(0.095804589 3.3465329e-08 0)
(0.095612422 3.2080514e-08 0)
(0.095418888 3.0729224e-08 0)
(0.095223848 2.9409455e-08 0)
(0.095027164 2.8119531e-08 0)
(0.094828695 2.6857866e-08 0)
(0.094628299 2.562289e-08 0)
(0.094425836 2.4412978e-08 0)
(0.094221167 2.3226248e-08 0)
(0.094014164 2.2060482e-08 0)
(0.093804715 2.0905886e-08 0)
(0.093592875 1.9808341e-08 0)
(0.093382409 1.8801606e-08 0)
(0.093179999 1.7844492e-08 0)
(0.092988012 1.6930045e-08 0)
(0.092805819 1.6075132e-08 0)
(0.092632718 1.5277945e-08 0)
(0.092468123 1.4527997e-08 0)
(0.092311569 1.3817115e-08 0)
(0.092162653 1.3141505e-08 0)
(0.092020995 1.2499972e-08 0)
(0.091886221 1.1892144e-08 0)
(0.091757961 1.1317624e-08 0)
(0.09163585 1.0775752e-08 0)
(0.091519534 1.0265548e-08 0)
(0.091408671 9.7858825e-09 0)
(0.091302929 9.3352349e-09 0)
(0.091202001 8.9130294e-09 0)
(0.09110557 8.5154568e-09 0)
(0.091013409 8.1525543e-09 0)
(0.090924979 7.7849987e-09 0)
(0.09084093 7.5646233e-09 0)
(0.090757341 6.93373e-09 0)
(0.09068723 8.4063022e-09 0)
(0.09057085 5.2560604e-09 0)
(1 6.0660447e-10 0)
(0.99999482 1.4756922e-09 0)
(0.99998821 1.9003625e-09 0)
(0.99998127 2.3714521e-09 0)
(0.99997333 3.1010721e-09 0)
(0.99996414 4.0716954e-09 0)
(0.99995353 5.3546118e-09 0)
(0.99994121 7.0735708e-09 0)
(0.99992683 9.3876209e-09 0)
(0.99990995 1.2509658e-08 0)
(0.99989004 1.6735928e-08 0)
(0.99986642 2.2495168e-08 0)
(0.99983819 3.0395996e-08 0)
(0.99980419 4.1411108e-08 0)
(0.99976265 5.6849521e-08 0)
(0.99971142 7.9541877e-08 0)
(0.99964604 1.1193313e-07 0)
(0.99956295 1.6698468e-07 0)
(0.99944474 2.4110362e-07 0)
(0.99929524 4.2958878e-07 0)
(0.99900519 6.3170577e-07 0)
(0.99868324 1.8615898e-06 0)
(0.99730484 4.3705218e-07 0)
(0.99824845 0.00098923645 0)
(0.28926021 0.0010370751 0)
(0.21729089 6.1238729e-05 0)
(0.19486955 2.2682044e-05 0)
(0.18410686 1.271719e-05 0)
(0.17663417 9.2813043e-06 0)
(0.17073352 7.3359494e-06 0)
(0.16591882 5.9365746e-06 0)
(0.16194008 4.8781316e-06 0)
(0.15859829 4.0781772e-06 0)
(0.15574272 3.4649643e-06 0)
(0.153267 2.9836866e-06 0)
(0.15109462 2.5983929e-06 0)
(0.14916827 2.2848435e-06 0)
(0.14744484 2.0255495e-06 0)
(0.1458913 1.8082025e-06 0)
(0.14448162 1.6240629e-06 0)
(0.1431949 1.4666238e-06 0)
(0.14201418 1.3308369e-06 0)
(0.14092561 1.2127735e-06 0)
(0.13991775 1.1093907e-06 0)
(0.13898104 1.0182415e-06 0)
(0.1381075 9.3739909e-07 0)
(0.13729033 8.6532932e-07 0)
(0.13652371 8.0075006e-07 0)
(0.13580264 7.4262927e-07 0)
(0.1351228 6.9013387e-07 0)
(0.13448038 6.4254803e-07 0)
(0.13387205 5.9926308e-07 0)
(0.13329489 5.5977929e-07 0)
(0.13274628 5.2367674e-07 0)
(0.13222389 4.9058254e-07 0)
(0.13172564 4.6016984e-07 0)
(0.13124965 4.321681e-07 0)
(0.13079424 4.0634516e-07 0)
(0.13035786 3.8249231e-07 0)
(0.12993912 3.604194e-07 0)
(0.12953672 3.3996266e-07 0)
(0.12914952 3.2098317e-07 0)
(0.12877643 3.0335564e-07 0)
(0.12841644 2.8696496e-07 0)
(0.12806865 2.7170509e-07 0)
(0.1277322 2.5748273e-07 0)
(0.1274063 2.4421748e-07 0)
(0.12709022 2.3183489e-07 0)
(0.12678326 2.2026604e-07 0)
(0.12648479 2.0944684e-07 0)
(0.12619418 1.9931877e-07 0)
(0.12591089 1.8983052e-07 0)
(0.12563438 1.8093511e-07 0)
(0.12536415 1.7258833e-07 0)
(0.12509972 1.6474906e-07 0)
(0.12484064 1.5737865e-07 0)
(0.12458649 1.5044185e-07 0)
(0.12433688 1.4390752e-07 0)
(0.12409143 1.377463e-07 0)
(0.12384977 1.3193074e-07 0)
(0.12361156 1.264347e-07 0)
(0.12337647 1.2123451e-07 0)
(0.1231442 1.1630801e-07 0)
(0.12291445 1.1163462e-07 0)
(0.12268693 1.0719621e-07 0)
(0.12246138 1.0297506e-07 0)
(0.12223753 9.8954739e-08 0)
(0.12201513 9.5119886e-08 0)
(0.12179395 9.1456543e-08 0)
(0.12157376 8.7952086e-08 0)
(0.12135433 8.4594582e-08 0)
(0.12113545 8.1372859e-08 0)
(0.1209169 7.8276478e-08 0)
(0.1206985 7.5295866e-08 0)
(0.12048004 7.2422471e-08 0)
(0.12026134 6.9648387e-08 0)
(0.1200422 6.6966189e-08 0)
(0.11982245 6.4368915e-08 0)
(0.11960191 6.1850152e-08 0)
(0.1193804 5.9404157e-08 0)
(0.11915776 5.7025729e-08 0)
(0.11893381 5.4710047e-08 0)
(0.11870838 5.2452667e-08 0)
(0.11848132 5.0249622e-08 0)
(0.11825246 4.809764e-08 0)
(0.11802163 4.5993983e-08 0)
(0.11778867 4.3936077e-08 0)
(0.11755342 4.1921372e-08 0)
(0.11731569 3.9947215e-08 0)
(0.11707534 3.8010545e-08 0)
(0.11683221 3.6107666e-08 0)
(0.11658617 3.4222903e-08 0)
(0.11633726 3.2429236e-08 0)
(0.11608999 3.078055e-08 0)
(0.11585225 2.9212202e-08 0)
(0.11562679 2.7714445e-08 0)
(0.11541287 2.6314844e-08 0)
(0.11520964 2.5010297e-08 0)
(0.11501642 2.3783486e-08 0)
(0.11483264 2.2620903e-08 0)
(0.11465782 2.1516224e-08 0)
(0.11449151 2.0467398e-08 0)
(0.11433328 1.947375e-08 0)
(0.11418268 1.8534584e-08 0)
(0.11403929 1.7648795e-08 0)
(0.11390269 1.6814762e-08 0)
(0.11377248 1.6030629e-08 0)
(0.11364827 1.5293907e-08 0)
(0.11352969 1.4603664e-08 0)
(0.11341639 1.3953653e-08 0)
(0.11330808 1.3360388e-08 0)
(0.11320415 1.2759295e-08 0)
(0.11310535 1.2399598e-08 0)
(0.11300707 1.1369922e-08 0)
(0.11292462 1.3784074e-08 -4.9201147e-23)
(0.11278775 8.6178522e-09 2.3988137e-24)
(1 7.7392602e-10 0)
(0.99999461 1.8865421e-09 0)
(0.99998766 2.433852e-09 0)
(0.99998036 3.0376585e-09 0)
(0.99997202 3.9706805e-09 0)
(0.99996237 5.2110263e-09 0)
(0.99995123 6.8492522e-09 0)
(0.99993832 9.0426688e-09 0)
(0.99992327 1.1993355e-08 0)
(0.99990564 1.5971605e-08 0)
(0.99988486 2.1353273e-08 0)
(0.99986025 2.8682006e-08 0)
(0.99983088 3.8728995e-08 0)
(0.99979556 5.2726344e-08 0)
(0.99975248 7.2330201e-08 0)
(0.99969942 1.0112338e-07 0)
(0.99963184 1.4218857e-07 0)
(0.99954611 2.1192439e-07 0)
(0.9994244 3.0570319e-07 0)
(0.99927081 5.4396972e-07 0)
(0.9989737 7.9914864e-07 0)
(0.99864467 2.3528866e-06 0)
(0.99723769 5.6276737e-07 0)
(0.99818581 0.0011930598 0)
(0.33433071 0.0012636411 0)
(0.24912255 9.1426372e-05 0)
(0.22356481 3.3057438e-05 0)
(0.21161798 1.8305866e-05 0)
(0.20341966 1.3331338e-05 0)
(0.1969476 1.055342e-05 0)
(0.19165795 8.5546824e-06 0)
(0.18728196 7.0381583e-06 0)
(0.18360423 5.8895931e-06 0)
(0.18046014 5.0080703e-06 0)
(0.17773317 4.3155621e-06 0)
(0.17533942 3.7607304e-06 0)
(0.17321603 3.3088925e-06 0)
(0.17131566 2.9349846e-06 0)
(0.1696021 2.6213706e-06 0)
(0.16804673 2.3555202e-06 0)
(0.16662664 2.1280947e-06 0)
(0.16532318 1.9318499e-06 0)
(0.16412114 1.761141e-06 0)
(0.16300794 1.6115953e-06 -7.8750553e-34)
(0.16197309 1.4796954e-06 0)
(0.16100778 1.362665e-06 0)
(0.16010455 1.2582964e-06 0)
(0.15925699 1.1647458e-06 0)
(0.15845961 1.0805239e-06 0)
(0.15770764 1.0044288e-06 0)
(0.1569969 9.3543145e-07 0)
(0.15632371 8.7265372e-07 0)
(0.15568486 8.1537228e-07 0)
(0.15507747 7.6298166e-07 0)
(0.15449897 7.149452e-07 0)
(0.15394707 6.7079069e-07 0)
(0.1534197 6.3012601e-07 0)
(0.152915 5.9261586e-07 0)
(0.15243128 5.5795932e-07 0)
(0.15196699 5.2588198e-07 0)
(0.15152072 4.9614655e-07 0)
(0.15109119 4.6855153e-07 0)
(0.15067721 4.4291603e-07 0)
(0.15027768 4.1907389e-07 0)
(0.14989159 3.9687186e-07 0)
(0.149518 3.7617471e-07 0)
(0.14915605 3.5686564e-07 0)
(0.14880491 3.3883713e-07 0)
(0.14846384 3.2198951e-07 0)
(0.14813211 3.0623018e-07 0)
(0.14780907 2.9147438e-07 0)
(0.1474941 2.7764749e-07 0)
(0.1471866 2.6468146e-07 0)
(0.14688602 2.5251241e-07 0)
(0.14659184 2.4108079e-07 0)
(0.14630357 2.3033066e-07 0)
(0.14602074 2.2021089e-07 0)
(0.14574291 2.1067616e-07 0)
(0.14546966 2.0168398e-07 0)
(0.1452006 1.931946e-07 0)
(0.14493534 1.851701e-07 0)
(0.14467353 1.7757624e-07 0)
(0.14441481 1.7038075e-07 0)
(0.14415888 1.6355366e-07 0)
(0.1439054 1.5706874e-07 0)
(0.14365408 1.5090027e-07 0)
(0.14340464 1.4502438e-07 0)
(0.14315679 1.3941877e-07 0)
(0.14291028 1.3406311e-07 0)
(0.14266484 1.28939e-07 0)
(0.14242023 1.2402911e-07 0)
(0.14217621 1.193172e-07 0)
(0.14193255 1.1478808e-07 0)
(0.14168902 1.1042782e-07 0)
(0.14144542 1.0622391e-07 0)
(0.14120152 1.0216484e-07 0)
(0.14095712 9.8239799e-08 0)
(0.14071201 9.443864e-08 0)
(0.140466 9.0752011e-08 0)
(0.14021889 8.7171511e-08 0)
(0.1399705 8.3689533e-08 0)
(0.13972063 8.0299043e-08 0)
(0.13946909 7.6993558e-08 0)
(0.1392157 7.3767281e-08 0)
(0.13896028 7.0615412e-08 0)
(0.13870265 6.7533939e-08 0)
(0.13844261 6.4519094e-08 0)
(0.13817999 6.1567157e-08 0)
(0.13791459 5.8674234e-08 0)
(0.13764622 5.5835858e-08 0)
(0.13737473 5.3046476e-08 0)
(0.13709996 5.0283695e-08 0)
(0.13682195 4.7650922e-08 0)
(0.13654581 4.5224779e-08 0)
(0.13628042 4.2915275e-08 0)
(0.13602883 4.0711084e-08 0)
(0.13579017 3.8652654e-08 0)
(0.13556351 3.6735158e-08 0)
(0.13534803 3.4932854e-08 0)
(0.1351431 3.3225646e-08 0)
(0.13494818 3.1604022e-08 0)
(0.13476276 3.006478e-08 0)
(0.13458634 2.860678e-08 0)
(0.13441843 2.7228897e-08 0)
(0.13425854 2.5929436e-08 0)
(0.13410622 2.4705972e-08 0)
(0.13396102 2.3555748e-08 0)
(0.13382249 2.247509e-08 0)
(0.13369024 2.1462636e-08 0)
(0.13356385 2.050918e-08 0)
(0.13344303 1.9639108e-08 0)
(0.13332706 1.8757258e-08 0)
(0.13321681 1.8230636e-08 0)
(0.13310712 1.6718044e-08 0)
(0.13301509 2.0272047e-08 0)
(0.1328623 1.2670978e-08 -1.1727723e-24)
(1 9.6157723e-10 0)
(0.99999435 2.3496198e-09 0)
(0.99998701 3.0378327e-09 0)
(0.99997929 3.7922262e-09 0)
(0.99997047 4.9547661e-09 0)
(0.99996028 6.4989918e-09 0)
(0.99994852 8.5368559e-09 0)
(0.99993492 1.1263014e-08 0)
(0.99991908 1.492738e-08 0)
(0.99990055 1.9863939e-08 0)
(0.99987875 2.6536739e-08 0)
(0.99985298 3.5616554e-08 0)
(0.99982227 4.8054133e-08 0)
(0.9997854 6.5367858e-08 0)
(0.99974051 8.9595881e-08 0)
(0.99968533 1.2514958e-07 0)
(0.99961518 1.7580765e-07 0)
(0.99952638 2.6175106e-07 0)
(0.9994006 3.7717014e-07 0)
(0.99924227 6.7010907e-07 0)
(0.99893704 9.8339107e-07 0)
(0.99859989 2.8921782e-06 0)
(0.99716032 7.064079e-07 0)
(0.99811298 0.0013982266 0)
(0.37587256 0.0014981605 0)
(0.27800572 0.00012908999 0)
(0.24941709 4.552399e-05 0)
(0.2363753 2.4869313e-05 0)
(0.22754428 1.8050032e-05 0)
(0.22058102 1.4302483e-05 0)
(0.21488309 1.1608655e-05 0)
(0.21016575 9.5593259e-06 0)
(0.20619985 8.0045115e-06 0)
(0.20280878 6.8101175e-06 0)
(0.19986712 5.8712365e-06 0)
(0.19728455 5.11863e-06 0)
(0.19499333 4.5054542e-06 0)
(0.19294247 3.9978126e-06 0)
(0.19109294 3.5718566e-06 0)
(0.18941393 3.210638e-06 0)
(0.18788075 2.9015166e-06 0)
(0.18647331 2.6346902e-06 0)
(0.18517521 2.4025133e-06 0)
(0.18397291 2.1990641e-06 7.2484304e-34)
(0.18285508 2.0195779e-06 0)
(0.18181224 1.8602861e-06 0)
(0.18083632 1.7181955e-06 0)
(0.17992042 1.5908081e-06 0)
(0.17905863 1.4761001e-06 0)
(0.17824579 1.3724386e-06 0)
(0.1774774 1.2784299e-06 0)
(0.17674949 1.1928814e-06 0)
(0.17605859 1.114808e-06 0)
(0.17540161 1.0433875e-06 0)
(0.17477577 9.7789269e-07 0)
(0.17417859 9.1768156e-07 0)
(0.17360785 8.6221951e-07 0)
(0.17306155 8.1105079e-07 0)
(0.17253785 7.6376699e-07 0)
(0.17203509 7.1999546e-07 0)
(0.17155175 6.7941285e-07 0)
(0.17108645 6.4174439e-07 0)
(0.1706379 6.0674436e-07 0)
(0.17020493 5.7418706e-07 0)
(0.16978644 5.4386426e-07 0)
(0.16938142 5.1559166e-07 0)
(0.16898894 4.8920986e-07 0)
(0.16860812 4.645728e-07 0)
(0.16823815 4.4154501e-07 0)
(0.16787825 4.2000067e-07 0)
(0.16752772 3.9982443e-07 0)
(0.16718588 3.8091443e-07 0)
(0.1668521 3.6317803e-07 0)
(0.16652578 3.4652849e-07 0)
(0.16620637 3.3088478e-07 0)
(0.16589333 3.1617088e-07 0)
(0.16558615 3.0231713e-07 0)
(0.16528438 2.8926165e-07 0)
(0.16498755 2.7694666e-07 0)
(0.16469523 2.6531812e-07 0)
(0.16440702 2.5432439e-07 0)
(0.16412252 2.4391895e-07 0)
(0.16384138 2.3405776e-07 0)
(0.16356322 2.246998e-07 0)
(0.16328773 2.1580948e-07 0)
(0.16301456 2.0735175e-07 0)
(0.16274341 1.9929409e-07 0)
(0.16247399 1.916061e-07 0)
(0.162206 1.8425999e-07 0)
(0.16193916 1.7723061e-07 0)
(0.16167322 1.7049435e-07 0)
(0.16140791 1.6402905e-07 0)
(0.16114298 1.5781398e-07 0)
(0.16087818 1.5183008e-07 0)
(0.16061329 1.4606024e-07 0)
(0.16034807 1.404887e-07 0)
(0.16008229 1.3510071e-07 0)
(0.15981574 1.2988238e-07 0)
(0.1595482 1.2482093e-07 0)
(0.15927945 1.1990482e-07 0)
(0.15900929 1.1512361e-07 0)
(0.15873752 1.1046767e-07 0)
(0.15846392 1.0592814e-07 0)
(0.1581883 1.0149704e-07 0)
(0.15791045 9.7167796e-08 0)
(0.15763019 9.2934869e-08 0)
(0.15734729 8.8793092e-08 0)
(0.15706156 8.4737359e-08 0)
(0.1567728 8.0762314e-08 0)
(0.1564808 7.6861847e-08 0)
(0.15618537 7.302811e-08 0)
(0.15588637 6.9231272e-08 0)
(0.15558381 6.5607717e-08 0)
(0.15528336 6.2258906e-08 0)
(0.15499472 5.9068741e-08 0)
(0.15472121 5.6026343e-08 0)
(0.15446185 5.3187325e-08 0)
(0.15421559 5.0544589e-08 0)
(0.15398152 4.8062238e-08 0)
(0.15375895 4.5712191e-08 0)
(0.15354728 4.3480988e-08 0)
(0.15334593 4.13639e-08 0)
(0.15315436 3.9359102e-08 0)
(0.15297203 3.746486e-08 0)
(0.15279841 3.5678708e-08 0)
(0.152633 3.3997213e-08 0)
(0.1524753 3.2416523e-08 0)
(0.15232485 3.0931538e-08 0)
(0.1521812 2.9540377e-08 0)
(0.15204391 2.8230319e-08 0)
(0.15191265 2.7035096e-08 0)
(0.15178664 2.5823325e-08 0)
(0.15166685 2.51012e-08 0)
(0.15154762 2.302039e-08 -6.9358628e-24)
(0.15144758 2.7918943e-08 0)
(0.15128147 1.7447642e-08 0)
(1 1.1749295e-09 0)
(0.99999406 2.8792092e-09 0)
(0.99998626 3.7320739e-09 0)
(0.99997804 4.6600325e-09 0)
(0.99996865 6.0854546e-09 0)
(0.99995782 7.9771354e-09 0)
(0.99994534 1.0471098e-08 0)
(0.99993092 1.3804106e-08 0)
(0.99991416 1.8279949e-08 0)
(0.99989458 2.4304215e-08 0)
(0.99987159 3.24399e-08 0)
(0.99984445 4.3500202e-08 0)
(0.99981218 5.8636649e-08 0)
(0.99977351 7.9687438e-08 0)
(0.99972652 1.0911613e-07 0)
(0.99966887 1.5225779e-07 0)
(0.99959575 2.1365905e-07 0)
(0.9995034 3.1771247e-07 0)
(0.99937294 4.5723909e-07 0)
(0.99920916 8.1092409e-07 0)
(0.99889464 1.1885487e-06 0)
(0.99854825 3.4910031e-06 0)
(0.99707182 8.7304734e-07 0)
(0.99802887 0.001606643 -5.6542276e-54)
(0.41510311 0.0017428666 4.6692059e-54)
(0.30506003 0.00017548308 -6.1414839e-20)
(0.27344154 6.0435392e-05 0)
(0.25933427 3.2551163e-05 0)
(0.24992032 2.3522896e-05 0)
(0.2425119 1.8648943e-05 0)
(0.23644398 1.5152373e-05 0)
(0.23141719 1.2486168e-05 0)
(0.2271903 1.0460159e-05 0)
(0.22357582 8.9026767e-06 0)
(0.22044021 7.6778398e-06 0)
(0.21768724 6.6956721e-06 0)
(0.21524473 5.8952298e-06 0)
(0.21305832 5.2323617e-06 0)
(0.21108642 4.6760046e-06 0)
(0.2092962 4.2040823e-06 0)
(0.20766136 3.8001228e-06 0)
(0.2061605 3.4513579e-06 0)
(0.20477614 3.1478208e-06 0)
(0.20349385 2.8817933e-06 0)