/*--------------------------------*- C++ -*----------------------------------*\
  =========                 |
  \\      /  F ield         | OpenFOAM: The Open Source CFD Toolbox
   \\    /   O peration     | Website:  https://openfoam.org
    \\  /    A nd           | Version:  12
     \\/     M anipulation  |
\*---------------------------------------------------------------------------*/
FoamFile
{
    format      ascii;
    class       volVectorField;
    location    "300";
    object      U;
}
// * * * * * * * * * * * * * * * * * * * * * * * * * * * * * * * * * * * * * //

dimensions      [0 1 -1 0 0 0 0];

internalField   nonuniform List<vector> 
7480
(
(0.98693684 0.00062830039 8.6700557e-17)
(0.97566993 0.0014965051 0)
(0.96322273 0.0021227756 0)
(0.95002692 0.0025264723 0)
(0.93648443 0.0027970092 0)
(0.92287462 0.0029641936 0)
(0.90930106 0.0030458838 0)
(0.89580663 0.0030507273 0)
(0.88243017 0.0030125526 0)
(0.86920615 0.0029269771 0)
(0.85616276 0.0028079142 0)
(0.8433221 0.0026650976 0)
(0.83070868 0.002504669 0)
(0.81834989 0.0023308703 0)
(0.80627826 0.0021469864 0)
(0.79453718 0.0019545481 0)
(0.78319086 0.0017538584 0)
(0.77233217 0.0015493689 0)
(0.76203911 0.0013468131 0)
(0.75237952 0.0011486584 0)
(0.74341337 0.00095558531 0)
(0.73519081 0.00077044266 0)
(0.7277477 0.00059721934 0)
(0.72110828 0.00044036788 0)
(0.71527046 0.00030389666 0)
(0.71019144 0.00019398564 0)
(0.70579181 0.00011542888 0)
(0.70196535 6.8564568e-05 0)
(0.69858482 4.9342437e-05 0)
(0.69551974 5.0925154e-05 0)
(0.69265788 6.46833e-05 0)
(0.68991792 8.2209969e-05 0)
(0.68724917 9.7538082e-05 0)
(0.68462437 0.00010752327 0)
(0.68203091 0.00011186986 0)
(0.67945928 0.00011266612 0)
(0.67689713 0.0001125006 0)
(0.67433112 0.00011308986 0)
(0.67175098 0.0001148416 0)
(0.66915419 0.0001169356 0)
(0.66654726 0.00011842586 0)
(0.66394124 0.00011879426 0)
(0.66134677 0.00011792588 0)
(0.65877036 0.00011609316 0)
(0.65621503 0.00011362893 0)
(0.65368283 0.00011079347 0)
(0.65117612 0.00010772915 0)
(0.64869704 0.00010450705 0)
(0.64624723 0.00010116181 0)
(0.64382818 9.7749936e-05 0)
(0.64144062 9.4367303e-05 0)
(0.63908429 9.1064533e-05 0)
(0.6367588 8.7842151e-05 0)
(0.6344643 8.468711e-05 0)
(0.63220085 8.1625186e-05 0)
(0.62996779 7.867426e-05 0)
(0.62776428 7.5825108e-05 0)
(0.62558998 7.3071023e-05 0)
(0.62344429 7.0426107e-05 0)
(0.62132646 6.7877463e-05 0)
(0.61923585 6.5418586e-05 0)
(0.61717185 6.3055304e-05 0)
(0.61513371 6.0786836e-05 0)
(0.61312073 5.860133e-05 0)
(0.61113242 5.6495771e-05 0)
(0.60916815 5.4471669e-05 0)
(0.6072273 5.2520615e-05 0)
(0.60530935 5.0642178e-05 0)
(0.60341369 4.8836506e-05 0)
(0.60153975 4.7096962e-05 0)
(0.59968697 4.5424298e-05 0)
(0.59785476 4.3815339e-05 0)
(0.59604259 4.2265624e-05 0)
(0.59424995 4.0775555e-05 0)
(0.59247629 3.9341194e-05 0)
(0.5907211 3.7960816e-05 0)
(0.58898388 3.6631991e-05 0)
(0.58726417 3.5352417e-05 0)
(0.5855615 3.4120784e-05 0)
(0.5838754 3.2934427e-05 0)
(0.58220546 3.1792063e-05 0)
(0.58055122 3.0691844e-05 0)
(0.57891228 2.9632141e-05 0)
(0.57728823 2.8611421e-05 0)
(0.57567865 2.7628229e-05 0)
(0.57408314 2.6681253e-05 0)
(0.57250132 2.5769289e-05 0)
(0.57093276 2.4891337e-05 0)
(0.56937705 2.40465e-05 0)
(0.56783368 2.3234401e-05 0)
(0.56630229 2.2454422e-05 0)
(0.56478188 2.1708125e-05 0)
(0.56327276 2.0994114e-05 0)
(0.56177099 2.0323907e-05 0)
(0.56028293 1.9681164e-05 0)
(0.55878506 1.9179571e-05 0)
(0.55732666 1.8084858e-05 0)
(0.5557641 3.0911152e-05 6.2319234e-20)
(0.55445621 1.8917106e-05 -2.2491524e-19)
(0.55203312 3.1755267e-05 -4.2256261e-18)
(0.99594936 0.0024023802 0)
(0.99628827 0.0034537161 0)
(0.99655812 0.0037727555 0)
(0.99631708 0.0036618537 0)
(0.99554419 0.0034896814 0)
(0.9942906 0.0033003335 0)
(0.9925367 0.003110397 0)
(0.99024814 0.0029388078 0)
(0.98741208 0.0027872238 0)
(0.98402951 0.0026584146 0)
(0.98010321 0.0025509287 0)
(0.97563352 0.0024593011 0)
(0.97062313 0.0023836665 0)
(0.96507624 0.0023174672 0)
(0.9589941 0.00225737 0)
(0.95237863 0.0022005014 0)
(0.9452222 0.0021389205 0)
(0.93754461 0.0020603107 0)
(0.92942028 0.0019652999 0)
(0.92091115 0.0018605732 0)
(0.91208977 0.0017474212 0)
(0.90304476 0.0016257402 0)
(0.89388493 0.0014954228 0)
(0.88472413 0.0013566607 0)
(0.87569082 0.0012112204 0)
(0.86692371 0.0010599564 0)
(0.85858364 0.0009106277 0)
(0.85080109 0.00077330742 0)
(0.84364493 0.00065309104 0)
(0.83711622 0.00055505135 0)
(0.83116317 0.00048195397 0)
(0.82570046 0.00043299225 0)
(0.82062563 0.00040488825 0)
(0.81584423 0.00039173733 0)
(0.81128686 0.00038611484 0)
(0.80690932 0.00038182861 0)
(0.8026866 0.00037550072 0)
(0.79860543 0.00036606425 0)
(0.79465539 0.00035387366 0)
(0.79082461 0.00033978756 0)
(0.78709939 0.00032497003 0)
(0.7834649 0.00031057877 0)
(0.77990707 0.00029718522 0)
(0.7764155 0.00028484892 0)
(0.77298485 0.0002732316 0)
(0.76961392 0.00026206811 0)
(0.76630277 0.00025126849 0)
(0.76305011 0.00024083377 0)
(0.75985333 0.00023073361 0)
(0.75671028 0.0002209682 0)
(0.75361973 0.00021160002 0)
(0.75058059 0.00020262005 0)
(0.74759173 0.00019398808 0)
(0.7446522 0.00018567845 0)
(0.74176099 0.00017773301 0)
(0.73891665 0.00017015663 0)
(0.73611778 0.00016291078 0)
(0.73336342 0.00015596976 0)
(0.73065256 0.00014936109 0)
(0.72798365 0.00014305743 0)
(0.72535547 0.0001370313 0)
(0.72276704 0.00013128216 0)
(0.72021724 0.00012580108 0)
(0.71770492 0.00012056254 0)
(0.71522911 0.00011555895 0)
(0.71278876 0.00011078741 0)
(0.71038282 0.000106226 0)
(0.70801035 0.00010186986 0)
(0.70567039 9.771343e-05 0)
(0.70336196 9.3739628e-05 0)
(0.70108419 8.9946356e-05 0)
(0.69883614 8.6323157e-05 0)
(0.69661696 8.2858626e-05 0)
(0.69442582 7.9550259e-05 0)
(0.69226186 7.6387282e-05 0)
(0.69012429 7.3363917e-05 0)
(0.68801234 7.0472867e-05 0)
(0.68592526 6.770743e-05 0)
(0.68386232 6.5062723e-05 0)
(0.68182282 6.2531606e-05 0)
(0.67980607 6.010967e-05 0)
(0.67781142 5.779147e-05 0)
(0.67583821 5.557222e-05 0)
(0.67388581 5.3447387e-05 0)
(0.67195362 5.1412697e-05 0)
(0.67004103 4.9464231e-05 0)
(0.66814743 4.7598383e-05 0)
(0.66627223 4.5811946e-05 0)
(0.66441482 4.410214e-05 0)
(0.66257451 4.2466772e-05 0)
(0.66075075 4.0904442e-05 0)
(0.65894233 3.94147e-05 0)
(0.65714944 3.7999817e-05 0)
(0.65536766 3.6663976e-05 0)
(0.65360377 3.5419691e-05 0)
(0.65183218 3.4315936e-05 0)
(0.65010578 3.3404346e-05 0)
(0.64826969 3.4323807e-05 0)
(0.64671585 3.1378138e-05 0)
(0.64388696 3.6484495e-05 0)
(0.99623692 0.0021503041 0)
(0.99667168 0.0027600044 0)
(0.99723677 0.0029441134 0)
(0.99766244 0.0030092519 0)
(0.99795452 0.0031016279 0)
(0.99819406 0.003207514 0)
(0.998399 0.0033080504 0)
(0.99855796 0.0033952383 0)
(0.99866586 0.0034683615 0)
(0.99872256 0.0035256432 0)
(0.99872334 0.0035643135 0)
(0.99865903 0.0035904938 0)
(0.99851802 0.0035901968 0)
(0.99828637 0.003580006 0)
(0.99794601 0.003553017 0)
(0.99747165 0.0035106716 0)
(0.99683423 0.0034523863 0)
(0.99596211 0.0033780734 0)
(0.99474886 0.0032880955 0)
(0.9931108 0.0031821871 0)
(0.99096222 0.0030606849 0)
(0.98821167 0.0029249339 0)
(0.98476186 0.0027769989 0)
(0.98052113 0.0026202325 0)
(0.97540576 0.0024593803 0)
(0.96935769 0.0023006791 0)
(0.96233864 0.0021348289 0)
(0.95447275 0.0019597567 0)
(0.94593276 0.0017891367 0)
(0.93696939 0.0016256393 0)
(0.92787034 0.0014691918 0)
(0.91891926 0.0013194148 0)
(0.9103558 0.0011753462 0)
(0.90236454 0.0010433517 0)
(0.89502741 0.00093156012 0)
(0.88831601 0.00084208578 0)
(0.88214128 0.00077483998 0)
(0.87639241 0.00072739457 0)
(0.87096525 0.00069505861 0)
(0.8657847 0.00067124306 0)
(0.8608068 0.0006498265 0)
(0.85600854 0.00062713529 0)
(0.8513765 0.00060232849 0)
(0.84689871 0.00057616089 0)
(0.84256211 0.00054956936 0)
(0.83835296 0.00052352932 0)
(0.83425788 0.00049878739 0)
(0.83026486 0.00047562365 0)
(0.82636473 0.00045379517 0)
(0.82255197 0.00043303659 0)
(0.818823 0.00041331415 0)
(0.81517404 0.00039456237 0)
(0.81160082 0.00037669299 0)
(0.80809953 0.00035964027 0)
(0.80466712 0.00034342552 0)
(0.80130083 0.00032801537 0)
(0.79799816 0.0003133317 0)
(0.79475694 0.0002993256 0)
(0.79157507 0.00028602227 0)
(0.78845023 0.00027336749 0)
(0.78538044 0.00026131069 0)
(0.78236397 0.0002498378 0)
(0.77939901 0.00023892502 0)
(0.77648379 0.00022852495 0)
(0.77361677 0.00021861711 0)
(0.77079639 0.00020918891 0)
(0.76802111 0.00020020009 0)
(0.76528955 0.00019163578 0)
(0.76260031 0.0001834807 0)
(0.75995204 0.00017570318 0)
(0.75734348 0.00016829391 0)
(0.75477337 0.00016123171 0)
(0.75224051 0.00015449432 0)
(0.74974376 0.00014807283 0)
(0.74728197 0.00014194673 0)
(0.74485407 0.00013610291 0)
(0.74245898 0.0001305263 0)
(0.74009573 0.000125203 0)
(0.7377633 0.00012012203 0)
(0.73546077 0.00011526934 0)
(0.73318721 0.000110635 0)
(0.73094173 0.00010620789 0)
(0.72872348 0.00010197798 0)
(0.72653161 9.7935808e-05 0)
(0.72436531 9.4072472e-05 0)
(0.72222378 9.0379757e-05 0)
(0.72010623 8.6850126e-05 0)
(0.71801188 8.3476696e-05 0)
(0.71593996 8.025371e-05 0)
(0.71388959 7.7175704e-05 0)
(0.71186006 7.4240755e-05 0)
(0.70984999 7.1443104e-05 0)
(0.70785941 6.8796466e-05 0)
(0.70588369 6.6279233e-05 0)
(0.70392951 6.3984891e-05 0)
(0.70197081 6.1816362e-05 0)
(0.70006095 6.021795e-05 0)
(0.69804159 5.8617467e-05 0)
(0.69632243 6.0066681e-05 0)
(0.69322111 5.8782418e-05 -3.0417297e-20)
(0.99638457 0.0020435728 0)
(0.99675881 0.0026594479 0)
(0.99728714 0.0029894139 0)
(0.99771353 0.0031449353 0)
(0.99801959 0.0032405307 0)
(0.99827833 0.0032989862 0)
(0.99851414 0.003306583 0)
(0.99872276 0.0032930408 0)
(0.99890622 0.0032649205 0)
(0.99907196 0.0032280716 0)
(0.99922299 0.0031861064 0)
(0.99936158 0.0031401304 0)
(0.99948839 0.0030959031 0)
(0.99960316 0.0030517903 0)
(0.99970648 0.0030083638 0)
(0.99979711 0.0029657377 0)
(0.99987346 0.002923088 0)
(0.99993257 0.0028797103 0)
(0.99996909 0.0028355666 0)
(0.99997628 0.0027913047 0)
(0.99994622 0.0027475302 0)
(0.99986746 0.0027045364 0)
(0.99972459 0.0026626719 0)
(0.99949728 0.0026221477 0)
(0.99915705 0.002582423 0)
(0.99866059 0.0025423799 0)
(0.99794437 0.0025009115 0)
(0.99683584 0.0024561525 0)
(0.9951802 0.0024037697 0)
(0.99281303 0.0023405959 0)
(0.98957809 0.0022657816 0)
(0.98534783 0.0021803496 0)
(0.98005423 0.0020893464 0)
(0.97369467 0.0019833385 0)
(0.96646499 0.0018593539 0)
(0.95864114 0.0017295318 0)
(0.95053785 0.0015976883 0)
(0.94246535 0.0014662886 0)
(0.93468041 0.0013384701 0)
(0.9273597 0.0012220905 0)
(0.92055597 0.00112274 0)
(0.91422845 0.001041131 0)
(0.90829163 0.00097611774 0)
(0.90265455 0.00092466359 0)
(0.89725092 0.00088175231 0)
(0.89204341 0.00084266382 0)
(0.88701432 0.00080458092 0)
(0.88215292 0.00076695327 0)
(0.87744832 0.00072997108 0)
(0.87288834 0.00069413566 0)
(0.86846018 0.00066014523 0)
(0.86415165 0.0006282432 0)
(0.85995279 0.0005982295 0)
(0.85585653 0.0005698418 0)
(0.85185758 0.00054300888 0)
(0.84795081 0.00051763401 0)
(0.8441311 0.00049358027 0)
(0.84039401 0.00047074912 0)
(0.83673569 0.00044913528 0)
(0.83315264 0.00042863435 0)
(0.82964173 0.00040915612 0)
(0.82620006 0.00039066605 0)
(0.82282476 0.00037311754 0)
(0.8195132 0.00035643256 0)
(0.81626307 0.00034056979 0)
(0.8130721 0.00032550076 0)
(0.80993809 0.00031116201 0)
(0.80685911 0.00029752318 0)
(0.80383321 0.00028455482 0)
(0.80085855 0.00027220734 0)
(0.79793344 0.0002604603 0)
(0.79505618 0.00024927885 0)
(0.79222518 0.00023862719 0)
(0.78943894 0.00022848711 0)
(0.78669597 0.00021882632 0)
(0.78399485 0.0002096221 0)
(0.78133423 0.00020084961 0)
(0.7787128 0.00019248599 0)
(0.77612931 0.00018451235 0)
(0.77358252 0.00017690625 0)
(0.77107128 0.00016965067 0)
(0.76859445 0.00016272746 0)
(0.76615093 0.00015612009 0)
(0.76373966 0.00014981294 0)
(0.76135961 0.0001437914 0)
(0.75900977 0.00013804191 0)
(0.75668915 0.00013255205 0)
(0.75439678 0.00012731036 0)
(0.7521317 0.00012230737 0)
(0.74989285 0.0001175334 0)
(0.74767935 0.00011298596 0)
(0.74548965 0.00010865198 0)
(0.74332361 0.00010456022 0)
(0.74117647 0.00010065289 0)
(0.73905462 9.713229e-05 0)
(0.73693212 9.3682789e-05 0)
(0.73486169 9.1348838e-05 0)
(0.73268413 8.8217356e-05 0)
(0.7308226 9.4130141e-05 0)
(0.72748758 8.4652246e-05 2.4548365e-20)
(0.99657695 0.0019869049 0)
(0.99687586 0.0025624209 0)
(0.99732828 0.0028871071 0)
(0.99771607 0.0030282425 0)
(0.99801037 0.0031102947 0)
(0.99826706 0.0031660228 0)
(0.99850546 0.0031995444 0)
(0.99871969 0.0032178603 0)
(0.99891123 0.0032278589 0)
(0.99908668 0.0032324996 0)
(0.9992499 0.0032307854 0)
(0.99940194 0.003225286 0)
(0.9995437 0.0032138098 0)
(0.99967608 0.003197218 0)
(0.9998006 0.0031751144 0)
(0.99991822 0.0031471816 0)
(1.0000291 0.0031128036 0)
(1.0001323 0.0030712231 0)
(1.0002265 0.0030225051 0)
(1.0003106 0.0029673773 0)
(1.0003835 0.0029068013 0)
(1.0004439 0.0028419511 0)
(1.0004896 0.0027738551 0)
(1.0005186 0.0027039477 0)
(1.0005288 0.0026345062 0)
(1.0005182 0.0025682722 0)
(1.0004854 0.0025076957 0)
(1.0004247 0.0024546118 0)
(1.0003274 0.0024109182 0)
(1.0001805 0.0023773145 0)
(0.99996376 0.002352712 0)
(0.99964533 0.0023345196 0)
(0.9991725 0.0023171635 0)
(0.99846061 0.0022965388 0)
(0.9973087 0.0022688561 0)
(0.9955243 0.0022290216 0)
(0.9929276 0.0021751671 0)
(0.98937191 0.0021090634 0)
(0.98477418 0.0020316978 0)
(0.97916793 0.0019363657 0)
(0.97276757 0.0018256055 0)
(0.96585432 0.0017086848 0)
(0.95873498 0.0015893483 0)
(0.95168548 0.0014714465 0)
(0.9449089 0.0013622687 0)
(0.93848672 0.0012662629 0)
(0.93241168 0.0011840243 0)
(0.92662872 0.0011149215 0)
(0.92107829 0.0010562637 0)
(0.9157199 0.0010040631 0)
(0.910533 0.00095532261 0)
(0.90550745 0.00090877877 0)
(0.90063504 0.00086402377 0)
(0.89590636 0.00082114593 0)
(0.89131077 0.0007805706 0)
(0.88683773 0.00074243017 0)
(0.88247841 0.00070651351 0)
(0.87822623 0.00067259125 0)
(0.87407572 0.00064059346 0)
(0.87002161 0.00061035159 0)
(0.86605895 0.00058172548 0)
(0.86218332 0.00055464038 0)
(0.85839066 0.00052900419 0)
(0.85467733 0.00050469317 0)
(0.85104003 0.00048163523 0)
(0.84747561 0.00045977607 0)
(0.8439811 0.00043901957 0)
(0.84055386 0.00041931203 0)
(0.83719132 0.00040060347 0)
(0.83389107 0.00038282086 0)
(0.83065088 0.00036592739 0)
(0.82746856 0.00034987014 0)
(0.8243421 0.00033459588 0)
(0.82126956 0.00032007337 0)
(0.81824908 0.00030625548 0)
(0.81527888 0.00029310685 0)
(0.81235726 0.00028059027 0)
(0.8094826 0.0002686715 0)
(0.80665334 0.00025732148 0)
(0.80386795 0.00024650733 0)
(0.801125 0.000236203 0)
(0.7984231 0.00022638159 0)
(0.79576089 0.00021701839 0)
(0.79313708 0.00020809015 0)
(0.79055041 0.00019957512 0)
(0.78799964 0.0001914531 0)
(0.78548358 0.00018370559 0)
(0.78300105 0.0001763154 0)
(0.7805509 0.00016926833 0)
(0.77813188 0.00016254948 0)
(0.77574293 0.00015615507 0)
(0.77338234 0.00015006343 0)
(0.77104976 0.0001443192 0)
(0.76874037 0.00013882397 0)
(0.76646018 0.00013389906 0)
(0.76418357 0.00012897911 0)
(0.76196235 0.00012582993 0)
(0.75963696 0.00012078348 3.0020639e-20)
(0.7576435 0.00013208622 0)
(0.75409229 0.00011226414 0)
(0.99674641 0.0019401868 0)
(0.99699303 0.0024619147 0)
(0.99738008 0.0027784736 0)
(0.9977322 0.0029369443 0)
(0.99801423 0.0030392385 0)
(0.99826427 0.0031147356 0)
(0.99849781 0.0031608213 0)
(0.99870952 0.0031855221 0)
(0.99890024 0.0031970093 0)
(0.99907549 0.0031985143 0)
(0.99923866 0.0031918674 0)
(0.99939146 0.0031787855 0)
(0.99953504 0.003159074 0)
(0.99967038 0.0031348792 0)
(0.99979885 0.0031061222 0)
(0.99992109 0.0030727695 0)
(1.0000373 0.0030345597 0)
(1.0001471 0.0029910583 0)
(1.0002495 0.0029425906 0)
(1.0003436 0.0028899717 0)
(1.0004286 0.0028339084 0)
(1.0005039 0.0027752209 0)
(1.000569 0.0027150183 0)
(1.0006235 0.0026546994 0)
(1.0006667 0.0025960352 0)
(1.0006993 0.0025414298 0)
(1.0007221 0.0024919367 0)
(1.0007357 0.0024480132 0)
(1.0007408 0.0024104586 0)
(1.0007381 0.0023786657 0)
(1.0007271 0.002351163 0)
(1.0007059 0.0023261687 0)
(1.0006707 0.0023033209 0)
(1.0006164 0.0022826262 0)
(1.0005317 0.0022639293 0)
(1.0003975 0.0022477845 0)
(1.0001891 0.0022342611 0)
(0.99986823 0.0022220137 0)
(0.99937612 0.002207574 0)
(0.99859199 0.0021880918 0)
(0.99731663 0.0021599126 0)
(0.99536128 0.0021192287 0)
(0.99255924 0.0020659432 0)
(0.98879798 0.001999906 0)
(0.98407773 0.0019159765 0)
(0.97857499 0.001817468 0)
(0.97253504 0.0017125846 0)
(0.96623547 0.0016043911 0)
(0.95993154 0.0014990267 0)
(0.95379035 0.0014023307 0)
(0.94787839 0.0013155012 0)
(0.94219179 0.0012392836 0)
(0.93669844 0.0011726265 0)
(0.93136968 0.0011128237 0)
(0.92619015 0.0010574671 0)
(0.92115324 0.0010052385 0)
(0.91625434 0.00095550959 0)
(0.91148738 0.00090819531 0)
(0.90684458 0.00086352875 0)
(0.902318 0.00082144806 0)
(0.89790113 0.00078174815 0)
(0.89358875 0.00074428247 0)
(0.88937604 0.00070890542 0)
(0.88525833 0.00067544502 0)
(0.88123132 0.00064378852 0)
(0.87729102 0.00061384173 0)
(0.87343378 0.00058546399 0)
(0.86965628 0.0005585703 0)
(0.86595532 0.00053308265 0)
(0.86232793 0.00050889705 0)
(0.85877134 0.0004859539 0)
(0.85528291 0.00046417694 0)
(0.85186015 0.00044349075 0)
(0.84850072 0.00042384685 0)
(0.84520238 0.00040517946 0)
(0.84196297 0.00038743724 0)
(0.83878046 0.0003705676 0)
(0.83565291 0.00035452211 0)
(0.83257843 0.000339259 0)
(0.82955523 0.00032473265 0)
(0.82658158 0.0003109058 0)
(0.82365583 0.00029774079 0)
(0.82077637 0.00028520293 0)
(0.81794167 0.00027325962 0)
(0.81515022 0.00026188041 0)
(0.81240058 0.000251037 0)
(0.80969134 0.00024070345 0)
(0.8070211 0.00023085557 0)
(0.80438852 0.00022147328 0)
(0.80179216 0.00021253531 0)
(0.79923078 0.00020403572 0)
(0.79670248 0.00019594309 0)
(0.79420675 0.00018831778 0)
(0.79173865 0.00018101828 0)
(0.78930386 0.00017448997 0)
(0.78687708 0.00016789987 0)
(0.78450926 0.00016380352 0)
(0.78204027 0.00015633071 0)
(0.7799197 0.00017401421 4.9302361e-20)
(0.77616022 0.00014192276 0)
(0.99688922 0.0018990951 0)
(0.99710023 0.0023730526 0)
(0.99743644 0.0026829462 0)
(0.99775757 0.0028552649 0)
(0.99802631 0.002969078 0)
(0.99826766 0.0030520061 0)
(0.99849435 0.0031040287 0)
(0.99870212 0.0031339226 0)
(0.99889089 0.0031499991 0)
(0.99906507 0.0031561281 0)
(0.99922765 0.0031538007 0)
(0.99938022 0.0031449762 0)
(0.99952394 0.0031299743 0)
(0.99965975 0.0031102989 0)
(0.99978889 0.0030858529 0)
(0.99991196 0.003056539 0)
(1.0000292 0.0030220985 0)
(1.0001401 0.0029821685 0)
(1.0002441 0.0029369631 0)
(1.0003404 0.002887158 0)
(1.0004284 0.0028334852 0)
(1.0005076 0.0027768253 0)
(1.0005776 0.0027182389 0)
(1.000638 0.0026590847 0)
(1.0006886 0.0026010852 0)
(1.00073 0.0025462004 0)
(1.0007636 0.0024955912 0)
(1.0007907 0.0024501587 0)
(1.0008127 0.0024109407 0)
(1.0008314 0.0023777842 0)
(1.0008481 0.0023496781 0)
(1.0008629 0.002325542 0)
(1.0008756 0.0023048141 0)
(1.0008855 0.0022863048 0)
(1.000891 0.0022690616 0)
(1.0008897 0.0022530153 0)
(1.000879 0.0022375622 0)
(1.0008548 0.0022220886 0)
(1.0008117 0.0022066816 0)
(1.0007412 0.0021913552 0)
(1.0006249 0.002176025 0)
(1.0004369 0.0021609516 0)
(1.0001391 0.0021457122 0)
(0.99967404 0.0021285043 0)
(0.99892543 0.0021074852 0)
(0.99770704 0.0020793848 0)
(0.99583953 0.0020405159 0)
(0.99316914 0.0019915525 0)
(0.98958777 0.0019265056 0)
(0.98516777 0.0018440487 0)
(0.98007593 0.0017529446 0)
(0.97454687 0.0016564312 0)
(0.96883028 0.0015598037 0)
(0.96311938 0.001468302 0)
(0.957519 0.0013836634 0)
(0.95206087 0.001307162 0)
(0.94673987 0.0012384418 0)
(0.94154427 0.0011757839 0)
(0.93646848 0.0011175115 0)
(0.93151172 0.0010625326 0)
(0.9266734 0.0010103249 0)
(0.92195053 0.00096086247 0)
(0.91733825 0.00091415037 0)
(0.91283165 0.00087003338 0)
(0.90842668 0.00082835298 0)
(0.90411957 0.000788974 0)
(0.89990656 0.00075171591 0)
(0.89578404 0.00071646136 0)
(0.89174852 0.00068309812 0)
(0.88779678 0.00065148443 0)
(0.88392575 0.00062153322 0)
(0.88013248 0.00059314014 0)
(0.87641419 0.0005662026 0)
(0.87276824 0.00054065045 0)
(0.86919209 0.00051639548 0)
(0.86568331 0.00049336694 0)
(0.86223958 0.0004714937 0)
(0.85885869 0.00045071033 0)
(0.8555385 0.00043095977 0)
(0.85227696 0.00041218123 0)
(0.84907209 0.00039432405 0)
(0.845922 0.00037733779 0)
(0.84282486 0.00036117586 0)
(0.8397789 0.00034579456 0)
(0.83678241 0.00033115309 0)
(0.83383372 0.00031721353 0)
(0.83093123 0.00030394108 0)
(0.82807333 0.00029130322 0)
(0.8252585 0.00027927274 0)
(0.8224851 0.00026782085 0)
(0.81975172 0.00025693842 0)
(0.81705629 0.00024658321 0)
(0.8143981 0.00023683082 0)
(0.81177215 0.00022749476 0)
(0.80918375 0.00021914774 0)
(0.80660792 0.00021067516 0)
(0.8040949 0.00020547579 0)
(0.80148358 0.00019520457 0)
(0.7992378 0.00022008913 4.6170496e-20)
(0.79527314 0.00017399231 0)
(0.99703303 0.0018655259 0)
(0.99721132 0.0022955389 0)
(0.99750165 0.0025956742 0)
(0.99779248 0.0027762612 0)
(0.9980465 0.0028981512 0)
(0.99827813 0.0029875755 0)
(0.99849713 0.0030467563 0)
(0.99869992 0.0030832362 0)
(0.99888568 0.003104917 0)
(0.99905787 0.0031157704 0)
(0.99921911 0.0031175111 0)
(0.99937081 0.003112076 0)
(0.99951398 0.0031000605 0)
(0.99964953 0.0030827182 0)
(0.99977851 0.0030602411 0)
(0.99990154 0.003032638 0)
(1.0000188 0.0029997853 0)
(1.0001299 0.0029614527 0)
(1.0002342 0.0029178629 0)
(1.0003311 0.0028696791 0)
(1.00042 0.0028176598 0)
(1.0005006 0.0027626778 0)
(1.0005723 0.0027057718 0)
(1.000635 0.0026482571 0)
(1.0006885 0.0025917806 0)
(1.0007334 0.0025382571 0)
(1.0007711 0.0024889448 0)
(1.000803 0.0024447554 0)
(1.0008305 0.0024065627 0)
(1.0008556 0.0023742106 0)
(1.0008797 0.0023468189 0)
(1.0009036 0.0023232773 0)
(1.0009273 0.0023027763 0)
(1.0009509 0.0022841756 0)
(1.0009736 0.0022667775 0)
(1.0009949 0.0022506035 0)
(1.0010143 0.0022352726 0)
(1.001031 0.0022205871 0)
(1.0010439 0.0022064837 0)
(1.0010518 0.0021923921 0)
(1.0010521 0.0021780158 0)
(1.0010409 0.0021634388 0)
(1.0010136 0.002148548 0)
(1.0009636 0.0021335044 0)
(1.0008807 0.0021182074 0)
(1.0007429 0.0021023934 0)
(1.0005201 0.002086156 0)
(1.000165 0.0020685187 0)
(0.99961041 0.0020489287 0)
(0.99869388 0.0020253546 0)
(0.99724825 0.0019935536 0)
(0.99511309 0.0019526318 0)
(0.99215641 0.0018973226 0)
(0.98839283 0.001825944 0)
(0.98393897 0.0017450997 0)
(0.97899119 0.0016582583 0)
(0.97377702 0.0015704274 0)
(0.96848019 0.0014857036 0)
(0.96321167 0.0014058959 0)
(0.95801733 0.001332339 0)
(0.95290857 0.0012648395 0)
(0.94788788 0.0012023431 0)
(0.94295928 0.0011437052 0)
(0.93812758 0.0010881581 0)
(0.93339522 0.0010354475 0)
(0.92876153 0.00098553742 0)
(0.92422446 0.0009383018 0)
(0.9197819 0.00089361179 0)
(0.91543167 0.00085133003 0)
(0.91117136 0.0008112884 0)
(0.90699839 0.00077337855 0)
(0.90291012 0.00073746869 0)
(0.89890399 0.00070342782 0)
(0.89497748 0.00067116283 0)
(0.89112807 0.00064056116 0)
(0.88735332 0.00061153033 0)
(0.88365083 0.00058397821 0)
(0.88001832 0.00055782014 0)
(0.87645351 0.00053298162 0)
(0.87295423 0.00050938465 0)
(0.86951836 0.00048696326 0)
(0.86614386 0.00046565239 0)
(0.86282872 0.00044539187 0)
(0.85957101 0.00042612526 0)
(0.85636886 0.00040779988 0)
(0.85322043 0.00039036673 0)
(0.85012393 0.00037378073 0)
(0.84707762 0.00035799977 0)
(0.84407977 0.00034298827 0)
(0.84112861 0.00032870877 0)
(0.83822253 0.00031514786 0)
(0.83535935 0.00030225144 0)
(0.83253815 0.00029010968 0)
(0.82975386 0.00027848962 0)
(0.82701149 0.00026809372 0)
(0.82428628 0.00025751322 0)
(0.82162795 0.00025104189 0)
(0.81887406 0.00023761955 -1.2219143e-20)
(0.81650335 0.00027046647 0)
(0.81233402 0.00020867847 -8.8315331e-21)
(0.99717116 0.0018366011 0)
(0.99732303 0.0022269244 0)
(0.99757371 0.0025150257 0)
(0.99783589 0.0027004671 0)
(0.99807441 0.0028290466 0)
(0.99829562 0.0029244968 0)
(0.99850622 0.0029902431 0)
(0.99870312 0.003032672 0)
(0.99888498 0.0030593387 0)
(0.99905437 0.0030744177 0)
(0.99921357 0.0030798488 0)
(0.99936377 0.0030775289 0)
(0.99950585 0.0030683164 0)
(0.99964063 0.0030533676 0)
(0.99976902 0.0030330589 0)
(0.99989157 0.0030074634 0)
(1.0000084 0.0029765393 0)
(1.0001193 0.0029401573 0)
(1.0002235 0.0028985516 0)
(1.0003205 0.002852357 0)
(1.0004098 0.0028023193 0)
(1.000491 0.0027492928 0)
(1.0005636 0.0026943019 0)
(1.0006275 0.002638631 0)
(1.0006826 0.0025838601 0)
(1.0007294 0.0025317996 0)
(1.0007694 0.0024837 0)
(1.0008037 0.0024404272 0)
(1.000834 0.0024027996 0)
(1.000862 0.0023707525 0)
(1.0008893 0.002343485 0)
(1.0009167 0.0023199501 0)
(1.0009444 0.0022993812 0)
(1.0009727 0.0022808062 0)
(1.001001 0.0022635791 0)
(1.0010292 0.0022476527 0)
(1.0010571 0.0022326883 0)
(1.0010845 0.0022184234 0)
(1.001111 0.0022046307 0)
(1.0011362 0.0021907824 0)
(1.0011593 0.0021766821 0)
(1.0011792 0.0021624307 0)
(1.0011949 0.0021480381 0)
(1.001205 0.0021336461 0)
(1.0012079 0.002119049 0)
(1.0012002 0.0021042238 0)
(1.0011775 0.0020893054 0)
(1.001133 0.002074502 0)
(1.0010588 0.0020596555 0)
(1.000936 0.0020441554 0)
(1.0007358 0.0020278484 0)
(1.0004146 0.0020101758 0)
(0.99991071 0.0019909205 0)
(0.99908358 0.0019684523 0)
(0.99777739 0.001939213 0)
(0.99583601 0.001901119 0)
(0.99313539 0.0018492744 0)
(0.98968264 0.0017835328 0)
(0.98557581 0.0017090905 0)
(0.98099396 0.001629586 0)
(0.9761394 0.0015493233 0)
(0.97117279 0.0014709479 0)
(0.96619102 0.001396521 0)
(0.9612391 0.0013270255 0)
(0.95633595 0.0012623109 0)
(0.95149355 0.0012015656 0)
(0.94672261 0.0011440388 0)
(0.94203098 0.001089391 0)
(0.93742248 0.0010375193 0)
(0.93289845 0.00098831389 0)
(0.92845924 0.00094168044 0)
(0.92410455 0.00089747783 0)
(0.91983352 0.00085556465 0)
(0.91564483 0.00081583682 0)
(0.91153687 0.00077816308 0)
(0.90750786 0.00074243281 0)
(0.90355591 0.00070853486 0)
(0.89967906 0.00067636593 0)
(0.89587531 0.00064583383 0)
(0.89214262 0.00061684272 0)
(0.88847898 0.00058931053 0)
(0.88488239 0.00056315664 0)
(0.88135085 0.00053830627 0)
(0.8778824 0.00051468918 0)
(0.8744751 0.00049223971 0)
(0.87112705 0.00047089664 0)
(0.86783637 0.00045060357 0)
(0.8646012 0.00043130765 0)
(0.86141972 0.00041296387 0)
(0.85829004 0.00039552506 0)
(0.85521042 0.00037897256 0)
(0.85217856 0.00036323949 0)
(0.8491934 0.00034842981 0)
(0.84624981 0.00033426286 0)
(0.84335251 0.00032157273 0)
(0.84047697 0.0003086451 0)
(0.83767253 0.00030071973 0)
(0.83477508 0.00028377742 0)
(0.83227888 0.00032533562 4.3600147e-20)
(0.82790392 0.00024616318 0)
(0.99730079 0.0018111593 0)
(0.99743156 0.0021660145 0)
(0.99764874 0.0024407784 0)
(0.99788477 0.0026283737 0)
(0.99810784 0.0027620836 0)
(0.99831838 0.0028625174 0)
(0.99852032 0.002933887 0)
(0.99871088 0.0029817359 0)
(0.99888834 0.0030131198 0)
(0.99905445 0.0030323015 0)
(0.99921111 0.0030413716 0)
(0.99935934 0.003042192 0)
(0.99949989 0.0030358227 0)
(0.99963348 0.0030233622 0)
(0.9997609 0.0030052997 0)
(0.99988262 0.0029817803 0)
(0.99999875 0.0029528393 0)
(1.000109 0.0029184419 0)
(1.0002129 0.0028788407 0)
(1.0003098 0.0028346434 0)
(1.0003991 0.0027865831 0)
(1.0004806 0.0027355026 0)
(1.0005538 0.0026824119 0)
(1.0006184 0.0026285617 0)
(1.0006746 0.0025754638 0)
(1.0007229 0.0025248224 0)
(1.0007644 0.0024778757 0)
(1.0008004 0.0024354847 0)
(1.0008324 0.0023984262 0)
(1.0008622 0.0023666943 0)
(1.0008913 0.0023395782 0)
(1.0009205 0.0023161198 0)
(1.0009502 0.0022955907 0)
(1.0009806 0.0022770946 0)
(1.0010114 0.0022599851 0)
(1.0010424 0.0022441606 0)
(1.0010737 0.0022293029 0)
(1.0011051 0.0022151283 0)
(1.0011365 0.0022014149 0)
(1.0011677 0.0021877189 0)
(1.0011982 0.002173857 0)
(1.0012276 0.0021599176 0)
(1.0012553 0.0021459389 0)
(1.001281 0.0021319857 0)
(1.0013042 0.0021178662 0)
(1.001324 0.0021035745 0)
(1.0013392 0.002089236 0)
(1.0013484 0.0020750061 0)
(1.0013501 0.0020606294 0)
(1.001341 0.0020459582 0)
(1.0013164 0.0020312728 0)
(1.0012691 0.002016758 0)
(1.0011906 0.0020022448 0)
(1.0010613 0.0019871086 0)
(1.0008511 0.0019709761 0)
(1.0005153 0.001953376 0)
(0.99998248 0.0019340666 0)
(0.99911627 0.0019112475 0)
(0.99776985 0.0018821061 0)
(0.9957922 0.0018426914 0)
(0.99310034 0.0017900886 0)
(0.98971196 0.0017267776 0)
(0.98573755 0.0016562392 0)
(0.98135329 0.0015822444 0)
(0.9767334 0.0015077168 0)
(0.97200724 0.0014349987 0)
(0.96724951 0.0013657694 0)
(0.96249781 0.0013006092 0)
(0.95777441 0.001239148 0)
(0.95309657 0.0011808118 0)
(0.94847719 0.0011253009 0)
(0.94392432 0.0010724754 0)
(0.9394427 0.0010222487 0)
(0.93503521 0.00097454821 0)
(0.93070351 0.00092924898 0)
(0.92644828 0.00088624436 0)
(0.92226944 0.0008454203 0)
(0.91816644 0.00080666479 0)
(0.91413834 0.00076987467 0)
(0.91018394 0.00073494071 0)
(0.90630183 0.0007017675 0)
(0.90249049 0.00067026039 0)
(0.89874827 0.00064033085 0)
(0.89507346 0.00061189523 0)
(0.89146431 0.00058487494 0)
(0.88791903 0.00055919634 0)
(0.88443582 0.00053479131 0)
(0.88101284 0.00051159577 0)
(0.87764827 0.00048955467 0)
(0.8743402 0.00046861048 0)
(0.87108686 0.00044873856 0)
(0.86788588 0.00042985859 0)
(0.86473611 0.00041208764 0)
(0.86163241 0.00039509649 0)
(0.8585793 0.00037985239 0)
(0.8555524 0.00036432489 0)
(0.85260087 0.00035475022 0)
(0.84955865 0.0003339029 0)
(0.84693606 0.00038493758 0)
(0.84235388 0.00028664118 0)
(0.99742201 0.0017884454 0)
(0.99753565 0.0021116979 0)
(0.99772452 0.0023724197 0)
(0.99793686 0.0025598372 0)
(0.99814481 0.0026971175 0)
(0.99834468 0.0028015436 0)
(0.99853794 0.002877764 0)
(0.99872197 0.0029306175 0)
(0.99889478 0.0029665032 0)
(0.99905737 0.0029896578 0)
(0.99921123 0.0030022858 0)
(0.99935722 0.0030062235 0)
(0.99949596 0.0030026722 0)
(0.99962809 0.0029927037 0)
(0.99975426 0.0029768916 0)
(0.99987488 0.0029554613 0)
(0.99999005 0.0029285203 0)
(1.0000995 0.0028961181 0)
(1.0002028 0.0028585289 0)
(1.0002992 0.0028163388 0)
(1.0003884 0.0027702689 0)
(1.0004699 0.0027211504 0)
(1.0005435 0.0026699753 0)
(1.0006087 0.0026179589 0)
(1.0006658 0.002566547 0)
(1.0007151 0.0025173475 0)
(1.0007579 0.002471583 0)
(1.0007952 0.0024301109 0)
(1.0008287 0.0023936658 0)
(1.0008598 0.0023622887 0)
(1.0008902 0.0023353587 0)
(1.0009206 0.002312001 0)
(1.0009514 0.0022915152 0)
(1.0009829 0.0022730679 0)
(1.001015 0.0022560307 0)
(1.0010474 0.0022402666 0)
(1.0010803 0.0022254767 0)
(1.0011136 0.0022113765 0)
(1.0011473 0.0021977505 0)