/*--------------------------------*- C++ -*----------------------------------*\
  =========                 |
  \\      /  F ield         | OpenFOAM: The Open Source CFD Toolbox
   \\    /   O peration     | Website:  https://openfoam.org
    \\  /    A nd           | Version:  12
     \\/     M anipulation  |
\*---------------------------------------------------------------------------*/
FoamFile
{
    format      ascii;
    class       volVectorField;
    location    "300";
    object      wallShearStress;
}
// * * * * * * * * * * * * * * * * * * * * * * * * * * * * * * * * * * * * * //

dimensions      [0 2 -2 0 0 0 0];

internalField   uniform (0 0 0);

boundaryField
{
    bottom
    {
        type            calculated;
        value           nonuniform List<vector> 
112
(
(-0.0077440596 -3.5802358e-05 0)
(-0.0057510679 -2.6128781e-07 -1.6583723e-17)
(-0.0050915523 -1.0090215e-07 1.2694159e-17)
(-0.004755204 -5.896612e-08 -3.6004742e-18)
(-0.0045193372 -4.3110631e-08 0)
(-0.0043352612 -3.3869715e-08 0)
(-0.00418699 -2.7269769e-08 0)
(-0.0040656605 -2.2328625e-08 0)
(-0.0039645161 -1.861818e-08 0)
(-0.0038786275 -1.5784986e-08 -1.8919449e-18)
(-0.0038045688 -1.356816e-08 0)
(-0.0037398971 -1.1797009e-08 -1.408785e-18)
(-0.0036827996 -1.0358898e-08 1.2350969e-18)
(-0.0036319164 -9.1724601e-09 -1.091976e-18)
(-0.0035862122 -8.1796087e-09 0)
(-0.0035448754 -7.3395663e-09 8.7141631e-19)
(-0.0035072577 -6.6224298e-09 0)
(-0.0034728345 -6.0046482e-09 -3.5561396e-19)
(-0.0034411803 -5.4681391e-09 0)
(-0.0034119441 -4.9988648e-09 -5.9081698e-19)
(-0.003384834 -4.5854315e-09 5.4141105e-19)
(-0.0033596069 -4.2191245e-09 0)
(-0.0033360559 -3.8928996e-09 0)
(-0.0033140047 -3.6007125e-09 0)
(-0.0032933029 -3.3379144e-09 -3.9264984e-19)
(-0.0032738197 -3.1007946e-09 0)
(-0.0032554401 -2.8859027e-09 0)
(-0.0032380652 -2.6904682e-09 0)
(-0.0032216068 -2.5123461e-09 0)
(-0.0032059869 -2.3495733e-09 -2.7528269e-19)
(-0.0031911355 -2.2003731e-09 2.5762011e-19)
(-0.0031769911 -2.0632698e-09 0)
(-0.003163498 -1.9371045e-09 0)
(-0.003150606 -1.8208175e-09 0)
(-0.0031382688 -1.7134103e-09 2.0010242e-19)
(-0.0031264456 -1.6140143e-09 0)
(-0.0031150983 -1.5219075e-09 0)
(-0.003104193 -1.4364808e-09 -1.6750865e-19)
(-0.0030936974 -1.3571712e-09 0)
(-0.0030835823 -1.2834287e-09 0)
(-0.0030738205 -1.2147601e-09 0)
(-0.0030643876 -1.1507681e-09 1.3398851e-19)
(-0.00305526 -1.0910992e-09 -6.350257e-20)
(-0.0030464165 -1.0354149e-09 1.2049315e-19)
(-0.0030378364 -9.8339536e-10 0)
(-0.0030295016 -9.3473625e-10 0)
(-0.003021394 -8.8920116e-10 -1.5513841e-19)
(-0.0030134973 -8.4654275e-10 0)
(-0.0030057964 -8.0655607e-10 9.3798279e-20)
(-0.0029982764 -7.6905085e-10 0)
(-0.0029909237 -7.3383785e-10 0)
(-0.0029837252 -7.007232e-10 -4.074387e-20)
(-0.0029766692 -6.695523e-10 -3.8934106e-20)
(-0.002969744 -6.4021606e-10 0)
(-0.0029629386 -6.12562e-10 -7.1250362e-20)
(-0.002956243 -5.8645963e-10 0)
(-0.0029496471 -5.6180907e-10 0)
(-0.0029431416 -5.3848565e-10 0)
(-0.0029367179 -5.1638973e-10 0)
(-0.0029303676 -4.9545308e-10 0)
(-0.0029240824 -4.7557473e-10 0)
(-0.0029178551 -4.5667146e-10 0)
(-0.002911678 -4.3868296e-10 0)
(-0.0029055442 -4.2152886e-10 0)
(-0.0028994472 -4.0514765e-10 -4.7188022e-20)
(-0.0028933805 -3.8948579e-10 0)
(-0.0028873379 -3.7449405e-10 -2.1813964e-20)
(-0.0028813133 -3.6012264e-10 0)
(-0.0028753008 -3.4630627e-10 -2.0175489e-20)
(-0.0028692956 -3.3301467e-10 3.8805321e-20)
(-0.0028632915 -3.2021401e-10 3.7315385e-20)
(-0.0028572839 -3.0786048e-10 -1.7938542e-20)
(-0.0028512672 -2.9592927e-10 0)
(-0.0028452366 -2.8437829e-10 0)
(-0.0028391875 -2.7317613e-10 3.183467e-20)
(-0.0028331152 -2.6231117e-10 -3.0566997e-20)
(-0.0028270145 -2.5175294e-10 0)
(-0.0028208815 -2.4147474e-10 0)
(-0.0028147115 -2.3146199e-10 -2.6965357e-20)
(-0.0028085001 -2.2169759e-10 0)
(-0.0028022426 -2.1216233e-10 0)
(-0.0027959353 -2.028427e-10 0)
(-0.0027895732 -1.9373391e-10 0)
(-0.0027831521 -1.848189e-10 0)
(-0.0027766676 -1.760873e-10 0)
(-0.0027701152 -1.6752369e-10 0)
(-0.0027634912 -1.5911199e-10 0)
(-0.0027567919 -1.5078356e-10 1.7535056e-20)
(-0.0027500194 -1.4287557e-10 -1.6610898e-20)
(-0.0027432921 -1.3564068e-10 0)
(-0.0027368221 -1.2877602e-10 0)
(-0.0027306855 -1.2221849e-10 0)
(-0.0027248628 -1.1608766e-10 0)
(-0.0027193317 -1.1037104e-10 0)
(-0.0027140737 -1.0499162e-10 0)
(-0.0027090741 -9.9891145e-11 0)
(-0.0027043201 -9.5043633e-11 0)
(-0.0026997994 -9.0440291e-11 -1.0454277e-20)
(-0.0026955 -8.6075636e-11 0)
(-0.0026914101 -8.194749e-11 0)
(-0.0026875179 -7.80534e-11 0)
(-0.0026838119 -7.4384237e-11 0)
(-0.0026802813 -7.0935348e-11 0)
(-0.002676915 -6.7693643e-11 0)
(-0.0026737034 -6.4653925e-11 0)
(-0.0026706361 -6.1792792e-11 0)
(-0.0026677059 -5.9181549e-11 0)
(-0.0026648955 -5.6535418e-11 0)
(-0.0026622253 -5.4953171e-11 0)
(-0.0026595708 -9.5781048e-11 0)
(-0.0026573456 -6.1011446e-11 -6.9975668e-21)
(-0.0026536536 -7.275239e-11 0)
)
;
    }
    back
    {
        type            empty;
    }
    front
    {
        type            empty;
    }
    inlet
    {
        type            calculated;
        value           uniform (0 0 0);
    }
    outlet
    {
        type            calculated;
        value           uniform (0 0 0);
    }
    top
    {
        type            calculated;
        value           uniform (0 0 0);
    }
    slipsurface
    {
        type            calculated;
        value           uniform (0 0 0);
    }
}


// ************************************************************************* //
