# y+ ()         
# Time          	patch           	min             	max             	average         
0               	lowerWall	1.91343787e+00	1.91343787e+00	1.91343787e+00
1000            	lowerWall	1.09004870e-01	1.35279190e+00	2.03262611e-01
2000            	lowerWall	8.80177985e-02	1.35279137e+00	1.94519492e-01
3000            	lowerWall	8.48552546e-02	1.35279138e+00	1.93384958e-01
