#      distance           pMean         UMean_x         UMean_y         UMean_z         nutMean wallShearStr... wallShearStr... wallShearStr...
  3.0219182e-06   1.9168133e-06    0.0038138314   7.6035162e-11   3.1605543e-40   7.6189005e-31               0               0               0
  5.0865428e-06   1.9168194e-06    0.0064028807   1.9774955e-10    2.005754e-41   1.7585202e-31               0               0               0
  7.2269684e-06   1.9168258e-06    0.0090688264   3.9173225e-10  -3.4918867e-40   2.8893789e-32               0               0               0
  9.4750924e-06   1.9168325e-06     0.011846588   6.6939095e-10  -3.7832392e-40   4.1092534e-35               0               0               0
  1.1864417e-05   1.9168395e-06      0.01477254   1.0467468e-09               0   2.1898856e-35               0               0               0
  1.4430548e-05   1.9168471e-06     0.017884938   1.5463408e-09               0   2.8482753e-36               0               0               0
  1.7211727e-05   1.9168553e-06     0.021224389   2.1982265e-09   7.8451323e-39   3.6029889e-36               0               0               0
  2.0249401e-05   1.9168642e-06     0.024834371   3.0416223e-09   7.1413949e-39   7.1977578e-36               0               0               0
  2.3588836e-05   1.9168741e-06     0.028761791   4.1272827e-09   9.4043566e-39   1.7249295e-35               0               0               0
  2.7279799e-05    1.916885e-06     0.033057568   5.5206008e-09  -9.4368666e-40   5.5235937e-35               0               0               0
  3.1377293e-05   1.9168971e-06     0.037777245   7.3055968e-09  -2.1251448e-38   2.8402931e-34               0               0               0
  3.5942381e-05   1.9169106e-06     0.042981618   9.5900501e-09  -1.0199667e-38   2.3544442e-33               0               0               0
  4.1043091e-05   1.9169258e-06     0.048737383   1.2512101e-08     1.32719e-38   2.6869061e-32               0               0               0
  4.6755437e-05   1.9169427e-06     0.055117778   1.6248743e-08   2.7478982e-38   3.8745377e-31               0               0               0
  5.3164546e-05   1.9169618e-06     0.062203219   2.1026735e-08  -2.3976788e-39   6.9995339e-30               0               0               0
  6.0365928e-05   1.9169834e-06     0.070081909   2.7136642e-08  -3.1841286e-38   1.5530216e-28               0               0               0
    6.84669e-05   1.9170077e-06     0.078850386   3.4950893e-08  -1.5236525e-38   1.0903955e-27               0               0               0
  7.7588184e-05   1.9170351e-06        0.088614   4.4947022e-08               0   2.6407714e-27               0               0               0
   8.786571e-05   1.9170661e-06     0.099487256   5.7737608e-08  -1.9545746e-38   2.6382727e-27               0               0               0
  9.9452634e-05   1.9171013e-06      0.11159398   7.4108905e-08    5.773123e-40   1.1123482e-27               0               0               0
  0.00011252163   1.9171411e-06      0.12506723   9.5070773e-08   2.0123058e-38    2.008512e-28               0               0               0
  0.00012726745   1.9171862e-06      0.14004889   1.2192139e-07   1.6387677e-37   7.2192371e-29               0               0               0
  0.00014390985   1.9172376e-06      0.15668879   1.5633145e-07   1.9761843e-39   1.2715498e-28               0               0               0
  0.00016269684   1.9172959e-06      0.17514327    2.004541e-07  -4.1517003e-39    2.396862e-28               0               0               0
  0.00018390838   1.9173624e-06      0.19557295    2.570694e-07   6.0791726e-39   3.7599022e-28               0               0               0
  0.00020786057   1.9174383e-06      0.21813962   3.2977494e-07  -1.5166971e-37   7.9830322e-28               0               0               0
  0.00023491035   1.9175253e-06       0.2430019   4.2323925e-07               0   3.4912841e-27               0               0               0
  0.00026546084   1.9176253e-06      0.27030949   5.4354074e-07               0   1.2794376e-26               0               0               0
   0.0002999673   1.9177409e-06      0.30019575     6.98624e-07               0   4.8338304e-26               0               0               0
  0.00033894396   1.9178754e-06      0.33276822   8.9891783e-07               0   1.7253062e-25               0               0               0
  0.00038297165   1.9180333e-06      0.36809705   1.1581757e-06               0   6.4085648e-25               0               0               0
  0.00043270649   1.9182209e-06      0.40620096   1.4946192e-06               0   3.1216342e-24               0               0               0
  0.00048888965   1.9184471e-06      0.44703086   1.9324859e-06               0   1.2128227e-23               0               0               0
  0.00055235838   1.9187249e-06      0.49045138   2.5040944e-06               0   3.6016548e-23               0               0               0
   0.0006240585   1.9190738e-06      0.53622064   3.2525179e-06               0   8.7983793e-23               0               0               0
  0.00070505852   1.9195235e-06      0.58396953   4.2348539e-06               0   1.8787158e-22               0               0               0
  0.00079656552   1.9201188e-06      0.63318177   5.5257912e-06               0   3.6637776e-22               0               0               0
  0.00089994316   1.9209283e-06      0.68317671   7.2205206e-06               0   6.7131988e-22               0               0               0
    0.001016732   1.9220547e-06      0.73309747   9.4347551e-06               0   1.1713894e-21               0               0               0
   0.0011486725   1.9236481e-06      0.78190765   1.2297445e-05               0   1.9383538e-21               0               0               0
   0.0012977308   1.9259197e-06      0.82840196   1.5928917e-05               0   2.9653651e-21               0               0               0
   0.0014661282   1.9291483e-06      0.87124198   2.0395476e-05               0   4.0141292e-21               0               0               0
   0.0016563743   1.9336703e-06      0.90903915   2.5636404e-05               0   4.6151235e-21               0               0               0
   0.0018713042   1.9398412e-06      0.94051978   3.1379935e-05               0   4.5102064e-21               0               0               0
   0.0021141207   1.9479701e-06      0.96479824   3.7104939e-05               0   4.0414141e-21               0               0               0
   0.0023884425   1.9582535e-06      0.98171407   4.2135757e-05               0   4.3383909e-21               0               0               0
   0.0026983575   1.9707588e-06      0.99205515   4.5903163e-05               0   1.1754512e-20               0               0               0
   0.0030484842   1.9854783e-06       0.9974261   4.8230809e-05   4.2515047e-38   1.1158882e-19               0               0               0
   0.0034440402   2.0024192e-06      0.99971853   4.9393099e-05   6.4493781e-38   3.1173168e-18               0               0               0
   0.0038909203   2.0216662e-06       1.0004968   4.9874747e-05  -1.1630657e-38   1.1201068e-16               0               0               0
    0.004395784   2.0434006e-06       1.0007009   5.0075267e-05  -5.0590586e-38   8.3521722e-16               0               0               0
   0.0049661549    2.067882e-06       1.0007413   5.0200407e-05   4.2131784e-38   1.5799781e-15               0               0               0
   0.0056105328   2.0954319e-06       1.0007475   5.0321225e-05   9.1873064e-38   9.2347693e-16               0               0               0
   0.0063385204    2.126413e-06       1.0007485    5.045489e-05  -2.9580833e-38   7.1971813e-17               0               0               0
   0.0071609664   2.1612357e-06       1.0007487   5.0605977e-05  -7.3834954e-38   3.0782099e-18               0               0               0
   0.0080901272   2.2003459e-06       1.0007487   5.0776517e-05  -1.1494033e-38   1.5450787e-18               0               0               0
   0.0091398493   2.2442466e-06       1.0007486   5.0969482e-05               0   1.4746823e-18               0               0               0
    0.010325776   2.2934755e-06       1.0007485   5.1187066e-05               0   1.5951936e-18               0               0               0
     0.01166558   2.3486422e-06       1.0007483   5.1433162e-05               0   1.7790164e-18               0               0               0
    0.013179228   2.4103839e-06        1.000748   5.1710372e-05               0    1.999675e-18               0               0               0
    0.014889277   2.4794302e-06       1.0007477   5.2023806e-05               0   2.2498302e-18               0               0               0
    0.016821209   2.5565194e-06       1.0007473   5.2376506e-05               0   2.5278768e-18               0               0               0
    0.019003816    2.642512e-06       1.0007468   5.2775155e-05               0   2.8328191e-18               0               0               0
    0.021469624   2.7382376e-06       1.0007462   5.3223225e-05               0   3.1666841e-18               0               0               0
    0.024255377   2.8446933e-06       1.0007456   5.3729392e-05               0   3.5296637e-18               0               0               0
    0.027402591   2.9627744e-06       1.0007448   5.4297473e-05               0   3.9231432e-18               0               0               0
    0.030958166   3.0936136e-06       1.0007439   5.4938615e-05   2.3239178e-37   4.3452572e-18               0               0               0
    0.034975088   3.2381231e-06       1.0007429   5.5656776e-05   2.5908221e-37   4.7942594e-18               0               0               0
    0.039513219   3.3975643e-06       1.0007417   5.6466069e-05  -1.7901201e-37   5.2645292e-18               0               0               0
    0.044640187   3.5727922e-06       1.0007403   5.7370181e-05  -2.0570245e-37   5.7489959e-18               0               0               0
    0.050432395   3.7651866e-06       1.0007385   5.8386598e-05   1.1167652e-37   6.2370083e-18               0               0               0
    0.056976161   3.9754499e-06       1.0007365   5.9517964e-05   6.8647134e-38   6.7144265e-18               0               0               0
    0.064369002   4.2050729e-06       1.0007341   6.0785263e-05   6.3276446e-38   7.1661953e-18               0               0               0
    0.072721087   4.4545133e-06       1.0007311   6.2188718e-05   1.2419228e-37   7.5731522e-18               0               0               0
    0.082156882   4.7253665e-06       1.0007276   6.3752303e-05  -1.1994797e-37   7.9241593e-18               0               0               0
    0.092817002   5.0178136e-06       1.0007233   6.5471456e-05  -1.3783371e-37   8.2093979e-18               0               0               0
