/*--------------------------------*- C++ -*----------------------------------*\
  =========                 |
  \\      /  F ield         | OpenFOAM: The Open Source CFD Toolbox
   \\    /   O peration     | Website:  https://openfoam.org
    \\  /    A nd           | Version:  12
     \\/     M anipulation  |
\*---------------------------------------------------------------------------*/
FoamFile
{
    format      ascii;
    class       volScalarField;
    location    "200";
    object      k;
}
// * * * * * * * * * * * * * * * * * * * * * * * * * * * * * * * * * * * * * //

dimensions      [0 2 -2 0 0 0 0];

internalField   nonuniform List<scalar> 
7480
(
2.4113886e-06
2.3531763e-06
2.2966757e-06
2.2486068e-06
2.214699e-06
2.199326e-06
2.2082845e-06
2.2328253e-06
2.2800984e-06
2.3290348e-06
2.4841373e-06
2.4340355e-06
5.5001407e-05
0.0014654738
0.0037608859
0.0058292025
0.0072555799
0.0080457948
0.0084677206
0.0084525831
0.0083622292
0.0081947865
0.0079890127
0.0077718294
0.0075522311
0.0073346492
0.0071231317
0.0069231708
0.0067401853
0.0065715507
0.0064170122
0.0062770948
0.0061520013
0.0060413088
0.0059440149
0.0058587873
0.0057840404
0.0057182928
0.0056605413
0.0056100315
0.0055657701
0.0055265881
0.0054914597
0.0054593675
0.0054298754
0.0054016827
0.0053745284
0.0053479716
0.0053215804
0.0052950718
0.0052681391
0.0052404176
0.0052116717
0.0051818946
0.0051512575
0.0051199932
0.005088326
0.0050564837
0.0050246696
0.0049930162
0.0049615867
0.0049304125
0.0048995358
0.0048690283
0.0048389599
0.0048093674
0.0047802865
0.0047517428
0.0047237052
0.004696097
0.0046688615
0.0046419912
0.0046154985
0.0045893898
0.004563685
0.0045384066
0.0045135296
0.0044889976
0.0044647777
0.0044408706
0.0044172827
0.0043940338
0.0043711413
0.0043485779
0.0043262985
0.0043042901
0.0042825515
0.004261097
0.004239941
0.0042190598
0.0041984189
0.0041780039
0.0041578219
0.0041378638
0.0041181517
0.0040984949
0.0040792804
0.004058973
0.0040417915
0.0040103989
2.3883875e-06
2.3740513e-06
2.3592004e-06
2.3437685e-06
2.3277404e-06
2.3111304e-06
2.2940127e-06
2.2766573e-06
2.2582959e-06
2.2426691e-06
2.2136786e-06
2.256202e-06
1.9608713e-06
1.5749169e-05
8.7335282e-05
0.00028605605
0.00060376564
0.0009708909
0.0013244113
0.0016056225
0.0018132688
0.0019687821
0.0021000468
0.0022257243
0.0023823409
0.0025555778
0.0027525629
0.0030005969
0.0032672113
0.0035414985
0.0038140668
0.0040762359
0.0043202903
0.0045403585
0.0047327869
0.0048966266
0.0050315281
0.0051409792
0.0052318306
0.0053078897
0.005368555
0.0054143845
0.0054473252
0.0054678944
0.0054801345
0.005478326
0.0054710177
0.005457383
0.0054383539
0.0054148681
0.0053875615
0.0053569202
0.0053240878
0.0052904647
0.0052571773
0.0052248275
0.0051937027
0.0051639528
0.0051351714
0.0051070796
0.0050796159
0.0050528128
0.0050266784
0.0050012071
0.0049763949
0.0049522092
0.0049286308
0.0049054078
0.0048821787
0.0048588044
0.0048353771
0.0048120535
0.0047889535
0.0047661448
0.004743694
0.0047215368
0.0046994714
0.0046773902
0.0046553481
0.0046334651
0.0046118246
0.0045904991
0.0045694316
0.0045484777
0.0045275785
0.0045067882
0.0044861851
0.0044658515
0.0044457497
0.0044257752
0.0044058909
0.0043861356
0.0043665821
0.004347239
0.0043280377
0.0043089196
0.0042899315
0.0042706942
0.0042535883
0.0042234247
2.3711183e-06
2.3571304e-06
2.3429489e-06
2.3284824e-06
2.3137033e-06
2.2986034e-06
2.2831814e-06
2.2674298e-06
2.2512899e-06
2.2348976e-06
2.2176556e-06
2.2024315e-06
2.177231e-06
2.1866796e-06
2.567421e-06
4.9210787e-06
1.3702348e-05
3.2505534e-05
6.3208028e-05
0.00010491478
0.00015474608
0.00020921349
0.00026562788
0.00032193312
0.00038067335
0.00044378084
0.00051333525
0.00059592171
0.00069509984
0.0008178176
0.00097814569
0.0011606177
0.0013591169
0.0015718608
0.0017975633
0.0020341795
0.0022800253
0.0025339127
0.0027864129
0.003029897
0.003258242
0.0034643966
0.0036444509
0.0038002635
0.0039355815
0.0040542395
0.0041557024
0.0042397259
0.0043076916
0.0043617976
0.0043999279
0.004426742
0.0044460407
0.0044599628
0.0044695306
0.0044753751
0.004478403
0.0044795317
0.0044792881
0.0044778021
0.0044752528
0.0044718324
0.0044676772
0.0044629558
0.0044578003
0.0044522488
0.0044463177
0.0044396725
0.0044320606
0.0044235917
0.004414477
0.004404868
0.0043948708
0.0043845685
0.0043740651
0.0043632371
0.0043518625
0.0043399436
0.0043276363
0.0043150936
0.0043024026
0.0042896605
0.0042767617
0.004263554
0.0042500364
0.0042363217
0.004222514
0.004208719
0.0041948614
0.0041808257
0.0041666122
0.0041523004
0.0041379926
0.0041236927
0.0041093038
0.0040948286
0.004080229
0.0040655542
0.0040521243
0.00402856
2.4686648e-06
2.4537831e-06
2.4386512e-06
2.4232019e-06
2.4074217e-06
2.3913075e-06
2.3748594e-06
2.3580784e-06
2.3409643e-06
2.3235154e-06
2.3057437e-06
2.2875212e-06
2.2693263e-06
2.2498841e-06
2.2324457e-06
2.2093557e-06
2.219103e-06
2.2977987e-06
2.6289165e-06
3.5002631e-06
5.1446163e-06
7.70866e-06
1.1278699e-05
1.5919259e-05
2.1734902e-05
2.8983785e-05
3.7990268e-05
4.9292947e-05
6.3624967e-05
8.1942889e-05
0.00010596525
0.00013764216
0.00018005044
0.00023556655
0.00030691983
0.00039763191
0.00051326987
0.0006603062
0.00082805045
0.0010135773
0.0012197373
0.0014475948
0.0016929271
0.0019416085
0.0021854047
0.0024185801
0.0026354592
0.0028304161
0.0030041395
0.0031572229
0.0032908954
0.0034088373
0.0035090197
0.00359329
0.0036639317
0.0037232465
0.0037740029
0.0038178204
0.0038541413
0.0038847658
0.0039110152
0.0039338875
0.0039541246
0.0039722039
0.0039882955
0.0040024998
0.0040149381
0.004025681
0.0040347221
0.0040421881
0.0040482365
0.0040530009
0.0040566229
0.0040592302
0.0040609476
0.0040616343
0.0040611609
0.0040596669
0.0040573488
0.0040543461
0.0040507425
0.0040466573
0.0040419432
0.0040364909
0.0040303849
0.0040237778
0.0040167761
0.0040094953
0.0040018179
0.0039936506
0.003985048
0.0039761208
0.0039669853
0.0039576262
0.0039479373
0.0039379716
0.003927671
0.0039173071
0.0039074908
0.0038900754
2.5019793e-06
2.4870623e-06
2.4719241e-06
2.4564799e-06
2.4407094e-06
2.4246081e-06
2.4081756e-06
2.3914122e-06
2.3743192e-06
2.3568977e-06
2.3391495e-06
2.3210756e-06
2.3026754e-06
2.2840036e-06
2.2645459e-06
2.2447071e-06
2.2247779e-06
2.2052137e-06
2.1859165e-06
2.1677048e-06
2.1524529e-06
2.1439746e-06
2.1484214e-06
2.1757547e-06
2.2404333e-06
2.3619474e-06
2.5653158e-06
2.8836837e-06
3.3633576e-06
4.0690527e-06
5.1015338e-06
6.6138495e-06
8.8486526e-06
1.2202467e-05
1.7286109e-05
2.4987162e-05
3.6705125e-05
5.423787e-05
8.1235185e-05
0.00012113949
0.0001774952
0.00025522297
0.00036129362
0.00050361541
0.00067131941
0.00085811608
0.0010645938
0.0012912432
0.0015239495
0.0017549326
0.0019771895
0.002185331
0.0023736515
0.0025429712
0.0026940816
0.0028286732
0.0029504586
0.0030572251
0.003149418
0.0032290657
0.0032986813
0.003360527
0.0034159393
0.0034654983
0.0035096948
0.0035492833
0.0035850763
0.0036168918
0.0036450546
0.0036702363
0.0036928123
0.0037130898
0.0037313159
0.0037476557
0.003762231
0.0037751007
0.0037863058
0.0037959823
0.0038042881
0.0038113496
0.0038172739
0.0038222007
0.0038259897
0.0038286294
0.0038302739
0.0038310795
0.0038311426
0.0038305833
0.0038292542
0.0038271224
0.0038242999
0.0038209126
0.0038170774
0.0038127538
0.0038078476
0.003802464
0.0037965457
0.0037905052
0.0037843497
0.0037730279
2.4931976e-06
2.4784092e-06
2.4634083e-06
2.4481082e-06
2.432488e-06
2.4165431e-06
2.400273e-06
2.3836785e-06
2.3667614e-06
2.349524e-06
2.3319701e-06
2.3141059e-06
2.2959422e-06
2.277505e-06
2.2587939e-06
2.2398278e-06
2.2205578e-06
2.2007203e-06
2.1805456e-06
2.1601386e-06
2.1396227e-06
2.1189363e-06
2.0981415e-06
2.0773371e-06
2.0564836e-06
2.0356748e-06
2.0150908e-06
1.9950255e-06
1.9759228e-06
1.9585868e-06
1.9444116e-06
1.9357145e-06
1.9367222e-06
1.9553265e-06
2.0066144e-06
2.118199e-06
2.3441764e-06
2.7745978e-06
3.5915927e-06
5.1074627e-06
7.8420328e-06
1.2677603e-05
2.1254825e-05
3.5901274e-05
6.1723902e-05
0.0001033983
0.0001654353
0.00025426323
0.00037783667
0.00053094365
0.00070698081
0.00090033638
0.0011126875
0.0013313577
0.0015461265
0.0017506428
0.0019413157
0.0021147882
0.0022735663
0.0024182466
0.0025499653
0.0026693668
0.0027753233
0.0028694051
0.0029534876
0.003029512
0.0030985989
0.0031607267
0.0032161301
0.0032657871
0.0033106903
0.0033514853
0.0033885209
0.0034220999
0.0034526001
0.0034799907
0.0035045328
0.0035266982
0.0035467299
0.0035648151
0.0035811215
0.003595798
0.0036088826
0.0036204279
0.0036305734
0.0036394516
0.0036471608
0.0036538287
0.0036593339
0.0036637269
0.0036671512
0.0036697275
0.0036715665
0.0036726141
0.0036728153
0.0036723245
0.0036710858
0.003669609
0.0036673389
0.003662388
2.488748e-06
2.473968e-06
2.4589716e-06
2.4436741e-06
2.4280553e-06
2.4121108e-06
2.3958402e-06
2.3792443e-06
2.3623247e-06
2.3450832e-06
2.3275225e-06
2.3096465e-06
2.2914616e-06
2.2729766e-06
2.2541999e-06
2.2351376e-06
2.2157946e-06
2.1961688e-06
2.1762603e-06
2.156069e-06
2.1355925e-06
2.1148167e-06
2.0936957e-06
2.0721888e-06
2.050422e-06
2.02844e-06
2.0062744e-06
1.9839562e-06
1.9615492e-06
1.9390602e-06
1.9164592e-06
1.8937748e-06
1.8710853e-06
1.848467e-06
1.8258924e-06
1.8034806e-06
1.7815155e-06
1.7605673e-06
1.7417924e-06
1.7281912e-06
1.7266653e-06
1.7525601e-06
1.8470993e-06
2.0954635e-06
2.7189944e-06
4.1638477e-06
7.1719385e-06
1.3201912e-05
2.4594554e-05
4.6329958e-05
8.442228e-05
0.00014363436
0.0002311018
0.00035420669
0.00050374609
0.00067537923
0.00086268958
0.0010661079
0.0012715312
0.0014691807
0.0016548707
0.0018266733
0.0019840909
0.0021314483
0.0022682079
0.0023950848
0.0025096196
0.0026126624
0.0027054983
0.0027897364
0.0028663354
0.0029357229
0.0029984086
0.0030551987
0.0031069878
0.0031540079
0.00319647
0.0032349248
0.0032699076
0.0033018069
0.0033308975
0.0033574356
0.0033813088
0.003402884
0.0034224747
0.003440244
0.003456329
0.0034708704
0.0034839131
0.0034955191
0.0035058145
0.0035149104
0.0035229149
0.0035297999
0.0035355716
0.0035404114
0.0035442553
0.0035476937
0.0035496202
0.0035514949
2.4895933e-06
2.4747988e-06
2.4597866e-06
2.4444722e-06
2.4288355e-06
2.4128723e-06
2.396582e-06
2.3799656e-06
2.3630244e-06
2.3457601e-06
2.3281751e-06
2.3102724e-06
2.2920563e-06
2.2735314e-06
2.2547022e-06
2.2355732e-06
2.2161498e-06
2.196439e-06
2.1764476e-06
2.156182e-06
2.1356476e-06
2.11485e-06
2.0937939e-06
2.0724821e-06
2.0509198e-06
2.0291137e-06
2.0070709e-06
1.9847983e-06
1.9623031e-06
1.9395904e-06
1.9166586e-06
1.8935e-06
1.8700806e-06
1.8463915e-06
1.8225578e-06
1.7986264e-06
1.774638e-06
1.7506352e-06
1.7267661e-06
1.702927e-06
1.6791503e-06
1.6556888e-06
1.6325014e-06
1.6099239e-06
1.5889107e-06
1.5724852e-06
1.5689344e-06
1.6039894e-06
1.7452343e-06
2.1868456e-06
3.420257e-06
6.2630761e-06
1.2470235e-05
2.4688294e-05
4.9559201e-05
9.31143e-05
0.00016020746
0.00026171748
0.00039393536
0.00054988054
0.00072407198
0.00091157687
0.001108098
0.0012977315
0.0014761736
0.0016428168
0.0017971105
0.0019434741
0.0020812483
0.002210111
0.0023272643
0.0024335528
0.0025303691
0.0026190066
0.0027002095
0.0027740254
0.0028407859
0.0029013319
0.0029564515
0.003006648
0.0030523678
0.0030941388
0.0031320751
0.0031665395
0.003197948
0.0032266353
0.0032528631
0.0032768473
0.0032984857
0.0033181314
0.0033360123
0.0033522599
0.0033669932
0.0033802978
0.0033922196
0.0034029183
0.0034123171
0.003421095
0.0034275999
0.0034368855
2.4910644e-06
2.4762611e-06
2.4612402e-06
2.445917e-06
2.4302713e-06
2.4142989e-06
2.3979993e-06
2.3813734e-06
2.3644225e-06
2.3471486e-06
2.3295538e-06
2.3116413e-06
2.2934152e-06
2.2748804e-06
2.2560418e-06
2.236904e-06
2.2174718e-06
2.1977509e-06
2.177747e-06
2.1574663e-06
2.136915e-06
2.1160994e-06
2.0950267e-06
2.0737046e-06
2.0521406e-06
2.0303426e-06
2.0083183e-06
1.9860757e-06
1.9636229e-06
1.9409681e-06
1.9181199e-06
1.8950868e-06
1.8718765e-06
1.8484951e-06
1.8249519e-06
1.8012572e-06
1.7774221e-06
1.7534553e-06
1.7293676e-06
1.7051521e-06
1.6807963e-06
1.6561424e-06
1.6314199e-06
1.6067141e-06
1.5821396e-06
1.5578582e-06
1.5337343e-06
1.5101302e-06
1.4870216e-06
1.465029e-06
1.4468386e-06
1.4400427e-06
1.4763879e-06
1.6320418e-06
2.2022074e-06
3.8302568e-06
7.7582631e-06
1.6296439e-05
3.5060024e-05
7.0945442e-05
0.00012986452
0.0002202677
0.00034478503
0.00049335888
0.00066030753
0.00083892389
0.0010263557
0.0012078031
0.0013784174
0.0015384524
0.0016878946
0.0018308354
0.0019663572
0.0020933153
0.0022097031
0.0023163426
0.0024142578
0.002504144
0.0025862675
0.0026609812
0.0027290388
0.0027912903
0.0028479968
0.0028994899
0.0029463455
0.0029891241
0.0030282352
0.0030640418
0.0030965765
0.0031262296
0.0031533428
0.0031781572
0.0032008795
0.0032215287
0.0032402841
0.0032574281
0.0032728986
0.0032874999
0.0032990383
0.0033164334
2.4923868e-06
2.4775762e-06
2.4625478e-06
2.4472169e-06
2.4315635e-06
2.4155832e-06
2.3992756e-06
2.3826415e-06
2.3656824e-06
2.3484002e-06
2.3307972e-06
2.3128765e-06
2.294642e-06
2.2760989e-06
2.2572521e-06
2.2381065e-06
2.2186669e-06
2.198939e-06
2.1789284e-06
2.1586412e-06
2.1380834e-06
2.1172614e-06
2.0961818e-06
2.074852e-06
2.0532795e-06
2.0314723e-06
2.0094386e-06
1.9871869e-06
1.9647263e-06
1.942066e-06
1.9192156e-06
1.8961851e-06
1.8729848e-06
1.8496255e-06
1.8261177e-06
1.8024721e-06
1.7786992e-06
1.7548097e-06
1.7308139e-06
1.706722e-06
1.6825449e-06
1.6582868e-06
1.6339562e-06
1.6095631e-06
1.5851188e-06
1.5606206e-06
1.5360737e-06
1.511211e-06
1.4863487e-06
1.461599e-06
1.4373219e-06
1.4132615e-06
1.38985e-06
1.3670284e-06
1.3458502e-06
1.3298565e-06
1.3354088e-06
1.4084647e-06
1.7481675e-06
2.9079504e-06
6.1006415e-06
1.3371733e-05
3.0578653e-05
6.5167255e-05
0.00012357225
0.00021508022
0.00033931266
0.00048741067
0.00065246812
0.00082701851
0.0010070335
0.0011792281
0.001340817
0.001493051
0.0016367805
0.001775348
0.0019072037
0.0020300684
0.0021432101
0.0022474289
0.0023436274
0.0024321933
0.0025131532
0.0025869555
0.0026543461
0.0027158524
0.0027719295
0.0028231775
0.0028698788
0.0029124189
0.0029512459
0.0029867764
0.0030193664
0.0030491059
0.0030762212
0.0031010937
0.0031237441
0.0031451584
0.0031623194
0.0031886217
2.493866e-06
2.4790464e-06
2.4640088e-06
2.4486684e-06
2.4330053e-06
2.417015e-06
2.4006971e-06
2.3840527e-06
2.367083e-06
2.3497899e-06
2.3321758e-06
2.3142438e-06
2.2959976e-06
2.277442e-06
2.258582e-06
2.2394225e-06
2.2199687e-06
2.200226e-06
2.1802004e-06
2.1598979e-06
2.1393246e-06
2.118487e-06
2.0973919e-06
2.0760465e-06
2.0544583e-06
2.0326352e-06
2.0105855e-06
1.9883178e-06
1.965841e-06
1.9431643e-06
1.9202973e-06
1.89725e-06
1.8740327e-06
1.8506557e-06
1.82713e-06
1.8034666e-06
1.779677e-06
1.7557726e-06
1.7317651e-06
1.7076666e-06
1.6834891e-06
1.6592454e-06
1.634948e-06
1.6106085e-06
1.5862383e-06
1.5618469e-06
1.5374466e-06
1.5130377e-06
1.4886267e-06
1.464223e-06
1.4398272e-06
1.4154601e-06
1.390802e-06
1.366172e-06
1.3417882e-06
1.3179046e-06
1.2944416e-06
1.2716855e-06
1.2501533e-06
1.2315956e-06
1.2296796e-06
1.2796518e-06
1.5688982e-06
2.6692405e-06
5.9613547e-06
1.3716567e-05
3.324698e-05
7.2136411e-05
0.0001382269
0.00023829115
0.00037021709
0.00052343596
0.00069004041
0.00086215891
0.0010340613
0.0011954824
0.001347745
0.0014920987
0.0016308103
0.0017639797
0.001890089
0.0020070662
0.0021154162
0.0022158696
0.0023086338
0.0023936462
0.0024713706
0.002542624
0.0026077678
0.0026671183
0.0027212319
0.0027706693
0.002815915
0.0028572173
0.0028948823
0.0029293802
0.0029608459
0.002990518
0.0030146038
0.0030514472
2.4957441e-06
2.4809128e-06
2.4658631e-06
2.4505104e-06
2.4348346e-06
2.4188312e-06
2.4025001e-06
2.3858419e-06
2.3688583e-06
2.351551e-06
2.3339224e-06
2.3159754e-06
2.2977137e-06
2.2791418e-06
2.2602646e-06
2.2410871e-06
2.2216145e-06
2.2018523e-06
2.1818065e-06
2.1614833e-06
2.1408888e-06
2.1200296e-06
2.0989125e-06
2.0775448e-06
2.0559341e-06
2.0340883e-06
2.0120158e-06
1.9897251e-06
1.9672252e-06
1.9445254e-06
1.9216353e-06
1.8985648e-06
1.8753242e-06
1.8519238e-06
1.8283746e-06
1.8046875e-06
1.7808738e-06
1.7569451e-06
1.7329131e-06
1.7087897e-06
1.6845871e-06
1.6603175e-06
1.6359933e-06
1.611627e-06
1.5872312e-06
1.5628184e-06
1.5384011e-06
1.513993e-06
1.4896063e-06
1.4652531e-06
1.4409416e-06
1.4166843e-06
1.3924788e-06
1.3683295e-06
1.3442412e-06
1.3202257e-06
1.2962009e-06
1.2719919e-06
1.2479099e-06
1.2244661e-06
1.2014295e-06
1.1791533e-06
1.1581299e-06
1.139492e-06
1.1397188e-06
1.1952144e-06
1.5622752e-06
3.0007445e-06
7.2262657e-06
1.8122392e-05
4.4684127e-05
9.476924e-05
0.00017900287
0.00029490123
0.0004392244
0.000599544
0.00076632474
0.00093337796
0.0010933194
0.0012441785
0.00138779
0.0015250796
0.0016580189
0.0017852229
0.0019038754
0.0020142386
0.0021168861
0.0022120628
0.0022996147
0.0023798406
0.0024533886
0.0025206642
0.0025821413
0.002638296
0.0026895311
0.0027363526
0.0027790073
0.0028190322
0.002851794
0.0029015891
2.4978264e-06
2.4829824e-06
2.46792e-06
2.4525542e-06
2.4368649e-06
2.4208478e-06
2.4045026e-06
2.3878302e-06
2.370832e-06
2.3535099e-06
2.3358662e-06
2.3179039e-06
2.2996266e-06
2.2810385e-06
2.2621446e-06
2.2429499e-06
2.2234596e-06
2.2036793e-06
2.1836149e-06
2.1632726e-06
2.1426585e-06
2.1217793e-06
2.1006418e-06
2.0792534e-06
2.0576216e-06
2.0357544e-06
2.0136602e-06
1.9913475e-06
1.9688253e-06
1.946103e-06
1.9231902e-06
1.9000969e-06
1.8768331e-06
1.8534096e-06
1.829837e-06
1.8061264e-06
1.7822891e-06
1.7583367e-06
1.7342808e-06
1.7101334e-06
1.6859066e-06
1.6616125e-06
1.6372634e-06
1.6128719e-06
1.5884502e-06
1.564011e-06
1.5395667e-06
1.5151299e-06
1.4907132e-06
1.4663291e-06
1.4419901e-06
1.4177082e-06
1.3934968e-06
1.369368e-06
1.3453321e-06
1.3213975e-06
1.2975711e-06
1.27385e-06
1.2502321e-06
1.2267316e-06
1.2033256e-06
1.1796947e-06
1.156195e-06
1.1333969e-06
1.1110624e-06
1.0896171e-06
1.0692664e-06
1.0540186e-06
1.0606435e-06
1.1866296e-06
1.8449777e-06
4.3737029e-06
1.1272427e-05
3.0518232e-05
7.1281427e-05
0.00014430753
0.00025132694
0.00038806949
0.00054436256
0.00070783387
0.00087021906
0.0010273373
0.0011755181
0.00131709
0.0014522217
0.0015838593
0.0017103726
0.0018291176
0.0019400257
0.0020435107
0.0021396136
0.0022280906
0.0023093664
0.0023840119
0.0024523181
0.0025147669
0.0025716711
0.0026248231
0.002668563
0.0027346751
2.4998456e-06
2.4849899e-06
2.4699155e-06
2.4545374e-06
2.4388357e-06
2.4228059e-06
2.4064478e-06
2.3897622e-06
2.3727506e-06
2.3554149e-06
2.3377576e-06
2.3197814e-06
2.30149e-06
2.2828877e-06
2.2639793e-06
2.2447699e-06
2.2252646e-06
2.2054691e-06
2.1853892e-06
2.165031e-06
2.1444009e-06
2.1235053e-06
2.1023511e-06
2.0809457e-06
2.0592966e-06
2.0374119e-06
2.0152999e-06
1.9929692e-06
1.9704287e-06
1.9476879e-06
1.9247564e-06
1.901644e-06
1.8783611e-06
1.8549182e-06
1.831326e-06
1.8075957e-06
1.7837386e-06
1.7597661e-06
1.7356901e-06
1.7115224e-06
1.6872751e-06
1.6629604e-06
1.6385907e-06
1.6141784e-06
1.5897358e-06
1.5652755e-06
1.54081e-06
1.5163517e-06
1.4919131e-06
1.4675065e-06
1.4431442e-06
1.4188384e-06
1.3946012e-06
1.3704446e-06
1.3463805e-06
1.3224205e-06
1.2985761e-06
1.2748596e-06
1.2512818e-06
1.2278491e-06
1.2045699e-06
1.1814377e-06
1.1584446e-06
1.1356128e-06
1.1128986e-06
1.0899758e-06
1.0673173e-06
1.0453602e-06
1.0239592e-06
1.0035796e-06
9.8509178e-07
9.7632712e-07
1.0267731e-06
1.3932856e-06
3.0482895e-06
8.1977132e-06
2.3939031e-05
5.9984107e-05
0.00012799616
0.00023137801
0.0003643847
0.00051904482
0.00067993026
0.00083794213
0.00099107015
0.001135728
0.0012743372
0.0014070609
0.0015366244
0.0016615189
0.0017791032
0.0018892228
0.0019922185
0.0020879166
0.0021761436
0.0022573772
0.0023317862
0.0024012391
0.0024586733
0.0025453141
2.5017381e-06
2.4868714e-06
2.4717858e-06
2.4563964e-06
2.4406831e-06
2.4246415e-06
2.4082713e-06
2.3915735e-06
2.3745494e-06
2.3572012e-06
2.3395311e-06
2.3215421e-06
2.3032377e-06
2.2846222e-06
2.2657004e-06
2.2464773e-06
2.2269582e-06
2.2071486e-06
2.1870544e-06
2.1666817e-06
2.1460366e-06
2.125126e-06
2.1039565e-06
2.0825356e-06
2.0608708e-06
2.0389702e-06
2.0168421e-06
1.9944951e-06
1.9719382e-06
1.9491807e-06
1.9262324e-06
1.9031031e-06
1.8798031e-06
1.856343e-06
1.8327335e-06
1.8089858e-06
1.7851111e-06
1.761121e-06
1.7370272e-06
1.7128417e-06
1.6885766e-06
1.664244e-06
1.6398563e-06
1.6154259e-06
1.5909652e-06
1.5664868e-06
1.5420032e-06
1.5175268e-06
1.49307e-06
1.4686453e-06
1.4442648e-06
1.4199407e-06
1.3956851e-06
1.3715098e-06
1.3474263e-06
1.3234463e-06
1.2995809e-06
1.2758412e-06
1.2522383e-06
1.2287829e-06
1.2054849e-06
1.1823562e-06
1.1594066e-06
1.1366409e-06
1.1140664e-06
1.0916708e-06
1.0694512e-06
1.0474202e-06
1.0254754e-06
1.0033955e-06
9.8188437e-07
9.6091103e-07
9.4091976e-07
9.2234614e-07
9.084875e-07
9.3232786e-07
1.1977231e-06
2.4942787e-06
6.95268e-06
2.1794013e-05
5.7062475e-05
0.00012590951
0.00023058193
0.00036408807
0.00051884016
0.00067732032
0.00083084169
0.00097888545
0.00111953
0.0012547572
0.0013847053
0.0015118683
0.0016344526
0.0017499146
0.001858326
0.0019599005
0.0020539597
0.0021423175
0.0022159992
0.0023276351
2.503509e-06
2.488632e-06
2.473536e-06
2.458136e-06
2.4424118e-06
2.4263592e-06
2.4099777e-06
2.3932684e-06
2.3762328e-06
2.3588727e-06
2.3411907e-06
2.3231897e-06
2.3048732e-06
2.2862453e-06
2.2673109e-06
2.248075e-06
2.2285427e-06
2.2087198e-06
2.188612e-06
2.1682253e-06
2.1475661e-06
2.1266411e-06
2.105457e-06
2.0840213e-06
2.0623415e-06
2.0404256e-06
2.0182821e-06
1.9959195e-06
1.9733469e-06
1.9505736e-06
1.9276093e-06
1.9044639e-06
1.8811477e-06
1.8576713e-06
1.8340454e-06
1.8102811e-06
1.7863899e-06
1.7623831e-06
1.7382727e-06
1.7140704e-06
1.6897885e-06
1.6654391e-06
1.6410345e-06
1.6165873e-06
1.5921097e-06
1.5676145e-06
1.543114e-06
1.5186207e-06
1.4941471e-06
1.4697056e-06
1.4453084e-06
1.4209677e-06
1.3966955e-06
1.3725036e-06
1.3484037e-06
1.3244073e-06
1.3005255e-06
1.2767693e-06
1.2531494e-06
1.2296764e-06
1.2063602e-06
1.183211e-06
1.1602387e-06
1.1374525e-06
1.1148615e-06
1.0924762e-06
1.0703044e-06
1.0483498e-06
1.0266149e-06
1.0050855e-06
9.8375361e-07
9.6267124e-07
9.4134598e-07
9.2034075e-07
9.000437e-07
8.8049878e-07
8.6246767e-07
8.4723832e-07
8.6365383e-07
1.1098174e-06
2.363646e-06
6.9381325e-06
2.3162064e-05
6.1688307e-05
0.0001369901
0.00024722207
0.00038469114
0.00053955326
0.00069473178
0.00084323231
0.00098631606
0.0011228057
0.0012543484
0.0013816017
0.0015060193
0.0016255922
0.0017380947
0.0018458135
0.0019368527
0.0020767563
2.5051672e-06
2.4902806e-06
2.4751749e-06
2.459765e-06
2.4440306e-06
2.4279676e-06
2.4115757e-06
2.3948556e-06
2.3778091e-06
2.3604381e-06
2.342745e-06
2.3247327e-06
2.3064049e-06
2.2877655e-06
2.2688193e-06
2.2495712e-06
2.2300267e-06
2.2101912e-06
2.1900705e-06
2.1696707e-06
2.1489982e-06
2.1280595e-06
2.1068616e-06
2.0854118e-06
2.0637177e-06
2.0417874e-06
2.0196293e-06
1.9972519e-06
1.9746644e-06
1.951876e-06
1.9288965e-06
1.9057358e-06
1.8824042e-06
1.8589122e-06
1.8352707e-06
1.8114908e-06
1.7875837e-06
1.7635612e-06
1.7394348e-06
1.7152167e-06
1.6909188e-06
1.6665534e-06
1.6421328e-06
1.6176695e-06
1.593176e-06
1.5686647e-06
1.5441481e-06
1.5196389e-06
1.4951493e-06
1.4706918e-06
1.4462787e-06
1.4219221e-06
1.3976341e-06
1.3734265e-06
1.349311e-06
1.325299e-06
1.3014017e-06
1.2776301e-06
1.253995e-06
1.2305068e-06
1.2071756e-06
1.1840113e-06
1.1610234e-06
1.1382211e-06
1.1156132e-06
1.0932086e-06
1.0710157e-06
1.0490426e-06
1.0272967e-06
1.005788e-06
9.8451877e-07
9.6349721e-07
9.4270604e-07
9.2212514e-07
9.0181468e-07
8.8143911e-07
8.6115976e-07
8.4164723e-07
8.2273478e-07
8.0564174e-07
7.901383e-07
8.1120492e-07
1.1084281e-06
2.6133245e-06
8.2861454e-06
2.8413746e-05
7.5256333e-05
0.00016089318
0.00028036357
0.00042349576
0.0005781304
0.0007286111
0.00087158678
0.0010095035
0.0011419096
0.0012697928
0.0013941752
0.0015176998
0.0016235954
0.0017914851
2.5067202e-06
2.4918246e-06
2.4767098e-06
2.4612906e-06
2.4455468e-06
2.4294741e-06
2.4130723e-06
2.3963423e-06
2.3792857e-06
2.3619044e-06
2.3442009e-06
2.3261782e-06
2.3078397e-06
2.2891895e-06
2.2702323e-06
2.250973e-06
2.2314169e-06
2.2115696e-06
2.1914368e-06
2.1710247e-06
2.1503395e-06
2.129388e-06
2.108177e-06
2.0867139e-06
2.0650064e-06
2.0430624e-06
2.0208905e-06
1.9984991e-06
1.9758975e-06
1.9530949e-06
1.930101e-06
1.9069258e-06
1.8835796e-06
1.8600729e-06
1.8364167e-06
1.8126219e-06
1.7887e-06
1.7646625e-06
1.7405212e-06
1.716288e-06
1.691975e-06
1.6675945e-06
1.6431588e-06
1.6186804e-06
1.5941717e-06
1.5696453e-06
1.5451136e-06
1.5205892e-06
1.4960845e-06
1.471612e-06
1.4471838e-06
1.4228122e-06
1.3985092e-06
1.3742867e-06
1.3501563e-06
1.3261295e-06
1.3022175e-06
1.2784314e-06
1.2547817e-06
1.2312791e-06
1.2079336e-06
1.1847551e-06
1.1617531e-06
1.1389369e-06
1.1163152e-06
1.0938967e-06
1.0716894e-06
1.0497012e-06
1.0279394e-06
1.0064115e-06
9.8512466e-07
9.6408442e-07
9.4330006e-07
9.2277541e-07
9.0251451e-07
8.8250953e-07
8.6272918e-07
8.4323158e-07
8.2375645e-07
8.0429515e-07
7.8560374e-07
7.6751746e-07
7.5159083e-07
7.3717734e-07
7.7934987e-07
1.2300755e-06
3.3711431e-06
1.2395462e-05
4.0106887e-05
0.00010105595
0.00020054246
0.0003305339
0.00047831871
0.00063025252
0.00077499845
0.00091301871
0.0010457
0.0011762616
0.0012889429
0.0014781697
2.5081748e-06
2.4932707e-06
2.4781474e-06
2.4627196e-06
2.4469669e-06
2.4308853e-06
2.4144743e-06
2.3977349e-06
2.3806689e-06
2.363278e-06
2.3455648e-06
2.3275323e-06
2.3091839e-06
2.2905236e-06
2.2715561e-06
2.2522863e-06
2.2327194e-06
2.212861e-06
2.1927168e-06
2.1722931e-06
2.151596e-06
2.1306323e-06
2.109409e-06
2.0879334e-06
2.0662132e-06
2.0442563e-06
2.0220713e-06
1.9996668e-06
1.9770518e-06
1.9542357e-06
1.9312282e-06
1.9080394e-06
1.8846794e-06
1.8611589e-06
1.8374887e-06
1.81368e-06
1.789744e-06
1.7656925e-06
1.741537e-06
1.7172896e-06
1.6929624e-06
1.6685677e-06
1.6441178e-06
1.6196251e-06
1.5951021e-06
1.5705614e-06
1.5460155e-06
1.5214768e-06
1.4969579e-06
1.4724712e-06
1.4480288e-06
1.4236431e-06
1.399326e-06
1.3750895e-06
1.3509451e-06
1.3269044e-06
1.3029785e-06
1.2791786e-06
1.2555152e-06
1.231999e-06
1.20864e-06
1.185448e-06
1.1624328e-06
1.1396034e-06
1.1169687e-06
1.0945372e-06
1.0723171e-06
1.0503162e-06
1.028542e-06
1.0070013e-06
9.8570096e-07
9.6464718e-07
9.4384603e-07
9.2330361e-07
9.0302467e-07
8.8301601e-07
8.6328243e-07
8.4382506e-07
8.2464218e-07
8.0568803e-07
7.8704888e-07
7.6837234e-07
7.4981687e-07
7.3190905e-07
7.1511571e-07
6.9960645e-07
6.9249726e-07
8.0342104e-07
1.6385526e-06
5.2747518e-06
2.06796e-05
6.1804323e-05
0.00014181776
0.00025747038
0.00039742119
0.00054716191
0.00069304958
0.00083379888
0.00095461024
0.0011538896
2.5095371e-06
2.4946253e-06
2.479494e-06
2.4640581e-06
2.4482972e-06
2.4322071e-06
2.4157875e-06
2.3990395e-06
2.3819646e-06
2.3645648e-06
2.3468426e-06
2.3288009e-06
2.3104432e-06
2.2917736e-06
2.2727964e-06
2.2535167e-06
2.2339397e-06
2.2140709e-06
2.1939161e-06
2.1734814e-06
2.1527731e-06
2.131798e-06
2.1105631e-06
2.0890756e-06
2.0673434e-06
2.0453744e-06
2.023177e-06
2.00076e-06
1.9781324e-06
1.9553036e-06
1.9322833e-06
1.9090816e-06
1.8857086e-06
1.862175e-06
1.8384917e-06
1.8146698e-06
1.7907205e-06
1.7666557e-06
1.7424869e-06
1.7182261e-06
1.6938856e-06
1.6694774e-06
1.6450141e-06
1.620508e-06
1.5959716e-06
1.5714174e-06
1.5468581e-06
1.522306e-06
1.4977737e-06
1.4732736e-06
1.4488179e-06
1.4244189e-06
1.4000885e-06
1.3758387e-06
1.3516812e-06
1.3276274e-06
1.3036885e-06
1.2798756e-06
1.2561994e-06
1.2326703e-06
1.2092986e-06
1.186094e-06
1.1630662e-06
1.1402244e-06
1.1175774e-06
1.0951337e-06
1.0729016e-06
1.0508888e-06
1.0291027e-06
1.0075504e-06
9.8623855e-07
9.6517342e-07
9.4436088e-07
9.2380644e-07
9.0351521e-07
8.8349199e-07
8.6374173e-07
8.4426808e-07
8.2507642e-07
8.0617056e-07
7.8755165e-07
7.6921653e-07
7.5110379e-07
7.3336382e-07
7.1532756e-07
6.9788008e-07
6.8083988e-07
6.6566282e-07
6.4994171e-07
6.641809e-07
9.65917e-07
2.7551275e-06
1.0653693e-05
3.7654011e-05
0.00010024772
0.00020127617
0.0003317962
0.00048006607
0.00061397456
0.00082875316
2.5108134e-06
2.4958942e-06
2.4807556e-06
2.465312e-06
2.4495434e-06
2.4334455e-06
2.417018e-06
2.4002618e-06
2.3831787e-06
2.3657705e-06
2.3480399e-06
2.3299896e-06
2.3116233e-06
2.2929449e-06
2.2739587e-06
2.2546698e-06
2.2350832e-06
2.2152047e-06
2.1950398e-06
2.1745948e-06
2.153876e-06
2.1328902e-06
2.1116443e-06
2.0901457e-06
2.0684021e-06
2.0464216e-06
2.0242126e-06
2.0017838e-06
1.9791443e-06
1.9563035e-06
1.933271e-06
1.9100571e-06
1.8866718e-06
1.8631259e-06
1.8394301e-06
1.8155957e-06
1.791634e-06
1.7675566e-06
1.7433752e-06
1.7191019e-06
1.6947487e-06
1.6703279e-06
1.6458519e-06
1.6213331e-06
1.5967841e-06
1.5722173e-06
1.5476453e-06
1.5230806e-06
1.4985357e-06
1.4740229e-06
1.4495547e-06
1.4251432e-06
1.4008003e-06
1.3765381e-06
1.3523682e-06
1.328302e-06
1.3043509e-06
1.2805258e-06
1.2568374e-06
1.2332963e-06
1.2099126e-06
1.1866962e-06
1.1636566e-06
1.1408031e-06
1.1181445e-06
1.0956894e-06
1.0734459e-06
1.0514218e-06
1.0296246e-06
1.0080613e-06
9.8673863e-07
9.6566278e-07
9.4483968e-07
9.2427484e-07
9.0397335e-07
8.8393993e-07
8.6417892e-07
8.446943e-07
8.2548963e-07
8.0656889e-07
7.8793416e-07
7.6959116e-07
7.5153904e-07
7.3378764e-07
7.1630366e-07
6.9907373e-07
6.8214972e-07
6.6496848e-07
6.48511e-07
6.3282946e-07
6.1811969e-07
6.1006665e-07
7.0611767e-07
1.5557278e-06
5.6295255e-06
2.3291638e-05
7.0213302e-05
0.00016152417
0.00026844436
0.00049271464
2.5120098e-06
2.4970837e-06
2.4819381e-06
2.4664875e-06
2.4507118e-06
2.4346065e-06
2.4181715e-06
2.4014078e-06
2.3843169e-06
2.366901e-06
2.3491624e-06
2.3311043e-06
2.3127298e-06
2.2940431e-06
2.2750486e-06
2.255751e-06
2.2361555e-06
2.2162678e-06
2.1960935e-06
2.1756389e-06
2.1549102e-06
2.1339142e-06
2.1126579e-06
2.0911487e-06
2.0693944e-06
2.0474031e-06
2.0251831e-06
2.0027431e-06
1.9800924e-06
1.9572402e-06
1.9341963e-06
1.9109708e-06
1.8875739e-06
1.8640163e-06
1.8403088e-06
1.8164626e-06
1.7924891e-06
1.7683998e-06
1.7442066e-06
1.7199213e-06
1.6955562e-06
1.6711235e-06
1.6466356e-06
1.6221048e-06
1.5975439e-06
1.5729651e-06
1.5483812e-06
1.5238046e-06
1.4992478e-06
1.4747232e-06
1.4502431e-06
1.4258197e-06
1.4014652e-06
1.3771912e-06
1.3530096e-06
1.3289318e-06
1.3049691e-06
1.2811325e-06
1.2574327e-06
1.2338803e-06