/*--------------------------------*- C++ -*----------------------------------*\
  =========                 |
  \\      /  F ield         | OpenFOAM: The Open Source CFD Toolbox
   \\    /   O peration     | Website:  https://openfoam.org
    \\  /    A nd           | Version:  12
     \\/     M anipulation  |
\*---------------------------------------------------------------------------*/
FoamFile
{
    format      ascii;
    class       volScalarField;
    location    "200";
    object      k;
}
// * * * * * * * * * * * * * * * * * * * * * * * * * * * * * * * * * * * * * //

dimensions      [0 2 -2 0 0 0 0];

internalField   nonuniform List<scalar> 
13056
(
8.7766052e-05
6.5742677e-05
6.4236934e-05
6.401674e-05
6.3991716e-05
6.3971623e-05
6.3955411e-05
6.3946932e-05
6.3944645e-05
6.3946818e-05
6.3952447e-05
6.3961003e-05
6.3972207e-05
6.3985936e-05
6.4002182e-05
6.4021048e-05
6.4042777e-05
6.4067872e-05
6.4096885e-05
6.4134005e-05
6.4164167e-05
6.4318681e-05
6.3870212e-05
6.9548452e-05
8.7027349e-09
1.7665227e-08
3.1492057e-08
3.4970547e-08
3.3938392e-08
3.1958106e-08
3.017231e-08
2.8668132e-08
2.7371994e-08
2.6242374e-08
2.5250747e-08
2.4364593e-08
2.3547675e-08
2.2797355e-08
2.2109754e-08
2.1478082e-08
2.0895316e-08
2.0353975e-08
1.9849395e-08
1.9378418e-08
1.8936425e-08
1.852079e-08
1.8128276e-08
1.7756882e-08
1.7404735e-08
1.7069871e-08
1.6751234e-08
1.6447105e-08
1.6156049e-08
1.5877403e-08
1.5610045e-08
1.535293e-08
1.5105604e-08
1.4867334e-08
1.4637251e-08
1.4414944e-08
1.420002e-08
1.3991847e-08
1.3788897e-08
1.3591032e-08
1.339889e-08
1.3212048e-08
1.3030108e-08
1.2852875e-08
1.2680151e-08
1.2511624e-08
1.234697e-08
1.2186017e-08
1.2028662e-08
1.1874698e-08
1.1723857e-08
1.1575977e-08
1.1430964e-08
1.12887e-08
1.1149008e-08
1.1011706e-08
1.087669e-08
1.0743928e-08
1.0613312e-08
1.0484666e-08
1.0357873e-08
1.0232872e-08
1.0109614e-08
9.9879888e-09
9.8678473e-09
9.7491261e-09
9.6318402e-09
9.5159389e-09
9.4012953e-09
9.2878086e-09
9.1754393e-09
9.0641766e-09
8.9539424e-09
8.8446098e-09
8.7361194e-09
8.6284765e-09
8.5216209e-09
8.4154228e-09
8.3098086e-09
8.2047685e-09
8.1002486e-09
7.9961268e-09
7.8923243e-09
7.788823e-09
7.6855538e-09
7.5823928e-09
7.4792663e-09
7.3761261e-09
7.2728913e-09
7.1716321e-09
7.0754731e-09
6.985119e-09
6.8999686e-09
6.819433e-09
6.7427539e-09
6.6699215e-09
6.6006376e-09
6.5346125e-09
6.4716067e-09
6.4113922e-09
6.3537437e-09
6.29846e-09
6.2453741e-09
6.1943403e-09
6.145221e-09
6.0978367e-09
6.0521143e-09
6.0076164e-09
5.9648931e-09
5.9214564e-09
5.8833315e-09
5.8214374e-09
8.7754341e-05
6.5707106e-05
6.4199908e-05
6.3978854e-05
6.3953583e-05
6.3933389e-05
6.3917119e-05
6.39086e-05
6.3906284e-05
6.3908435e-05
6.3914048e-05
6.392259e-05
6.3933784e-05
6.3947505e-05
6.3963745e-05
6.3982606e-05
6.4004334e-05
6.4029429e-05
6.4058446e-05
6.4095576e-05
6.4125723e-05
6.4280524e-05
6.3829983e-05
6.9497035e-05
8.1375043e-08
5.3017934e-07
9.4520049e-07
1.0496124e-06
1.0186336e-06
9.5919323e-07
9.0559057e-07
8.6044066e-07
8.2153475e-07
7.8762734e-07
7.5786271e-07
7.312663e-07
7.0674814e-07
6.8422953e-07
6.6359379e-07
6.4463711e-07
6.2714871e-07
6.1090388e-07
5.9576219e-07
5.8162917e-07
5.6836601e-07
5.5589396e-07
5.4411576e-07
5.3297138e-07
5.224046e-07
5.1235639e-07
5.0279521e-07
4.936693e-07
4.849357e-07
4.7657442e-07
4.6855179e-07
4.6083646e-07
4.5341484e-07
4.4626488e-07
4.3936049e-07
4.326894e-07
4.2623982e-07
4.1999269e-07
4.1390256e-07
4.0796461e-07
4.0219831e-07
3.9659097e-07
3.9113072e-07
3.8581164e-07
3.8062782e-07
3.7556984e-07
3.7062806e-07
3.6579732e-07
3.6107445e-07
3.5645327e-07
3.5192575e-07
3.4748709e-07
3.431344e-07
3.3886413e-07
3.3467098e-07
3.3054954e-07
3.2649663e-07
3.2251133e-07
3.1859039e-07
3.147285e-07
3.1092221e-07
3.0716966e-07
3.0346941e-07
2.9981807e-07
2.9621122e-07
2.9264693e-07
2.8912564e-07
2.8564586e-07
2.8220377e-07
2.7879637e-07
2.7542247e-07
2.7208174e-07
2.6877182e-07
2.6548892e-07
2.6223126e-07
2.58999e-07
2.5579033e-07
2.5260134e-07
2.4942984e-07
2.4627554e-07
2.4313681e-07
2.4000997e-07
2.3689267e-07
2.3378438e-07
2.3068301e-07
2.2758484e-07
2.2448767e-07
2.2139005e-07
2.1828953e-07
2.1524831e-07
2.1236026e-07
2.0964655e-07
2.0708911e-07
2.0467017e-07
2.023671e-07
2.0017962e-07
1.9809874e-07
1.9611574e-07
1.9422346e-07
1.9241502e-07
1.9068365e-07
1.8902332e-07
1.87429e-07
1.8589633e-07
1.8442117e-07
1.8299812e-07
1.8162497e-07
1.802886e-07
1.7900553e-07
1.7770103e-07
1.7655602e-07
1.7469716e-07
8.7704206e-05
6.5576115e-05
6.4064681e-05
6.3840901e-05
6.3814819e-05
6.3794303e-05
6.3777852e-05
6.3769208e-05
6.3766799e-05
6.376888e-05
6.3774438e-05
6.3782936e-05
6.3794093e-05
6.3807784e-05
6.3823998e-05
6.3842837e-05
6.3864545e-05
6.3889625e-05
6.3918624e-05
6.395575e-05
6.3985816e-05
6.4141064e-05
6.3686354e-05
6.9329774e-05
3.7985548e-07
3.7831009e-06
6.7441948e-06
7.4891785e-06
7.2681714e-06
6.8440673e-06
6.4616085e-06
6.1394541e-06
5.861845e-06
5.6199011e-06
5.4075216e-06
5.2177641e-06
5.042835e-06
4.882177e-06
4.7349554e-06
4.5997163e-06
4.474956e-06
4.3590699e-06
4.2510532e-06
4.1502337e-06
4.0556202e-06
3.966651e-06
3.8826315e-06
3.803134e-06
3.7277566e-06
3.6560785e-06
3.5878748e-06
3.5227759e-06
3.4604754e-06
3.4008303e-06
3.3436004e-06
3.2885622e-06
3.235619e-06
3.1846129e-06
3.1353578e-06
3.0877669e-06
3.0417556e-06
2.9971877e-06
2.9537416e-06
2.9113782e-06
2.8702387e-06
2.8302325e-06
2.7912753e-06
2.753325e-06
2.716339e-06
2.6802501e-06
2.6449898e-06
2.6105214e-06
2.5768222e-06
2.5438477e-06
2.511541e-06
2.479868e-06
2.4488081e-06
2.4183356e-06
2.3884127e-06
2.3590012e-06
2.3300784e-06
2.3016376e-06
2.2736554e-06
2.2460941e-06
2.2189295e-06
2.192148e-06
2.1657393e-06
2.1396793e-06
2.1139362e-06
2.0884963e-06
2.0633627e-06
2.0385249e-06
2.0139555e-06
1.9896334e-06
1.9655501e-06
1.9417032e-06
1.9180756e-06
1.8946405e-06
1.8713852e-06
1.848311e-06
1.8254047e-06
1.8026385e-06
1.7799967e-06
1.7574775e-06
1.7350691e-06
1.7127451e-06
1.6904888e-06
1.6682966e-06
1.6461534e-06
1.6240326e-06
1.6019186e-06
1.5798013e-06
1.5576628e-06
1.5359475e-06
1.5153257e-06
1.4959487e-06
1.4776874e-06
1.4604144e-06
1.443969e-06
1.4283494e-06
1.413491e-06
1.3993317e-06
1.3858202e-06
1.3729076e-06
1.3605454e-06
1.3486903e-06
1.3373067e-06
1.3263635e-06
1.3158309e-06
1.3056703e-06
1.2958661e-06
1.2863245e-06
1.2771634e-06
1.2678493e-06
1.2596737e-06
1.2464011e-06
8.7614929e-05
6.5346707e-05
6.3828093e-05
6.3599637e-05
6.3572143e-05
6.3551072e-05
6.3534311e-05
6.3525451e-05
6.3522883e-05
6.3524842e-05
6.3530305e-05
6.3538726e-05
6.3549818e-05
6.3563454e-05
6.357962e-05
6.3598417e-05
6.3620087e-05
6.3645132e-05
6.3674092e-05
6.3711197e-05
6.3741111e-05
6.3896866e-05
6.3436187e-05
6.9044447e-05
1.1690668e-06
1.4091441e-05
2.5114518e-05
2.7887787e-05
2.7065567e-05
2.5487167e-05
2.4063642e-05
2.2864471e-05
2.1831029e-05
2.0930315e-05
2.0139652e-05
1.943325e-05
1.8782031e-05
1.8183947e-05
1.7635882e-05
1.7132429e-05
1.6667993e-05
1.6236596e-05
1.5834486e-05
1.5459171e-05
1.5106955e-05
1.4775752e-05
1.4462971e-05
1.4167022e-05
1.388641e-05
1.3619566e-05
1.3365655e-05
1.3123299e-05
1.2891359e-05
1.2669302e-05
1.2456231e-05
1.2251318e-05
1.2054201e-05
1.1864293e-05
1.1680899e-05
1.15037e-05
1.1332378e-05
1.1166427e-05
1.1004659e-05
1.0846909e-05
1.0693712e-05
1.0544732e-05
1.0399656e-05
1.0258328e-05
1.0120587e-05
9.986183e-06
9.8548624e-06
9.7264893e-06
9.6009774e-06
9.4781614e-06
9.3578297e-06
9.2398567e-06
9.1241646e-06
9.0106576e-06
8.8991948e-06
8.7896347e-06
8.6818931e-06
8.5759443e-06
8.4717013e-06
8.3690241e-06
8.2678228e-06
8.1680476e-06
8.0696591e-06
7.9725671e-06
7.8766538e-06
7.7818667e-06
7.6882187e-06
7.59567e-06
7.5041195e-06
7.4134883e-06
7.3237456e-06
7.2348813e-06
7.1468323e-06
7.0594982e-06
6.9728329e-06
6.8868406e-06
6.8014722e-06
6.7166237e-06
6.6322375e-06
6.5483066e-06
6.4647866e-06
6.3815791e-06
6.2986224e-06
6.2159031e-06
6.1333647e-06
6.050908e-06
5.9684755e-06
5.8860287e-06
5.8035017e-06
5.7225504e-06
5.6456752e-06
5.5734394e-06
5.5053625e-06
5.4409668e-06
5.3796574e-06
5.3214278e-06
5.2660363e-06
5.2132514e-06
5.1628822e-06
5.1147458e-06
5.0686611e-06
5.0244672e-06
4.9820313e-06
4.9412372e-06
4.9019741e-06
4.8640979e-06
4.82755e-06
4.7919809e-06
4.7578304e-06
4.7231096e-06
4.6926313e-06
4.6431525e-06
8.7485425e-05
6.5014233e-05
6.3485199e-05
6.3250058e-05
6.3220456e-05
6.3198573e-05
6.3181362e-05
6.3172187e-05
6.3169388e-05
6.3171171e-05
6.3176494e-05
6.3184801e-05
6.3195799e-05
6.3209353e-05
6.3225447e-05
6.324418e-05
6.3265789e-05
6.3290778e-05
6.3319673e-05
6.3356738e-05
6.3386421e-05
6.3542745e-05
6.3074375e-05
6.8635766e-05
2.8265912e-06
3.7940113e-05
6.7575214e-05
7.5028972e-05
7.2824122e-05
6.8586469e-05
6.4763546e-05
6.1542272e-05
5.876551e-05
5.6344957e-05
5.4219901e-05
5.2321271e-05
5.0570752e-05
4.8962966e-05
4.7489554e-05
4.6136005e-05
4.4887312e-05
4.37274e-05
4.2646162e-05
4.1636929e-05
4.0689768e-05
3.9799078e-05
3.8957889e-05
3.8161939e-05
3.74072e-05
3.6689463e-05
3.6006488e-05
3.5354568e-05
3.4730638e-05
3.413327e-05
3.356005e-05
3.3008753e-05
3.247841e-05
3.1967437e-05
3.1473969e-05
3.0997152e-05
3.0536131e-05
3.008954e-05
2.9654213e-05
2.9229654e-05
2.881733e-05
2.8416336e-05
2.8025837e-05
2.7645411e-05
2.7274625e-05
2.6912806e-05
2.6559273e-05
2.6213664e-05
2.5875744e-05
2.5545066e-05
2.5221064e-05
2.4903403e-05
2.4591872e-05
2.4286211e-05
2.3986042e-05
2.3690987e-05
2.340082e-05
2.3115469e-05
2.2834701e-05
2.2558139e-05
2.2285545e-05
2.2016785e-05
2.175175e-05
2.1490198e-05
2.123181e-05
2.0976446e-05
2.0724138e-05
2.0474782e-05
2.0228106e-05
1.9983899e-05
1.9742078e-05
1.9502615e-05
1.926534e-05
1.9029982e-05
1.8796419e-05
1.8564663e-05
1.833458e-05
1.810589e-05
1.7878438e-05
1.7652206e-05
1.7427075e-05
1.7202777e-05
1.6979147e-05
1.6756151e-05
1.6533635e-05
1.6311332e-05
1.6089087e-05
1.5866797e-05
1.5644283e-05
1.5426012e-05
1.5218726e-05
1.5023947e-05
1.4840379e-05
1.4666726e-05
1.4501397e-05
1.4344376e-05
1.4195008e-05
1.4052669e-05
1.3916846e-05
1.3787043e-05
1.3662772e-05
1.35436e-05
1.3429169e-05
1.3319165e-05
1.321329e-05
1.3111154e-05
1.30126e-05
1.2916684e-05
1.2824594e-05
1.2730965e-05
1.2648772e-05
1.251534e-05
8.7314404e-05
6.4572636e-05
6.3029556e-05
6.2785591e-05
6.2753075e-05
6.2730096e-05
6.2712277e-05
6.270268e-05
6.2699569e-05
6.2701114e-05
6.2706249e-05
6.2714401e-05
6.2725269e-05
6.2738711e-05
6.2754707e-05
6.2773349e-05
6.2794874e-05
6.2819781e-05
6.2848581e-05
6.2885582e-05
6.2914949e-05
6.3071896e-05
6.2594225e-05
6.8095849e-05
5.8620967e-06
8.4645431e-05
0.00015055019
0.00016711007
0.00016224261
0.00015285836
0.0001443862
0.0001372425
0.00013108076
0.00012570693
0.00012098741
0.0001167698
0.0001128799
0.00010930636
0.00010603077
0.00010302107
0.00010024407
9.7664099e-05
9.5258671e-05
9.301311e-05
9.0905341e-05
8.892298e-05
8.7050531e-05
8.5278564e-05
8.359813e-05
8.1999891e-05
8.0478896e-05
7.9026894e-05
7.7637088e-05
7.6306301e-05
7.5029169e-05
7.3800758e-05
7.2618921e-05
7.1480126e-05
7.0380232e-05
6.931736e-05
6.8289597e-05
6.7293907e-05
6.6323306e-05
6.5376551e-05
6.445699e-05
6.3562617e-05
6.2691581e-05
6.184295e-05
6.1015747e-05
6.0208474e-05
5.941963e-05
5.864841e-05
5.7894285e-05
5.7156256e-05
5.6433071e-05
5.5723992e-05
5.5028546e-05
5.4346146e-05
5.3675952e-05
5.3017132e-05
5.2369182e-05
5.173194e-05
5.1104882e-05
5.0487175e-05
4.9878293e-05
4.9277937e-05
4.8685863e-05
4.8101526e-05
4.7524222e-05
4.6953626e-05
4.6389817e-05
4.5832563e-05
4.5281258e-05
4.4735438e-05
4.4194919e-05
4.3659633e-05
4.3129199e-05
4.2603019e-05
4.208082e-05
4.1562628e-05
4.1048144e-05
4.0536739e-05
4.0028074e-05
3.952211e-05
3.9018573e-05
3.8516866e-05
3.8016624e-05
3.7517771e-05
3.701996e-05
3.6522593e-05
3.602533e-05
3.5527938e-05
3.5030014e-05
3.4541555e-05
3.4077661e-05
3.3641737e-05
3.3230886e-05
3.2842191e-05
3.2472127e-05
3.212066e-05
3.1786315e-05
3.1467701e-05
3.1163668e-05
3.087311e-05
3.059493e-05
3.0328159e-05
3.0071998e-05
2.9825748e-05
2.9588737e-05
2.9360093e-05
2.9139463e-05
2.8924736e-05
2.8718568e-05
2.8508955e-05
2.8324932e-05
2.8026183e-05
8.7100564e-05
6.4014766e-05
6.2453547e-05
6.2198379e-05
6.2162043e-05
6.2137641e-05
6.211904e-05
6.2108897e-05
6.2105384e-05
6.2106621e-05
6.2111512e-05
6.2119464e-05
6.2130163e-05
6.2143458e-05
6.2159323e-05
6.2177845e-05
6.2199255e-05
6.2224052e-05
6.2252722e-05
6.228963e-05
6.2318585e-05
6.24762e-05
6.1987821e-05
6.7414538e-05
1.0911398e-05
0.00016695237
0.0002961056
0.0003284737
0.00031909689
0.00030089346
0.00028443186
0.00027053077
0.00025852429
0.00024804184
0.00023882788
0.00023058842
0.00022298337
0.00021599275
0.00020958156
0.00020368795
0.00019824765
0.00019319125
0.00018847495
0.00018407049
0.00017993482
0.00017604394
0.00017236761
0.00016888752
0.00016558624
0.00016244556
0.0001594559
0.00015660111
0.00015386794
0.0001512502
0.00014873739
0.0001463199
0.00014399356
0.00014175144
0.00013958545
0.00013749195
0.00013546719
0.00013350522
0.00013159246
0.00012972616
0.00012791311
0.0001261494
0.00012443142
0.00012275735
0.00012112526
0.0001195322
0.00011797527
0.00011645289
0.00011496401
0.00011350666
0.0001120784
0.0001106778
0.00010930393
0.00010795561
0.00010663121
0.0001053291
0.00010404831
0.00010278849
0.00010154863
0.00010032709
9.9122847e-05
9.793532e-05
9.6764015e-05
9.5607862e-05
9.4465475e-05
9.3336203e-05
9.22202e-05
9.1117024e-05
9.0025479e-05
8.8944661e-05
8.7874213e-05
8.6813993e-05
8.5763244e-05
8.4720793e-05
8.3686107e-05
8.2659239e-05
8.1639593e-05
8.0625924e-05
7.9617567e-05
7.861445e-05
7.7616026e-05
7.6621106e-05
7.5628975e-05
7.4639487e-05
7.3651949e-05
7.2665173e-05
7.1678493e-05
7.0691447e-05
6.9703226e-05
6.8733682e-05
6.7812809e-05
6.694738e-05
6.6131657e-05
6.5359813e-05
6.4624932e-05
6.3926957e-05
6.3262951e-05
6.2630155e-05
6.2026297e-05
6.1449176e-05
6.0896616e-05
6.0366694e-05
5.9857831e-05
5.9368641e-05
5.8897788e-05
5.8443537e-05
5.8005188e-05
5.7578553e-05
5.7168905e-05
5.6752405e-05
5.6386712e-05
5.5793005e-05
8.6842827e-05
6.3332751e-05
6.1748709e-05
6.1479671e-05
6.1438479e-05
6.141228e-05
6.1392693e-05
6.1381867e-05
6.1377848e-05
6.1378698e-05
6.138328e-05
6.139098e-05
6.1401464e-05
6.1414572e-05
6.1430268e-05
6.1448635e-05
6.1469896e-05
6.1494547e-05
6.1523045e-05
6.1559823e-05
6.158826e-05
6.1746569e-05
6.1246466e-05
6.6579523e-05
1.8630543e-05
0.00030053535
0.00053015373
0.00058739193
0.00057127942
0.00053957684
0.00051081625
0.00048646068
0.00046537051
0.00044691924
0.00043067337
0.00041612555
0.0004026777
0.00039030162
0.00037893903
0.00036848338
0.00035882324
0.00034983712
0.00034144831
0.00033360833
0.00032624145
0.000319306
0.00031274868
0.00030653761
0.00030064221
0.00029503047
0.00028968573
0.00028457948
0.00027968833
0.00027500148
0.00027050037
0.00026616808
0.00026199731
0.00025797579
0.00025408917
0.00025033119
0.00024669515
0.00024317048
0.00023973322
0.0002363778
0.00023311692
0.00022994363
0.00022685161
0.00022383763
0.00022089823
0.00021802818
0.00021522234
0.00021247795
0.0002097931
0.00020716428
0.00020458718
0.00020205929
0.00019957893
0.00019714399
0.00019475154
0.00019239876
0.00019008387
0.00018780627
0.00018556412
0.00018335453
0.00018117571
0.0001790266
0.00017690631
0.00017481291
0.00017274394
0.00017069819
0.00016867594
0.00016667644
0.00016469753
0.00016273762
0.00016079606
0.00015887259
0.00015696585
0.00015507373
0.00015319527
0.00015133059
0.0001494786
0.00014763704
0.00014580472
0.00014398153
0.00014216645
0.00014035733
0.00013855288
0.00013675285
0.00013495596
0.00013316006
0.00013136394
0.00012956677
0.00012776705
0.00012600097
0.00012432322
0.00012274619
0.00012125948
0.0001198524
0.00011851255
0.00011723984
0.00011602893
0.00011487481
0.00011377336
0.00011272056
0.00011171247
0.00011074557
0.00010981703
0.0001089243
0.00010806497
0.00010723586
0.00010643571
0.00010565687
0.00010490897
0.00010414853
0.00010348074
0.00010239645
8.6540602e-05
6.2518429e-05
6.090615e-05
6.0620228e-05
6.0572991e-05
6.0544556e-05
6.0523752e-05
6.0512081e-05
6.0507437e-05
6.0507808e-05
6.0512008e-05
6.0519393e-05
6.052961e-05
6.0542483e-05
6.0557968e-05
6.0576138e-05
6.0597208e-05
6.0621671e-05
6.0649946e-05
6.068655e-05
6.0714349e-05
6.0873347e-05
6.0361207e-05
6.5576289e-05
2.947398e-05
0.00050067978
0.00087500794
0.00096745575
0.00094269512
0.00089283915
0.00084737559
0.00080869981
0.00077506894
0.00074554527
0.00071947695
0.00069607731
0.00067439216
0.0006543945
0.00063600026
0.00061904525
0.00060335554
0.00058873885
0.00057507395
0.00056228637
0.00055025522
0.00053891539
0.00052818161
0.00051800372
0.00050833317
0.00049911886
0.00049033478
0.00048193499
0.00047388207
0.00046615894
0.00045873575
0.00045158535
0.00044469626
0.00043804865
0.00043161932
0.00042539853
0.0004193754
0.00041353276
0.00040783177
0.00040226207
0.00039684578
0.0003915717
0.0003864297
0.00038141458
0.00037652064
0.00037173939
0.00036706257
0.00036248574
0.00035800573
0.00035361684
0.00034931206
0.0003450874
0.00034094007
0.0003368666
0.00033286221
0.00032892236
0.00032504415
0.00032122657
0.00031746661
0.00031375957
0.00031010253
0.00030649377
0.00030293179
0.00029941345
0.00029593465
0.00029249336
0.00028909005
0.00028572353
0.00028239027
0.00027908763
0.00027581458
0.00027257065
0.00026935357
0.00026615985
0.00026298792
0.00025983797
0.00025670818
0.00025359477
0.00025049574
0.00024741092
0.00024433862
0.00024127514
0.00023821836
0.00023516786
0.00023212148
0.00022907554
0.00022602805
0.00022297757
0.00021992154
0.00021692144
0.00021407035
0.00021138951
0.00020886138
0.00020646773
0.00020418783
0.0002020217
0.00019996024
0.000197995
0.00019611905
0.00019432561
0.00019260796
0.00019096018
0.00018937747
0.00018785555
0.00018639031
0.00018497636
0.00018361154
0.00018228288
0.00018100678
0.00017970914
0.00017856929
0.00017671813
8.6194069e-05
6.1563832e-05
5.9917009e-05
5.9610783e-05
5.9556126e-05
5.9524941e-05
5.9502648e-05
5.9489946e-05
5.9484541e-05
5.9484325e-05
5.9488058e-05
5.9495056e-05
5.9504943e-05
5.9517526e-05
5.9532748e-05
5.9550671e-05
5.9571501e-05
5.9595724e-05
5.9623717e-05
5.9660091e-05
5.9687121e-05
5.9846756e-05
5.9323465e-05
6.4387812e-05
4.3349057e-05
0.00077503296
0.0013359062
0.0014725884
0.0014386696
0.0013679221
0.0013029563
0.0012473482
0.001198714
0.0011558161
0.0011177893
0.0010835389
0.0010516836
0.0010222214
0.00099504925
0.00096994129
0.00094665387
0.00092491192
0.00090454284
0.00088544487
0.00086744308
0.00085044625
0.00083433061
0.00081902518
0.00080446038
0.00079056227
0.00077729444
0.00076458971
0.0007523936
0.00074068194
0.00072941101
0.00071854134
0.00070805668
0.00069792784
0.00068812069
0.00067862162
0.00066941456
0.00066047408
0.00065174233
0.00064320154
0.00063488773
0.00062678445
0.00061887691
0.00061115755
0.00060361779
0.00059624502
0.00058902717
0.00058195774
0.00057503194
0.00056824124
0.00056157531
0.00055502831
0.00054859609
0.00054227331
0.00053605291
0.00052992822
0.00052389485
0.00051795129
0.00051209304
0.00050631304
0.00050060701
0.00049497232
0.0004894067
0.00048390537
0.00047846214
0.0004730738
0.00046774107
0.0004624623
0.0004572321
0.00045204649
0.00044690391
0.00044180364
0.00043674215
0.00043171411
0.00042671709
0.00042175144
0.00041681432
0.0004118998
0.00040700481
0.00040212913
0.00039727003
0.00039242171
0.00038758084
0.00038274678
0.00037791607
0.00037308291
0.00036824415
0.00036339745
0.00035853872
0.0003537658
0.00034922716
0.00034495705
0.00034092799
0.00033711083
0.00033347339
0.00033001599
0.00032672424
0.00032358489
0.00032058704
0.00031772
0.0003149731
0.00031233705
0.00030980426
0.00030736802
0.00030502178
0.00030275697
0.00030057021
0.0002984408
0.000296395
0.0002943143
0.00029248582
0.0002895152
8.5804476e-05
6.0461728e-05
5.8772964e-05
5.8442547e-05
5.8378873e-05
5.8344332e-05
5.8320232e-05
5.8306285e-05
5.8299956e-05
5.8299029e-05
5.8302193e-05
5.8308721e-05
5.8318205e-05
5.8330433e-05
5.8345329e-05
5.8362947e-05
5.8383477e-05
5.8407398e-05
5.8435037e-05
5.8471114e-05
5.8497231e-05
5.8657385e-05
5.8125326e-05
6.2994267e-05
5.9256285e-05
0.0011148455
0.0018900324
0.0020759693
0.0020344295
0.0019434558
0.0018592606
0.0017866855
0.0017227842
0.001666109
0.0016156397
0.0015700012
0.0015273721
0.0014878101
0.0014512085
0.0014172883
0.0013857414
0.001356211
0.0013284747
0.0013024085
0.0012777823
0.0012544813
0.0012323422
0.0012112745
0.001191188
0.0011719857
0.0011536218
0.0011360069
0.0011190691
0.0011027775
0.0010870741
0.0010719066
0.0010572545
0.0010430785
0.0010293332
0.0010160014
0.0010030615
0.0009904792
0.00097817562
0.00096612254
0.00095437446
0.00094290938
0.00093170784
0.00092075978
0.00091005341
0.00089957163
0.00088929849
0.00087922532
0.00086934548
0.00085964736
0.00085011704
0.00084074688
0.00083153108
0.00082246223
0.00081353073
0.00080472773
0.00079604716
0.00078748687
0.00077904077
0.00077069919
0.00076245633
0.00075430857
0.00074625268
0.00073828206
0.0007303881
0.00072256609
0.00071481701
0.00070713885
0.00069952404
0.00069196708
0.00068446576
0.00067701904
0.0006696219
0.00066226677
0.00065495022
0.00064767276
0.0006404303
0.00063321425
0.00062602018
0.00061884781
0.0006116931
0.00060454752
0.00059740618
0.00059026819
0.00058312834
0.00057597806
0.00056881267
0.00056162866
0.00055441979
0.00054733144
0.00054058487
0.00053423196
0.00052823278
0.00052254398
0.0005171191
0.00051195934
0.00050704359
0.00050235254
0.00049787033
0.00049358126
0.00048946966
0.00048552187
0.00048172682
0.0004780747
0.00047455583
0.00047115751
0.00046787478
0.0004646768
0.00046160296
0.00045847582
0.00045572603
0.00045125596
8.5374434e-05
5.920623e-05
5.7466796e-05
5.710776e-05
5.7033216e-05
5.6994598e-05
5.6968319e-05
5.6952873e-05
5.6945433e-05
5.6943649e-05
5.6946127e-05
5.6952085e-05
5.696108e-05
5.6972874e-05
5.6987373e-05
5.7004615e-05
5.7024773e-05
5.704832e-05
5.7075518e-05
5.7111215e-05
5.7136262e-05
5.7296732e-05
5.6758919e-05
6.1387146e-05
7.5788654e-05
0.0014919025
0.0024907725
0.0027267048
0.0026806257
0.0025731018
0.0024728387
0.0023858112
0.0023086582
0.002239853
0.0021783078
0.0021224366
0.0020700241
0.0020212189
0.001975927
0.0019338322
0.0018945764
0.0018577339
0.0018230407
0.0017903601
0.0017594131
0.0017300681
0.0017021267
0.0016754834
0.0016500309
0.0016256522
0.0016022951
0.0015798502
0.0015582303
0.0015373996
0.0015172867
0.0014978289
0.0014790021
0.0014607581
0.0014430409
0.0014258314
0.0014091027
0.0013928121
0.0013768611
0.0013612082
0.0013459294
0.0013309976
0.0013163899
0.0013020937
0.001288094
0.0012743696
0.0012609014
0.0012476787
0.0012346929
0.0012219295
0.0012093715
0.0011970096
0.0011848365
0.0011728425
0.0011610157
0.0011493454
0.001137824
0.0011264484
0.0011152111
0.0011041
0.0010931079
0.0010822301
0.0010714624
0.0010607965
0.0010502212
0.0010397303
0.0010293247
0.0010190023
0.0010087534
0.00099857095
0.00098845203
0.00097839519
0.00096839382
0.00095843804
0.00094852326
0.00093865017
0.0009288133
0.0009190011
0.00090920761
0.00089943246
0.00088967005
0.0008799087
0.00087014177
0.00086036795
0.00085057999
0.00084076605
0.00083091965
0.00082103571
0.00081110539
0.00080132923
0.00079201362
0.00078323191
0.00077493052
0.00076704956
0.00075952715
0.00075236621
0.00074553815
0.00073901697
0.00073278135
0.00072681004
0.00072108164
0.00071557764
0.00071028309
0.00070518472
0.00070026931
0.00069551936
0.0006909282
0.00068645309
0.00068214905
0.0006777688
0.00067391403
0.00066764255
8.490819e-05
5.779346e-05
5.5992995e-05
5.5600291e-05
5.5512723e-05
5.5469177e-05
5.5440278e-05
5.5423037e-05
5.5414265e-05
5.5411453e-05
5.5413105e-05
5.5418376e-05
5.5426781e-05
5.5438049e-05
5.5452064e-05
5.5468846e-05
5.5488548e-05
5.5511633e-05
5.5538289e-05
5.5573508e-05
5.5597319e-05
5.5757785e-05
5.5217876e-05
5.9594493e-05
9.150724e-05
0.0018747814
0.0030864398
0.00337095
0.0033238387
0.0032046422
0.0030927653
0.0029950316
0.0029078186
0.0028296496
0.0027594533
0.0026955144
0.0026353052
0.0025790782
0.0025267637
0.002478023
0.002432465
0.0023896122
0.002349169
0.0023109956
0.0022747739
0.002240363
0.0022075368
0.0021761798
0.0021461726
0.0021173829
0.0020897551
0.0020631634
0.0020375094
0.0020127538
0.0019888148
0.0019656218
0.0019431485
0.001921339
0.0019001294
0.0018795002
0.0018594192
0.0018398375
0.0018206407
0.0018017724
0.00178333
0.0017652828
0.0017476055
0.0017302838
0.0017132992
0.0016966274
0.0016802473
0.0016641466
0.0016483146
0.0016327344
0.0016173868
0.0016022616
0.0015873495
0.0015726389
0.0015581162
0.0015437696
0.0015295896
0.0015155724
0.0015017093
0.0014879863
0.0014743951
0.00146093
0.0014475856
0.001434352
0.0014212165
0.0014081708
0.0013952153
0.0013823484
0.0013695583
0.0013568368
0.0013441801
0.0013315863
0.0013190473
0.001306551
0.0012940918
0.0012816703
0.0012692798
0.0012569057
0.0012445406
0.0012321839
0.0012198284
0.0012074591
0.0011950677
0.0011826521
0.001170203
0.0011577052
0.0011451501
0.0011325309
0.0011198359
0.0011073217
0.0010953822
0.0010841136
0.0010734493
0.0010633126
0.0010536271
0.0010443984
0.0010355906
0.0010271712
0.0010191139
0.0010113917
0.0010039779
0.00099684897
0.00098998635
0.00098337337
0.00097699331
0.0009708238
0.00096485652
0.0009590365
0.00095343505
0.00094773241
0.00094270927
0.0009345289
8.441186e-05
5.6222281e-05
5.4348422e-05
5.3916289e-05
5.3813196e-05
5.3763708e-05
5.3731666e-05
5.3712283e-05
5.370192e-05
5.3697876e-05
5.3698539e-05
5.3702986e-05
5.3710679e-05
5.3721312e-05
5.3734742e-05
5.3750964e-05
5.3770109e-05
5.3792629e-05
5.3818624e-05
5.3853246e-05
5.3875647e-05
5.4035653e-05
5.3497982e-05
5.7613259e-05
0.00010498623
0.0022381992
0.0036431818
0.0039696698
0.0039245668
0.0037982135
0.003678931
0.0035740818
0.0034799166
0.0033951242
0.0033187185
0.0032489353
0.0031830672
0.0031214132
0.0030639338
0.0030102796
0.0029600391
0.0029126991
0.0028679415
0.0028256306
0.0027854182
0.002747161
0.0027106113
0.0026756491
0.0026421464
0.0026099605
0.0025790345
0.00254923
0.0025204414
0.0024926269
0.0024656969
0.002439576
0.0024142364
0.0023896161
0.0023656458
0.0023423066
0.0023195619
0.0022973575
0.0022755699
0.002254127
0.0022331445
0.0022125894
0.0021924354
0.0021726666
0.0021532613
0.0021341932
0.0021154403
0.0020969892
0.0020788268
0.0020609343
0.0020432917
0.0020258881
0.0020087124
0.0019917511
0.0019749896
0.0019584156
0.0019420183
0.0019257926
0.0019097287
0.001893812
0.0018780332
0.0018623854
0.0018468622
0.0018314528
0.0018161431
0.001800923
0.0017857919
0.0017707485
0.0017557801
0.0017408772
0.0017260354
0.001711252
0.0016965176
0.0016818187
0.0016671483
0.001652507
0.0016378868
0.0016232708
0.00160865
0.0015940235
0.0015793825
0.0015647092
0.0015499934
0.0015352325
0.0015204149
0.0015055224
0.0014905444
0.0014754724
0.0014602917
0.0014453094
0.0014309987
0.0014174777
0.0014046687
0.0013924791
0.0013808215
0.0013697041
0.0013590848
0.0013489257
0.0013391959
0.001329864
0.0013208979
0.0013122704
0.0013039595
0.0012959457
0.0012882092
0.0012807232
0.001273478
0.0012664076
0.0012595981
0.0012526639
0.0012465502
0.0012365835
8.3893581e-05
5.4495083e-05
5.2532992e-05
5.2054849e-05
5.1933333e-05
5.1876699e-05
5.1840894e-05
5.1818956e-05
5.1806695e-05
5.1801181e-05
5.1800662e-05
5.1804121e-05
5.1810961e-05
5.1820831e-05
5.1833553e-05
5.1849099e-05
5.186757e-05
5.1889402e-05
5.19146e-05
5.1948483e-05
5.1969301e-05
5.2128219e-05
5.1597823e-05
5.5442601e-05
0.00011490601
0.0025550748
0.0041375538
0.0045066759
0.0044652398
0.0043344663
0.0042104858
0.0041008367
0.0040017512
0.0039121585
0.0038311902
0.0037571213
0.0036873868
0.0036219877
0.0035609202
0.0035038316
0.0034503004
0.0033997905
0.0033519676
0.0033067062
0.0032636346
0.0032226125
0.0031833758
0.0031458036
0.0031097626
0.0030751031
0.0030417685
0.003009611
0.0029785208
0.0029484546
0.0029193166
0.0028910294
0.0028635642
0.0028368538
0.0028108257
0.0027854628
0.0027607239
0.0027365512
0.0027128201
0.0026894539
0.0026665686
0.0026441305
0.0026221139
0.0026005014
0.0025792679
0.0025583858
0.0025378339
0.0025175975
0.0024976611
0.0024780046
0.0024586079
0.0024394601
0.0024205483
0.0024018569
0.002383371
0.002365079
0.0023469683
0.0023290322
0.0023112608
0.002293639
0.0022761572
0.0022588072
0.0022415815
0.0022244687
0.0022074545
0.0021905268
0.0021736833
0.0021569233
0.0021402338
0.0021236045
0.0021070301
0.0020905072
0.0020740255
0.0020575703
0.0020411337
0.0020247159
0.002008308
0.0019918912
0.0019754552
0.0019589987
0.0019425115
0.0019259735
0.0019093728
0.0018927064
0.0018759607
0.0018591148
0.0018421567
0.0018250758
0.0018078551
0.0017908432
0.001774579
0.001759199
0.001744617
0.0017307271
0.0017174348
0.0017047497
0.0016926248
0.0016810179
0.0016698947
0.0016592201
0.0016489579
0.0016390775
0.0016295546
0.0016203674
0.0016114934
0.0016029024
0.0015945833
0.0015864614
0.0015786347
0.0015706639
0.0015636305
0.0015521524
8.3363535e-05
5.2618604e-05
5.0550374e-05
5.00187e-05
4.9875416e-05
4.9810203e-05
4.9769894e-05
4.9744914e-05
4.9730394e-05
4.9723127e-05
4.9721196e-05
4.9723475e-05
4.9729293e-05
4.9738248e-05
4.9750122e-05
4.9764853e-05
4.9782511e-05
4.9803514e-05
4.9827757e-05
4.9860739e-05
4.9879805e-05
5.0036812e-05
4.9519445e-05
5.3084093e-05
0.00012027313
0.0028006437
0.0045495039
0.0049693611
0.0049350701
0.0048032782
0.0046777007
0.0045658728
0.0044641161
0.0043716968
0.0042879206
0.0042111139
0.0041386692
0.0040706196
0.0040069973
0.0039474485
0.003891548
0.003838745
0.0037886915
0.0037412764
0.0036961081
0.0036530532
0.0036118338
0.0035723309
0.0035344071
0.0034979081
0.0034627787
0.0034288631
0.0033960501
0.0033642945
0.0033334959
0.0033035767
0.003274507
0.0032462149
0.0032186266
0.003191727
0.0031654704
0.0031397964
0.0031145976
0.0030898386
0.0030655715
0.0030417625
0.0030183882
0.0029954291
0.002972857
0.0029506435
0.0029287695
0.0029072192
0.0028859739
0.002865013
0.0028443173
0.0028238762
0.0028036744
0.0027836948
0.0027639228
0.0027443475
0.0027249553
0.0027057374
0.0026866837
0.0026677797
0.0026490157
0.002630382
0.0026118701
0.0025934686
0.0025751633
0.0025569407
0.0025387958
0.0025207285
0.0025027264
0.0024847788
0.0024668795
0.002449024
0.0024312015
0.0024133971
0.0023956017
0.0023778149
0.0023600271
0.0023422186
0.0023243777
0.0023065027
0.0022885824
0.0022705948
0.0022525267
0.0022343744
0.0022161229
0.0021977494