/*--------------------------------*- C++ -*----------------------------------*\
  =========                 |
  \\      /  F ield         | OpenFOAM: The Open Source CFD Toolbox
   \\    /   O peration     | Website:  https://openfoam.org
    \\  /    A nd           | Version:  12
     \\/     M anipulation  |
\*---------------------------------------------------------------------------*/
FoamFile
{
    format      ascii;
    class       volScalarField;
    location    "200";
    object      nut;
}
// * * * * * * * * * * * * * * * * * * * * * * * * * * * * * * * * * * * * * //

dimensions      [0 2 -1 0 0 0 0];

internalField   nonuniform List<scalar> 
7480
(
2.4194107e-08
2.3610048e-08
2.3043162e-08
2.2560874e-08
2.2220668e-08
2.2066426e-08
1.9914508e-08
1.7181922e-08
1.5241972e-08
1.3705618e-08
1.3034217e-08
1.140222e-08
2.3781259e-07
3.4443984e-06
5.5178549e-06
6.8695773e-06
7.6641074e-06
8.0706779e-06
8.2795896e-06
8.2721858e-06
8.2278544e-06
8.1450619e-06
7.8509675e-06
7.2072077e-06
6.6555971e-06
6.1859307e-06
5.7916242e-06
5.476826e-06
5.2202902e-06
5.0108253e-06
4.8427533e-06
4.7125022e-06
4.6165095e-06
4.5509289e-06
4.5116921e-06
4.4947849e-06
4.4960856e-06
4.511211e-06
4.5392043e-06
4.5795465e-06
4.6301894e-06
4.6885366e-06
4.7521098e-06
4.8190191e-06
4.8887615e-06
4.9583386e-06
5.0268582e-06
5.0931837e-06
5.1559466e-06
5.2138624e-06
5.2686718e-06
5.3188808e-06
5.3628049e-06
5.3995166e-06
5.4289278e-06
5.451616e-06
5.4684537e-06
5.4804912e-06
5.4896133e-06
5.4969126e-06
5.5026875e-06
5.5069417e-06
5.5097692e-06
5.5113952e-06
5.5120459e-06
5.5118954e-06
5.5110827e-06
5.5099498e-06
5.5087849e-06
5.5075313e-06
5.5059654e-06
5.503936e-06
5.5013964e-06
5.4983632e-06
5.4948942e-06
5.4911521e-06
5.4872755e-06
5.4832336e-06
5.478915e-06
5.4742513e-06
5.4692399e-06
5.4639311e-06
5.4584579e-06
5.45288e-06
5.4471454e-06
5.4411931e-06
5.4349898e-06
5.428563e-06
5.4220175e-06
5.4153871e-06
5.4086241e-06
5.4016811e-06
5.3945528e-06
5.3872768e-06
5.3799318e-06
5.3722988e-06
5.3648258e-06
5.3556374e-06
5.3492379e-06
5.3334229e-06
9.6552903e-08
9.5782555e-08
9.4912027e-08
9.3993368e-08
9.3040375e-08
9.2057073e-08
9.105012e-08
9.0030586e-08
8.8971739e-08
8.7996532e-08
8.6579748e-08
8.7480626e-08
7.7167172e-08
5.6434483e-07
2.224535e-06
4.2223109e-06
5.206896e-06
5.4113097e-06
5.257193e-06
5.0739757e-06
4.9912397e-06
4.9896452e-06
5.056934e-06
5.1816285e-06
5.4343838e-06
5.7929937e-06
6.2673859e-06
6.9083551e-06
7.2499051e-06
7.6287631e-06
8.0319205e-06
8.4469095e-06
8.8640792e-06
9.2761276e-06
9.6779107e-06
1.0067312e-05
1.0440707e-05
1.0800821e-05
1.1156591e-05
1.1510933e-05
1.1856755e-05
1.2188634e-05
1.2504565e-05
1.2804894e-05
1.3096112e-05
1.3357758e-05
1.3605395e-05
1.3831785e-05
1.403601e-05
1.421896e-05
1.4379769e-05
1.4516837e-05
1.4631508e-05
1.4726547e-05
1.4805253e-05
1.4870878e-05
1.4926152e-05
1.4974039e-05
1.5018694e-05
1.505972e-05
1.5096683e-05
1.5129737e-05
1.515947e-05
1.5186504e-05
1.52113e-05
1.5234149e-05
1.5255308e-05
1.5275234e-05
1.5293697e-05
1.5310013e-05
1.5323877e-05
1.5335433e-05
1.5344978e-05
1.535279e-05
1.5359168e-05
1.5364381e-05
1.5368296e-05
1.5370558e-05
1.5371067e-05
1.5370018e-05
1.5367676e-05
1.5364345e-05
1.5360204e-05
1.5355045e-05
1.5348636e-05
1.5341003e-05
1.533232e-05
1.5322884e-05
1.5312843e-05
1.5302023e-05
1.5290262e-05
1.52776e-05
1.5264242e-05
1.5250368e-05
1.5235889e-05
1.5220673e-05
1.5204708e-05
1.518712e-05
1.5172841e-05
1.5139846e-05
9.6212827e-08
9.6229571e-08
9.6243717e-08
9.6254191e-08
9.6260476e-08
9.6262238e-08
9.6259264e-08
9.6251028e-08
9.6234803e-08
9.6215962e-08
9.6168835e-08
9.6216136e-08
9.5834874e-08
9.6992545e-08
1.1458809e-07
2.1780222e-07
5.8162052e-07
1.2487892e-06
2.0541573e-06
2.6934543e-06
3.0230314e-06
3.1185435e-06
3.0907016e-06
3.0153148e-06
2.9453172e-06
2.9658812e-06
3.0725179e-06
3.2764411e-06
3.56542e-06
3.9343874e-06
4.3966385e-06
4.9012609e-06
5.4646777e-06
6.091661e-06
6.7844524e-06
7.5451074e-06
8.3827057e-06
9.3177565e-06
1.0198938e-05
1.1057882e-05
1.1934803e-05
1.2809354e-05
1.3665304e-05
1.4499479e-05
1.5313736e-05
1.6111245e-05
1.6876316e-05
1.7590903e-05
1.826579e-05
1.8903237e-05
1.9375894e-05
1.9801184e-05
2.0188093e-05
2.0542198e-05
2.0867029e-05
2.1165665e-05
2.144214e-05
2.1700254e-05
2.1939454e-05
2.2160268e-05
2.2364514e-05
2.2554451e-05
2.2732122e-05
2.289923e-05
2.3056917e-05
2.3205898e-05
2.3346944e-05
2.3479647e-05
2.3603313e-05
2.3718145e-05
2.3824876e-05
2.3924295e-05
2.4017113e-05
2.4103939e-05
2.4185434e-05
2.4261474e-05
2.4331451e-05
2.4395423e-05
2.4453997e-05
2.4507829e-05
2.45574e-05
2.4603285e-05
2.464529e-05
2.4682948e-05
2.471634e-05
2.4745973e-05
2.4772321e-05
2.4795941e-05
2.4816668e-05
2.4834121e-05
2.484838e-05
2.4859844e-05
2.4869004e-05
2.4876007e-05
2.4880423e-05
2.4882604e-05
2.4881526e-05
2.4880206e-05
2.4872873e-05
2.4860477e-05
1.0019353e-07
1.0023499e-07
1.0027734e-07
1.0031832e-07
1.0035731e-07
1.003941e-07
1.0042858e-07
1.0046068e-07
1.0049026e-07
1.0051707e-07
1.0054147e-07
1.0055757e-07
1.005862e-07
1.005698e-07
1.0065452e-07
1.0048691e-07
1.0182387e-07
1.0633702e-07
1.2253775e-07
1.6373264e-07
2.3991107e-07
3.5493588e-07
5.0665117e-07
6.8725843e-07
8.8894118e-07
1.0898913e-06
1.2765485e-06
1.4470197e-06
1.6054723e-06
1.7581386e-06
1.9152685e-06
2.083978e-06
2.2734333e-06
2.5227264e-06
2.8378224e-06
3.2232361e-06
3.6932984e-06
4.2608125e-06
4.9235799e-06
5.7058624e-06
6.6294407e-06
7.7002543e-06
8.8627171e-06
9.8997337e-06
1.0989498e-05
1.2122057e-05
1.3283576e-05
1.4450981e-05
1.5617084e-05
1.6770177e-05
1.7895469e-05
1.8991152e-05
2.0015354e-05
2.098434e-05
2.1909616e-05
2.27901e-05
2.3626641e-05
2.4395339e-05
2.5007176e-05
2.5576778e-05
2.6111454e-05
2.6617081e-05
2.7097247e-05
2.7553802e-05
2.7987939e-05
2.8401253e-05
2.8796079e-05
2.9171409e-05
2.9525703e-05
2.9859829e-05
3.0175585e-05
3.0474723e-05
3.0758654e-05
3.102843e-05
3.1285186e-05
3.1528744e-05
3.1758445e-05
3.1974773e-05
3.2178782e-05
3.2371511e-05
3.2553787e-05
3.2726624e-05
3.2889685e-05
3.3042565e-05
3.3185729e-05
3.3320051e-05
3.3446258e-05
3.3565233e-05
3.3676665e-05
3.3780228e-05
3.3876315e-05
3.3965634e-05
3.4048952e-05
3.4126436e-05
3.4197521e-05
3.4263049e-05
3.4321194e-05
3.4378935e-05
3.4416059e-05
3.44842e-05
1.0154735e-07
1.0159848e-07
1.0165188e-07
1.0170471e-07
1.0175625e-07
1.0180632e-07
1.0185485e-07
1.0190179e-07
1.0194711e-07
1.0199076e-07
1.0203273e-07
1.0207293e-07
1.0211119e-07
1.0215007e-07
1.0216553e-07
1.0218041e-07
1.0220611e-07
1.0226003e-07
1.0232922e-07
1.0245704e-07
1.0273152e-07
1.0333437e-07
1.045758e-07
1.0695435e-07
1.1120567e-07
1.1832328e-07
1.2958454e-07
1.4664211e-07
1.717394e-07
2.0784807e-07
2.5928693e-07
3.3186865e-07
4.3395151e-07
5.7106467e-07
7.4949838e-07
9.7207883e-07
1.2401917e-06
1.5409553e-06
1.8915048e-06
2.2587323e-06
2.6569028e-06
3.1399539e-06
3.7399458e-06
4.4645623e-06
5.318164e-06
6.3235235e-06
7.5094252e-06
8.8621354e-06
9.9713083e-06
1.1165408e-05
1.2433946e-05
1.3763731e-05
1.5124629e-05
1.6505802e-05
1.7888586e-05
1.9254936e-05
2.0605699e-05
2.1889845e-05
2.3125366e-05
2.432448e-05
2.5482482e-05
2.6591975e-05
2.763912e-05
2.8631079e-05
2.9580276e-05
3.0493405e-05
3.1376287e-05
3.2144731e-05
3.2833103e-05
3.3487694e-05
3.4112557e-05
3.4710282e-05
3.5282295e-05
3.5829707e-05
3.6354466e-05
3.6855591e-05
3.7331577e-05
3.7783693e-05
3.8213938e-05
3.8624053e-05
3.9015321e-05
3.9389274e-05
3.9745179e-05
4.0082661e-05
4.0402651e-05
4.0706478e-05
4.0995221e-05
4.1270207e-05
4.1530893e-05
4.1777133e-05
4.2009724e-05
4.2229704e-05
4.2438159e-05
4.2635256e-05
4.2820381e-05
4.2995037e-05
4.3156345e-05
4.3316773e-05
4.3434387e-05
4.3644704e-05
1.0119106e-07
1.0124539e-07
1.0130237e-07
1.0135907e-07
1.0141475e-07
1.0146922e-07
1.0152241e-07
1.0157431e-07
1.016249e-07
1.016742e-07
1.0172227e-07
1.0176925e-07
1.0181548e-07
1.0186195e-07
1.0190844e-07
1.0195566e-07
1.0200123e-07
1.020328e-07
1.0206077e-07
1.0209078e-07
1.0213126e-07
1.02182e-07
1.0223944e-07
1.0230612e-07
1.0237832e-07
1.024585e-07
1.02551e-07
1.0267629e-07
1.0285779e-07
1.0313691e-07
1.0358543e-07
1.0433732e-07
1.0562989e-07
1.0790324e-07
1.1200238e-07
1.1948882e-07
1.3340291e-07
1.5875794e-07
2.0531475e-07
2.8903508e-07
4.2985012e-07
6.4856164e-07
9.6960355e-07
1.3855398e-06
1.9205067e-06
2.4773423e-06
3.0370569e-06
3.6980928e-06
4.4878785e-06
5.4284471e-06
6.5597032e-06
7.8930885e-06
9.467961e-06
1.0767473e-05
1.2049904e-05
1.3419719e-05
1.48665e-05
1.6363045e-05
1.7909602e-05
1.9479945e-05
2.1050091e-05
2.2593778e-05
2.4068284e-05
2.5534047e-05
2.698969e-05
2.8421153e-05
2.9801588e-05
3.1122688e-05
3.2390195e-05
3.3611515e-05
3.4789601e-05
3.591746e-05
3.6995159e-05
3.8029137e-05
3.9030417e-05
3.9923843e-05
4.0726344e-05
4.1493894e-05
4.2229662e-05
4.2935794e-05
4.3613609e-05
4.4265201e-05
4.4888067e-05
4.5481749e-05
4.6048181e-05
4.6589455e-05
4.7107115e-05
4.7603015e-05
4.8075951e-05
4.8525913e-05
4.8954206e-05
4.9362301e-05
4.9751708e-05
5.0122542e-05
5.0474144e-05
5.0808737e-05
5.1122237e-05
5.1433953e-05
5.1673484e-05
5.2094958e-05
1.0101044e-07
1.0106397e-07
1.0111997e-07
1.0117557e-07
1.0123008e-07
1.012833e-07
1.0133518e-07
1.0138567e-07
1.0143477e-07
1.0148247e-07
1.0152877e-07
1.0157372e-07
1.0161743e-07
1.0166008e-07
1.0170182e-07
1.0174263e-07
1.0178248e-07
1.0182097e-07
1.0185785e-07
1.0189287e-07
1.019257e-07
1.0195556e-07
1.0197995e-07
1.0199647e-07
1.0201086e-07
1.0202512e-07
1.0204062e-07
1.0205919e-07
1.0208488e-07
1.0211924e-07
1.0216348e-07
1.0221179e-07
1.0226597e-07
1.0232846e-07
1.0239605e-07
1.0246932e-07
1.0256684e-07
1.0272434e-07
1.0300784e-07
1.0359338e-07
1.0491129e-07
1.079096e-07
1.151509e-07
1.3197489e-07
1.7200607e-07
2.6193805e-07
4.3691056e-07
7.4268917e-07
1.1994139e-06
1.8338952e-06
2.5368942e-06
3.2040284e-06
3.9773785e-06
4.8878191e-06
5.9936612e-06
7.3384839e-06
8.9197405e-06
1.0776398e-05
1.2228458e-05
1.362258e-05
1.5120201e-05
1.670724e-05
1.8357942e-05
2.0073188e-05
2.1814746e-05
2.3563007e-05
2.5247355e-05
2.6940648e-05
2.865249e-05
3.0357491e-05
3.2012881e-05
3.3615761e-05
3.5179532e-05
3.6709356e-05
3.8201982e-05
3.9637436e-05
4.1008328e-05
4.2324659e-05
4.3592718e-05
4.4811454e-05
4.598123e-05
4.7111952e-05
4.8100829e-05
4.9018105e-05
4.9898432e-05
5.0744432e-05
5.1557792e-05
5.2340832e-05
5.3090018e-05
5.3805863e-05
5.4490712e-05
5.5146616e-05
5.5775591e-05
5.6377327e-05
5.6950929e-05
5.7499443e-05
5.8017598e-05
5.8532727e-05
5.8939621e-05
5.9646797e-05
1.0104469e-07
1.0109785e-07
1.0115341e-07
1.0120855e-07
1.0126254e-07
1.0131521e-07
1.013665e-07
1.0141635e-07
1.0146477e-07
1.0151172e-07
1.0155719e-07
1.0160118e-07
1.0164372e-07
1.016848e-07
1.0172437e-07
1.0176236e-07
1.0179873e-07
1.018335e-07
1.0186669e-07
1.0189829e-07
1.0192824e-07
1.0195645e-07
1.0198281e-07
1.020071e-07
1.0202919e-07
1.0204904e-07
1.0206662e-07
1.0208188e-07
1.0209479e-07
1.0210519e-07
1.0211272e-07
1.0211645e-07
1.0211391e-07
1.0210385e-07
1.0209251e-07
1.0208207e-07
1.0207483e-07
1.0207401e-07
1.0209064e-07
1.0212254e-07
1.0216157e-07
1.0221904e-07
1.0228676e-07
1.023793e-07
1.0256541e-07
1.0303854e-07
1.0435067e-07
1.0824252e-07
1.1934176e-07
1.5086353e-07
2.3578063e-07
4.2014133e-07
7.7206301e-07
1.3088192e-06
2.0905517e-06
2.8557021e-06
3.6524438e-06
4.6130721e-06
5.7723123e-06
7.1800479e-06
8.8647099e-06
1.0830667e-05
1.2930126e-05
1.4371258e-05
1.5931478e-05
1.7605438e-05
1.9363156e-05
2.1212454e-05
2.3115776e-05
2.5045827e-05
2.6923002e-05
2.8828623e-05
3.0767968e-05
3.270778e-05
3.4602018e-05
3.6465118e-05
3.8308702e-05
4.0123067e-05
4.18901e-05
4.3600969e-05
4.525948e-05
4.6875366e-05
4.8429827e-05
4.9914008e-05
5.1337201e-05
5.2707677e-05
5.4026359e-05
5.5300297e-05
5.6402774e-05
5.7443983e-05
5.8445137e-05
5.9408476e-05
6.0336421e-05
6.1226928e-05
6.2078765e-05
6.2896392e-05
6.3673516e-05
6.4446338e-05
6.5068675e-05
6.6139714e-05
1.0110432e-07
1.0115751e-07
1.0121311e-07
1.0126828e-07
1.0132231e-07
1.0137502e-07
1.0142634e-07
1.0147624e-07
1.015247e-07
1.0157169e-07
1.0161721e-07
1.0166125e-07
1.0170383e-07
1.0174497e-07
1.0178462e-07
1.0182272e-07
1.0185921e-07
1.0189406e-07
1.0192724e-07
1.0195872e-07
1.019885e-07
1.0201654e-07
1.0204285e-07
1.0206742e-07
1.0209024e-07
1.0211128e-07
1.0213049e-07
1.0214783e-07
1.0216322e-07
1.021766e-07
1.0218787e-07
1.0219693e-07
1.0220366e-07
1.0220782e-07
1.0220934e-07
1.0220821e-07
1.0220446e-07
1.02198e-07
1.0218887e-07
1.0217627e-07
1.0215878e-07
1.0212589e-07
1.020908e-07
1.0205856e-07
1.0203782e-07
1.0204527e-07
1.0207142e-07
1.0212911e-07
1.0220167e-07
1.023322e-07
1.0271679e-07
1.038917e-07
1.0818983e-07
1.2130121e-07
1.6500485e-07
2.8583592e-07
5.5248327e-07
1.0307291e-06
1.8138237e-06
2.7071671e-06
3.5965426e-06
4.6094944e-06
5.8918326e-06
7.4472899e-06
9.3154052e-06
1.1487309e-05
1.3940897e-05
1.5629624e-05
1.7298185e-05
1.9094735e-05
2.0989011e-05
2.2990492e-05
2.5055213e-05
2.7141639e-05
2.919137e-05
3.1311322e-05
3.3483741e-05
3.5652685e-05
3.7792109e-05
3.9911503e-05
4.2012229e-05
4.4080372e-05
4.6108305e-05
4.8087965e-05
5.0019845e-05
5.1895446e-05
5.3707858e-05
5.5466277e-05
5.7153884e-05
5.8767455e-05
6.0314368e-05
6.1803265e-05
6.3242443e-05
6.4528364e-05
6.5712367e-05
6.6853499e-05
6.7944119e-05
6.9029489e-05
6.991619e-05
7.1430429e-05
1.0115792e-07
1.0121114e-07
1.0126679e-07
1.01322e-07
1.0137608e-07
1.0142884e-07
1.0148021e-07
1.0153016e-07
1.0157867e-07
1.0162572e-07
1.016713e-07
1.017154e-07
1.0175805e-07
1.0179924e-07
1.0183897e-07
1.0187718e-07
1.0191381e-07
1.0194883e-07
1.0198221e-07
1.0201392e-07
1.0204394e-07
1.0207225e-07
1.0209882e-07
1.0212364e-07
1.0214669e-07
1.0216795e-07
1.0218741e-07
1.0220504e-07
1.0222083e-07
1.0223476e-07
1.0224681e-07
1.0225698e-07
1.0226525e-07
1.0227163e-07
1.0227609e-07
1.022786e-07
1.022791e-07
1.0227756e-07
1.0227385e-07
1.0226784e-07
1.0225945e-07
1.0224823e-07
1.0223396e-07
1.0221657e-07
1.0219607e-07
1.0217176e-07
1.0214352e-07
1.0209275e-07
1.0203938e-07
1.0199185e-07
1.019785e-07
1.019946e-07
1.0205271e-07
1.0212504e-07
1.0229596e-07
1.0284392e-07
1.0504013e-07
1.1258795e-07
1.4146595e-07
2.3588535e-07
4.7836528e-07
9.4357297e-07
1.7782839e-06
2.7662131e-06
3.7711377e-06
4.9156886e-06
6.3872096e-06
8.1922493e-06
1.0357267e-05
1.2838017e-05
1.5575105e-05
1.742475e-05
1.9251094e-05
2.1205615e-05
2.3264783e-05
2.5432777e-05
2.7668116e-05
2.9904648e-05
3.2183189e-05
3.4542334e-05
3.693881e-05
3.9317348e-05
4.1692999e-05
4.4072997e-05
4.6438814e-05
4.8760895e-05
5.1032911e-05
5.3262181e-05
5.5451739e-05
5.7578905e-05
5.9640576e-05
6.1637866e-05
6.3572028e-05
6.5427347e-05
6.7201173e-05
6.8902536e-05
7.0535117e-05
7.2138448e-05
7.3355313e-05
7.5390368e-05
1.0121787e-07
1.0127111e-07
1.0132677e-07
1.0138199e-07
1.0143608e-07
1.0148884e-07
1.0154021e-07
1.0159016e-07
1.0163866e-07
1.016857e-07
1.0173126e-07
1.0177534e-07
1.0181794e-07
1.0185906e-07
1.0189868e-07
1.0193676e-07
1.0197326e-07
1.0200813e-07
1.0204136e-07
1.0207292e-07
1.0210279e-07
1.0213095e-07
1.0215737e-07
1.0218205e-07
1.0220496e-07
1.0222607e-07
1.0224538e-07
1.0226287e-07
1.0227851e-07
1.0229229e-07
1.023042e-07
1.0231423e-07
1.0232236e-07
1.0232858e-07
1.023329e-07
1.0233529e-07
1.0233577e-07
1.0233432e-07
1.0233093e-07
1.0232561e-07
1.0231835e-07
1.0230918e-07
1.0229811e-07
1.0228509e-07
1.0227005e-07
1.0225276e-07
1.0223319e-07
1.0221052e-07
1.0218442e-07
1.0215483e-07
1.0212104e-07
1.0208437e-07
1.0202111e-07
1.0195283e-07
1.0189703e-07
1.0187983e-07
1.0190479e-07
1.0196804e-07
1.0208748e-07
1.0242974e-07
1.0411974e-07
1.1023602e-07
1.3702259e-07
2.3403097e-07
5.0382077e-07
1.0313301e-06
2.0160914e-06
3.0812918e-06
4.2379481e-06
5.6130386e-06
7.4035052e-06
9.5827811e-06
1.2166229e-05
1.5035657e-05
1.7939179e-05
1.982782e-05
2.1850238e-05
2.3989925e-05
2.6247156e-05
2.8601641e-05
3.1008998e-05
3.3426526e-05
3.5956922e-05
3.8568538e-05
4.1183413e-05
4.3807472e-05
4.6447003e-05
4.9081497e-05
5.1689809e-05
5.426278e-05
5.6799087e-05
5.9279965e-05
6.1694034e-05
6.4055391e-05
6.6355908e-05
6.8580722e-05
7.0727466e-05
7.2834157e-05
7.4663229e-05
7.7560889e-05
1.0129401e-07
1.0134725e-07
1.0140291e-07
1.0145813e-07
1.0151222e-07
1.0156497e-07
1.0161632e-07
1.0166625e-07
1.0171473e-07
1.0176174e-07
1.0180726e-07
1.0185128e-07
1.018938e-07
1.019348e-07
1.0197428e-07
1.0201219e-07
1.0204848e-07
1.0208313e-07
1.0211612e-07
1.0214742e-07
1.0217701e-07
1.0220489e-07
1.0223101e-07
1.0225538e-07
1.0227797e-07
1.0229876e-07
1.0231773e-07
1.0233488e-07
1.0235017e-07
1.023636e-07
1.0237516e-07
1.0238482e-07
1.0239258e-07
1.0239842e-07
1.0240233e-07
1.0240432e-07
1.0240436e-07
1.0240246e-07
1.023986e-07
1.023928e-07
1.0238504e-07
1.0237534e-07
1.0236369e-07
1.0235012e-07
1.0233461e-07
1.0231719e-07
1.0229785e-07
1.0227666e-07
1.0225363e-07
1.0222873e-07
1.0220167e-07
1.0217242e-07
1.0213991e-07
1.0210371e-07
1.0206345e-07
1.0201942e-07
1.0196529e-07
1.0188609e-07
1.0180638e-07
1.0176937e-07
1.0178238e-07
1.0184306e-07
1.0195946e-07
1.0226163e-07
1.042127e-07
1.1126181e-07
1.4736791e-07
2.8293776e-07
6.4167338e-07
1.3852791e-06
2.5619454e-06
3.7882801e-06
5.1721476e-06
6.9205016e-06
9.1784416e-06
1.1921419e-05
1.4974928e-05
1.8218863e-05
2.0766104e-05
2.2896349e-05
2.5145112e-05
2.7499149e-05
2.9974399e-05
3.2540135e-05
3.5101898e-05
3.7809572e-05
4.0628915e-05
4.3469202e-05
4.6336094e-05
4.9239217e-05
5.2153539e-05
5.5040991e-05
5.7891751e-05
6.0714909e-05
6.3493258e-05
6.6209038e-05
6.8853525e-05
7.1459155e-05
7.3780135e-05
7.7501781e-05
1.0137843e-07
1.0143169e-07
1.0148738e-07
1.0154262e-07
1.0159673e-07
1.016495e-07
1.0170087e-07
1.0175081e-07
1.017993e-07
1.0184632e-07
1.0189184e-07
1.0193586e-07
1.0197836e-07
1.0201933e-07
1.0205876e-07
1.0209661e-07
1.0213283e-07
1.0216741e-07
1.0220031e-07
1.0223152e-07
1.0226102e-07
1.0228878e-07
1.0231479e-07
1.0233903e-07
1.0236147e-07
1.0238212e-07
1.0240093e-07
1.0241791e-07
1.0243303e-07
1.0244627e-07
1.0245763e-07
1.0246709e-07
1.0247463e-07
1.0248025e-07
1.0248393e-07
1.0248567e-07
1.0248546e-07
1.0248329e-07
1.0247916e-07
1.0247306e-07
1.0246499e-07
1.0245495e-07
1.0244294e-07
1.0242895e-07
1.02413e-07
1.0239509e-07
1.0237522e-07
1.023534e-07
1.0232966e-07
1.0230401e-07
1.0227647e-07
1.0224704e-07
1.0221581e-07
1.0218282e-07
1.0214797e-07
1.0211101e-07
1.0207153e-07
1.0202842e-07
1.0198095e-07
1.0192936e-07
1.0187227e-07
1.0178167e-07
1.0168738e-07
1.0163995e-07
1.0165155e-07
1.0171948e-07
1.0183208e-07
1.0239961e-07
1.0505513e-07
1.196118e-07
1.8796546e-07
4.3495753e-07
1.0048344e-06
2.1609885e-06
3.4770594e-06
4.950112e-06
6.7755327e-06
9.1323728e-06
1.2082275e-05
1.5378562e-05
1.8857817e-05
2.2096407e-05
2.4365667e-05
2.6739172e-05
2.9203914e-05
3.1811815e-05
3.4529146e-05
3.7257759e-05
4.0150911e-05
4.3179653e-05
4.6247749e-05
4.9364472e-05
5.2530848e-05
5.5715205e-05
5.888513e-05
6.2033461e-05
6.5140317e-05
6.8230352e-05
7.0990506e-05
7.5499385e-05
1.0146028e-07
1.0151359e-07
1.0156931e-07
1.0162461e-07
1.0167875e-07
1.0173157e-07
1.0178298e-07
1.0183297e-07
1.018815e-07
1.0192856e-07
1.0197412e-07
1.0201818e-07
1.0206071e-07
1.0210172e-07
1.0214118e-07
1.0217906e-07
1.0221532e-07
1.0224994e-07
1.0228289e-07
1.0231415e-07
1.0234369e-07
1.023715e-07
1.0239756e-07
1.0242184e-07
1.0244433e-07
1.0246502e-07
1.0248387e-07
1.0250088e-07
1.0251603e-07
1.0252929e-07
1.0254067e-07
1.0255014e-07
1.0255769e-07
1.0256332e-07
1.02567e-07
1.0256873e-07
1.025685e-07
1.0256631e-07
1.0256215e-07
1.0255602e-07
1.0254791e-07
1.0253781e-07
1.0252574e-07
1.0251169e-07
1.0249566e-07
1.0247765e-07
1.0245767e-07
1.0243572e-07
1.0241181e-07
1.0238594e-07
1.0235812e-07
1.0232837e-07
1.0229671e-07
1.0226315e-07
1.0222772e-07
1.0219046e-07
1.0215137e-07
1.0211057e-07
1.0206809e-07
1.0202358e-07
1.0197681e-07
1.0192631e-07
1.0187096e-07
1.0181171e-07
1.0174558e-07
1.0164169e-07
1.015431e-07
1.0149707e-07
1.0151716e-07
1.0159227e-07
1.0181079e-07
1.0297538e-07
1.1041157e-07
1.5209161e-07
3.3073868e-07
8.1705177e-07
1.9550896e-06
3.3604367e-06
4.9547049e-06
6.9306349e-06
9.4629325e-06
1.2706804e-05
1.630328e-05
2.0049135e-05
2.3826708e-05
2.6264277e-05
2.8774913e-05
3.1371983e-05
3.4124079e-05
3.6998693e-05
3.9902868e-05
4.3009682e-05
4.6265648e-05
4.9576797e-05
5.2956801e-05
5.6399818e-05
5.985423e-05
6.3351087e-05
6.6497123e-05
7.1736095e-05
1.0153698e-07
1.0159033e-07
1.016461e-07
1.0170143e-07
1.0175562e-07
1.0180848e-07
1.0185994e-07
1.0190997e-07
1.0195854e-07
1.0200564e-07
1.0205124e-07
1.0209534e-07
1.0213792e-07
1.0217896e-07
1.0221846e-07
1.0225637e-07
1.0229268e-07
1.0232734e-07
1.0236034e-07
1.0239165e-07
1.0242125e-07
1.0244913e-07
1.0247524e-07
1.0249959e-07
1.0252215e-07
1.025429e-07
1.0256182e-07
1.0257889e-07
1.0259411e-07
1.0260744e-07
1.0261888e-07
1.0262842e-07
1.0263604e-07
1.0264172e-07
1.0264547e-07
1.0264726e-07
1.026471e-07
1.0264496e-07
1.0264086e-07
1.0263478e-07
1.0262672e-07
1.0261669e-07
1.0260467e-07
1.0259066e-07
1.0257468e-07
1.0255672e-07
1.0253678e-07
1.0251488e-07
1.0249101e-07
1.0246518e-07
1.024374e-07
1.0240767e-07
1.0237601e-07
1.0234243e-07
1.0230693e-07
1.0226953e-07
1.0223025e-07
1.0218912e-07
1.0214617e-07
1.0210143e-07
1.020549e-07
1.0200676e-07
1.0195702e-07
1.0190535e-07
1.0185142e-07
1.0179332e-07
1.0173033e-07
1.0166305e-07
1.0158233e-07
1.0146597e-07
1.0138075e-07
1.0136048e-07
1.0142449e-07
1.0157139e-07
1.0218961e-07
1.0703025e-07
1.3986912e-07
2.9174572e-07
7.542323e-07
1.9465663e-06
3.4660133e-06
5.2214127e-06
7.4227312e-06
1.0254874e-05
1.3873268e-05
1.7815703e-05
2.1849621e-05
2.5899791e-05
2.8576372e-05
3.1242127e-05
3.400203e-05
3.6930727e-05
3.9979448e-05
4.3100743e-05
4.6444301e-05
4.99325e-05
5.3495193e-05
5.7216505e-05
6.0608274e-05
6.6423147e-05
1.0160874e-07
1.0166212e-07
1.0171793e-07
1.0177331e-07
1.0182754e-07
1.0188043e-07
1.0193193e-07
1.01982e-07
1.0203061e-07
1.0207775e-07
1.0212339e-07
1.0216752e-07
1.0221013e-07
1.022512e-07
1.0229072e-07
1.0232867e-07
1.02365e-07
1.023997e-07
1.0243273e-07
1.0246408e-07
1.0249373e-07
1.0252164e-07
1.025478e-07
1.0257219e-07
1.0259479e-07
1.0261558e-07
1.0263455e-07
1.0265167e-07
1.0266693e-07
1.0268031e-07
1.026918e-07
1.0270138e-07
1.0270904e-07
1.0271477e-07
1.0271856e-07
1.027204e-07
1.0272027e-07
1.0271819e-07
1.0271413e-07
1.0270809e-07
1.0270008e-07
1.0269008e-07
1.026781e-07
1.0266414e-07
1.026482e-07
1.0263029e-07
1.026104e-07
1.0258854e-07
1.0256471e-07
1.0253893e-07
1.025112e-07
1.0248152e-07
1.0244992e-07
1.0241639e-07
1.0238094e-07
1.023436e-07
1.0230437e-07
1.0226326e-07
1.022203e-07
1.0217549e-07
1.0212885e-07
1.0208042e-07
1.0203025e-07
1.0197836e-07
1.0192477e-07
1.0186968e-07
1.0181305e-07
1.0175453e-07
1.0169338e-07
1.0162779e-07
1.0155606e-07
1.0148459e-07
1.0136175e-07
1.0124462e-07
1.0119032e-07
1.0122645e-07
1.0135587e-07
1.0177107e-07
1.0594509e-07
1.3864964e-07
2.9579967e-07
8.0228345e-07
2.1542516e-06
3.8398489e-06
5.8006435e-06
8.3119708e-06
1.1627683e-05
1.5668624e-05
1.9966592e-05
2.4286948e-05
2.8551305e-05
3.1358596e-05
3.4185757e-05
3.7129571e-05
4.0248762e-05
4.347582e-05
4.6854096e-05
5.0536441e-05
5.3909946e-05
5.9986698e-05
1.0167592e-07
1.0172934e-07
1.0178518e-07
1.0184059e-07
1.0189486e-07
1.0194779e-07
1.0199932e-07
1.0204943e-07
1.0209807e-07
1.0214525e-07
1.0219092e-07
1.0223509e-07
1.0227773e-07
1.0231883e-07
1.0235837e-07
1.0239634e-07
1.0243269e-07
1.0246742e-07
1.0250048e-07
1.0253186e-07
1.0256153e-07
1.0258947e-07
1.0261566e-07
1.0264008e-07
1.0266272e-07
1.0268354e-07
1.0270254e-07
1.0271969e-07
1.0273498e-07
1.0274839e-07
1.0275991e-07
1.0276952e-07
1.0277721e-07
1.0278297e-07
1.0278678e-07
1.0278864e-07
1.0278855e-07
1.0278649e-07
1.0278245e-07
1.0277644e-07
1.0276845e-07
1.0275847e-07
1.0274652e-07
1.0273258e-07
1.0271666e-07
1.0269877e-07
1.026789e-07
1.0265706e-07
1.0263325e-07
1.0260749e-07
1.0257978e-07
1.0255012e-07
1.0251854e-07
1.0248503e-07
1.0244962e-07
1.024123e-07
1.023731e-07
1.0233202e-07
1.0228909e-07
1.0224431e-07
1.021977e-07
1.0214928e-07
1.0209907e-07
1.0204709e-07
1.0199336e-07
1.0193791e-07
1.0188081e-07
1.0182209e-07
1.0176178e-07
1.0170015e-07
1.0163682e-07
1.015718e-07
1.0150261e-07
1.0142671e-07
1.0135057e-07
1.0123804e-07
1.0110521e-07
1.0103524e-07
1.0105342e-07
1.0120743e-07
1.0151582e-07
1.0646806e-07
1.482497e-07
3.4724398e-07
9.9887125e-07
2.6001738e-06
4.5131948e-06
6.8168746e-06
9.785733e-06
1.3670551e-05
1.8153038e-05
2.2790625e-05
2.7394194e-05
3.1597537e-05
3.4584956e-05
3.7607438e-05
4.0772352e-05
4.4166675e-05
4.7232286e-05
5.3146847e-05
1.0173882e-07
1.0179227e-07
1.0184815e-07
1.0190359e-07
1.0195789e-07
1.0201086e-07
1.0206242e-07
1.0211256e-07
1.0216124e-07
1.0220844e-07
1.0225415e-07
1.0229834e-07
1.0234101e-07
1.0238214e-07
1.024217e-07
1.0245969e-07
1.0249606e-07
1.025308e-07
1.0256389e-07
1.0259529e-07
1.0262498e-07
1.0265294e-07
1.0267916e-07
1.0270361e-07
1.0272626e-07
1.0274711e-07
1.0276613e-07
1.027833e-07
1.0279862e-07
1.0281205e-07
1.0282359e-07
1.0283322e-07
1.0284093e-07
1.0284671e-07
1.0285054e-07
1.0285242e-07
1.0285234e-07
1.028503e-07
1.0284628e-07
1.0284028e-07
1.028323e-07
1.0282234e-07
1.0281039e-07
1.0279647e-07
1.0278056e-07
1.0276267e-07
1.0274281e-07
1.0272098e-07
1.0269718e-07
1.0267142e-07
1.0264372e-07
1.0261407e-07
1.0258249e-07
1.0254898e-07
1.0251357e-07
1.0247626e-07
1.0243706e-07
1.0239599e-07
1.0235305e-07
1.0230828e-07
1.0226168e-07
1.0221327e-07
1.0216307e-07
1.0211109e-07
1.0205737e-07
1.020019e-07
1.0194472e-07
1.0188586e-07
1.0182533e-07
1.0176319e-07
1.0169951e-07
1.0163425e-07
1.0156775e-07
1.0149985e-07
1.0143043e-07
1.0135779e-07
1.0127827e-07
1.0119801e-07
1.010884e-07
1.0094536e-07
1.0086865e-07
1.0088575e-07
1.0109514e-07
1.0145682e-07
1.0955473e-07
1.7623339e-07
4.6895127e-07
1.5133562e-06
3.3373861e-06
5.516542e-06
8.2791367e-06
1.1942156e-05
1.6466066e-05
2.1406102e-05
2.6353551e-05
3.1245401e-05
3.5169075e-05
3.8370392e-05
4.1284191e-05
4.6718847e-05
1.0179771e-07
1.0185119e-07
1.019071e-07
1.0196258e-07
1.0201691e-07
1.0206991e-07
1.0212151e-07
1.0217167e-07
1.0222038e-07
1.0226762e-07
1.0231335e-07
1.0235757e-07
1.0240026e-07
1.0244141e-07
1.0248099e-07
1.0251899e-07
1.0255539e-07
1.0259014e-07
1.0262324e-07
1.0265466e-07
1.0268437e-07
1.0271235e-07
1.0273858e-07
1.0276304e-07
1.0278572e-07
1.0280658e-07
1.0282562e-07
1.0284281e-07
1.0285813e-07
1.0287158e-07
1.0288314e-07
1.0289278e-07
1.029005e-07
1.029063e-07
1.0291014e-07
1.0291203e-07
1.0291196e-07
1.0290993e-07
1.0290591e-07
1.0289992e-07
1.0289195e-07
1.02882e-07
1.0287006e-07
1.0285613e-07
1.0284023e-07
1.0282234e-07
1.0280248e-07
1.0278065e-07
1.0275685e-07
1.0273109e-07
1.0270338e-07
1.0267373e-07
1.0264215e-07
1.0260864e-07
1.0257322e-07
1.025359e-07
1.0249669e-07
1.0245561e-07
1.0241267e-07
1.0236789e-07
1.0232128e-07
1.0227286e-07
1.0222265e-07
1.0217067e-07
1.0211693e-07
1.0206146e-07
1.0200427e-07
1.019454e-07
1.0188485e-07
1.0182266e-07
1.0175885e-07
1.0169343e-07
1.0162647e-07
1.0155804e-07
1.0148813e-07
1.0141697e-07
1.0134463e-07
1.0127082e-07
1.0119452e-07
1.0111022e-07
1.0102794e-07
1.0090627e-07
1.0075958e-07
1.006776e-07
1.0075231e-07
1.0092125e-07
1.0221918e-07
1.2111407e-07
2.5037235e-07
7.5450908e-07
2.355506e-06
4.5290382e-06
7.1280555e-06
1.0527022e-05
1.5015898e-05
2.0139332e-05
2.5430858e-05
3.0764765e-05
3.5432777e-05
4.0865642e-05
1.0185286e-07
1.0190637e-07
1.0196231e-07
1.0201782e-07
1.0207218e-07
1.021252e-07
1.0217683e-07
1.0222702e-07
1.0227576e-07
1.0232302e-07
1.0236878e-07
1.0241303e-07
1.0245574e-07
1.0249691e-07
1.0253651e-07
1.0257452e-07
1.0261092e-07
1.0264569e-07
1.026788e-07
1.0271023e-07
1.0273995e-07
1.0276794e-07
1.0279419e-07
1.0281866e-07
1.0284135e-07
1.0286222e-07
1.0288127e-07
1.0289847e-07
1.029138e-07
1.0292726e-07
1.0293882e-07
1.0294847e-07
1.029562e-07
1.02962e-07
1.0296585e-07
1.0296775e-07
1.0296768e-07
1.0296565e-07
1.0296164e-07
1.0295565e-07
1.0294768e-07
1.0293772e-07
1.0292578e-07
1.0291186e-07
1.0289595e-07
1.0287806e-07
1.0285819e-07
1.0283635e-07
1.0281255e-07
1.0278678e-07
1.0275906e-07
1.027294e-07
1.0269781e-07
1.0266429e-07
1.0262886e-07
1.0259152e-07
1.025523e-07
1.0251121e-07
1.0246825e-07
1.0242345e-07
1.0237683e-07
1.0232839e-07
1.0227816e-07
1.0222616e-07
1.021724e-07
1.021169e-07
1.020597e-07
1.020008e-07
1.0194024e-07
1.0187803e-07
1.0181419e-07
1.0174876e-07
1.0168175e-07
1.016132e-07
1.0154312e-07
1.0147155e-07
1.0139859e-07
1.0132424e-07
1.012487e-07
1.0117206e-07
1.0109415e-07
1.0101387e-07
1.0092325e-07
1.0084202e-07
1.0068369e-07
1.0055749e-07
1.0049983e-07
1.0066731e-07
1.0069349e-07
1.0520898e-07
1.5648521e-07
4.3793328e-07
1.5022851e-06
3.5607514e-06
6.1058796e-06
9.371748e-06
1.377922e-05
1.9176103e-05
2.4252519e-05
3.3000794e-05
1.019045e-07
1.0195804e-07
1.0201401e-07
1.0206954e-07
1.0212393e-07
1.0217698e-07
1.0222863e-07
1.0227885e-07
1.0232762e-07
1.023749e-07
1.0242069e-07
1.0246496e-07
1.0250769e-07
1.0254887e-07
1.0258849e-07
1.0262651e-07
1.0266292e-07
1.026977e-07
1.0273082e-07
1.0276225e-07
1.0279198e-07
1.0281998e-07
1.0284623e-07
1.0287071e-07
1.028934e-07
1.0291428e-07
1.0293333e-07
1.0295053e-07
1.0296587e-07
1.0297933e-07
1.029909e-07
1.0300055e-07
1.0300828e-07
1.0301408e-07
1.0301793e-07
1.0301983e-07
1.0301976e-07
1.0301773e-07
1.0301371e-07
1.0300772e-07
1.0299975e-07
1.0298978e-07
1.0297784e-07
1.029639e-07
1.0294799e-07
1.0293009e-07
1.0291021e-07
1.0288836e-07
1.0286454e-07
1.0283876e-07
1.0281103e-07
1.0278135e-07
1.0274974e-07
1.027162e-07
1.0268075e-07
1.026434e-07
1.0260416e-07
1.0256304e-07
1.0252006e-07
1.0247524e-07
1.0242859e-07
1.0238013e-07
1.0232987e-07
1.0227784e-07
1.0222405e-07
1.0216853e-07
1.021113e-07
1.0205237e-07
1.0199177e-07
1.0192953e-07
1.0186567e-07
1.018002e-07
1.0173317e-07
1.0166458e-07
1.0159447e-07
1.0152286e-07
1.0144978e-07
1.0137526e-07
1.0129932e-07
1.0122208e-07
1.0114349e-07
1.0106394e-07
1.009831e-07
1.0090192e-07
1.0081561e-07
1.007215e-07
1.0062943e-07
1.0045914e-07
1.0034547e-07
1.0038754e-07
1.004807e-07
1.0156212e-07
1.2024241e-07
2.6827557e-07
9.0316105e-07
2.8239184e-06
5.3443045e-06
8.7639464e-06
1.2280506e-05
2.1188265e-05
1.0195289e-07
1.0200645e-07
1.0206245e-07
1.0211801e-07
1.0217242e-07
1.022255e-07
1.0227717e-07
1.0232742e-07
1.0237621e-07