/*--------------------------------*- C++ -*----------------------------------*\
  =========                 |
  \\      /  F ield         | OpenFOAM: The Open Source CFD Toolbox
   \\    /   O peration     | Website:  https://openfoam.org
    \\  /    A nd           | Version:  12
     \\/     M anipulation  |
\*---------------------------------------------------------------------------*/
FoamFile
{
    format      ascii;
    class       volScalarField;
    location    "200";
    object      nut;
}
// * * * * * * * * * * * * * * * * * * * * * * * * * * * * * * * * * * * * * //

dimensions      [0 2 -1 0 0 0 0];

internalField   nonuniform List<scalar> 
13056
(
1.9564079e-07
1.7674603e-07
1.7434556e-07
1.733088e-07
1.7290532e-07
1.7273493e-07
1.7264542e-07
1.7259235e-07
1.7255966e-07
1.7254008e-07
1.7252991e-07
1.7252702e-07
1.7253008e-07
1.7253831e-07
1.7255128e-07
1.7256891e-07
1.7259144e-07
1.7261956e-07
1.7265465e-07
1.7269833e-07
1.7276509e-07
1.7280448e-07
1.7313655e-07
1.579486e-07
5.4645537e-16
1.1092212e-15
1.9774247e-15
2.1958434e-15
2.1310331e-15
2.0066885e-15
1.8945562e-15
1.8001071e-15
1.7187209e-15
1.6477908e-15
1.5855253e-15
1.5298826e-15
1.4785873e-15
1.4314738e-15
1.3882985e-15
1.3486351e-15
1.3120424e-15
1.278051e-15
1.2463678e-15
1.2167945e-15
1.1890413e-15
1.162943e-15
1.1382966e-15
1.1149763e-15
1.0928646e-15
1.0718381e-15
1.0518305e-15
1.0327338e-15
1.0144581e-15
9.9696155e-16
9.8017384e-16
9.6402925e-16
9.4849934e-16
9.335381e-16
9.190909e-16
9.0513195e-16
8.9163663e-16
8.7856515e-16
8.6582171e-16
8.5339751e-16
8.4133268e-16
8.2960063e-16
8.1817643e-16
8.0704772e-16
7.9620217e-16
7.8562014e-16
7.7528133e-16
7.6517493e-16
7.5529439e-16
7.4562678e-16
7.3615529e-16
7.2686977e-16
7.1776421e-16
7.0883127e-16
7.0005983e-16
6.9143851e-16
6.8296064e-16
6.7462436e-16
6.6642285e-16
6.58345e-16
6.5038354e-16
6.4253454e-16
6.3479505e-16
6.2715803e-16
6.196142e-16
6.1215955e-16
6.0479502e-16
5.9751744e-16
5.9031883e-16
5.8319286e-16
5.7613705e-16
5.6915073e-16
5.6222899e-16
5.5536386e-16
5.4855162e-16
5.4179259e-16
5.3508299e-16
5.2841469e-16
5.2178304e-16
5.1518745e-16
5.0862452e-16
5.0208658e-16
4.9556869e-16
4.8906972e-16
4.8258532e-16
4.7610772e-16
4.6963227e-16
4.6315598e-16
4.5667374e-16
4.5031555e-16
4.442776e-16
4.3860416e-16
4.3325746e-16
4.2820054e-16
4.2338576e-16
4.1881253e-16
4.1446211e-16
4.1031631e-16
4.0636009e-16
4.0257916e-16
3.9895934e-16
3.95488e-16
3.9215467e-16
3.889502e-16
3.8586594e-16
3.8289062e-16
3.8001966e-16
3.7722558e-16
3.7454293e-16
3.7181549e-16
3.6942158e-16
3.6553517e-16
1.9564106e-07
1.7672185e-07
1.7431812e-07
1.7327826e-07
1.7287356e-07
1.7270264e-07
1.7261285e-07
1.725596e-07
1.7252678e-07
1.7250711e-07
1.7249688e-07
1.7249394e-07
1.7249697e-07
1.7250516e-07
1.7251812e-07
1.7253574e-07
1.7255826e-07
1.7258638e-07
1.7262149e-07
1.7266519e-07
1.7273198e-07
1.7277115e-07
1.7310382e-07
1.5893925e-07
2.9829664e-14
1.9465141e-13
3.4703751e-13
3.8537343e-13
3.7400048e-13
3.5217795e-13
3.3249853e-13
3.1592229e-13
3.0163836e-13
2.8918949e-13
2.7826156e-13
2.6849679e-13
2.5949499e-13
2.512273e-13
2.4365088e-13
2.3669091e-13
2.3027e-13
2.2430566e-13
2.1874632e-13
2.1355732e-13
2.0868767e-13
2.0410848e-13
1.9978404e-13
1.956923e-13
1.9181261e-13
1.8812333e-13
1.8461286e-13
1.8126219e-13
1.7805556e-13
1.7498563e-13
1.7204004e-13
1.6920726e-13
1.6648233e-13
1.6385714e-13
1.613221e-13
1.5887273e-13
1.5650468e-13
1.5421096e-13
1.5197489e-13
1.4979469e-13
1.4767751e-13
1.4561869e-13
1.4361387e-13
1.4166089e-13
1.3975757e-13
1.3790046e-13
1.36086e-13
1.3431231e-13
1.3257824e-13
1.3088149e-13
1.2921913e-13
1.275894e-13
1.2599124e-13
1.2442333e-13
1.2288374e-13
1.2137048e-13
1.1988238e-13
1.184191e-13
1.1697945e-13
1.1556148e-13
1.1416393e-13
1.1278611e-13
1.1142749e-13
1.1008683e-13
1.087625e-13
1.074538e-13
1.0616089e-13
1.0488321e-13
1.0361938e-13
1.0236828e-13
1.0112948e-13
9.9902859e-14
9.8687551e-14
9.748216e-14
9.6286039e-14
9.5099244e-14
9.3921109e-14
9.27502e-14
9.1585711e-14
9.0427538e-14
8.9275082e-14
8.812699e-14
8.6982401e-14
8.5841119e-14
8.4702378e-14
8.356481e-14
8.2427608e-14
8.1290242e-14
8.0151812e-14
7.9035154e-14
7.7974735e-14
7.6978327e-14
7.6039298e-14
7.5151126e-14
7.4305495e-14
7.3502307e-14
7.2738257e-14
7.2010149e-14
7.1315347e-14
7.0651333e-14
7.0015617e-14
6.940598e-14
6.8820586e-14
6.8257827e-14
6.7716182e-14
6.719367e-14
6.6689485e-14
6.6198801e-14
6.5727686e-14
6.5248706e-14
6.4828283e-14
6.4145753e-14
1.9564385e-07
1.7664842e-07
1.7423428e-07
1.7318494e-07
1.7277639e-07
1.7260375e-07
1.7251307e-07
1.7245927e-07
1.7242605e-07
1.7240611e-07
1.7239568e-07
1.7239258e-07
1.7239549e-07
1.724036e-07
1.7241649e-07
1.7243407e-07
1.7245657e-07
1.7248468e-07
1.7251978e-07
1.7256351e-07
1.7263039e-07
1.7266896e-07
1.7300236e-07
1.5996977e-07
4.1648194e-13
4.1552275e-12
7.4088259e-12
8.2272872e-12
7.9847536e-12
7.5191326e-12
7.0992043e-12
6.7454654e-12
6.4406191e-12
6.1749232e-12
5.941684e-12
5.7332809e-12
5.5411558e-12
5.3646995e-12
5.2029965e-12
5.0544511e-12
4.9174125e-12
4.7901188e-12
4.6714668e-12
4.5607187e-12
4.4567858e-12
4.3590519e-12
4.2667538e-12
4.179422e-12
4.0966153e-12
4.0178714e-12
3.9429436e-12
3.8714258e-12
3.8029815e-12
3.7374539e-12
3.6745789e-12
3.6141114e-12
3.5559448e-12
3.499906e-12
3.4457905e-12
3.393503e-12
3.3429505e-12
3.2939836e-12
3.2462487e-12
3.199703e-12
3.1545017e-12
3.1105453e-12
3.0677411e-12
3.0260431e-12
2.9854042e-12
2.9457508e-12
2.9070076e-12
2.8691344e-12
2.8321059e-12
2.7958737e-12
2.7603749e-12
2.7255724e-12
2.6914432e-12
2.6579594e-12
2.6250793e-12
2.5927609e-12
2.5609794e-12
2.5297273e-12
2.4989791e-12
2.4686932e-12
2.438843e-12
2.4094137e-12
2.3803939e-12
2.3517571e-12
2.3234685e-12
2.2955128e-12
2.2678937e-12
2.2405994e-12
2.2136001e-12
2.1868723e-12
2.1604068e-12
2.134201e-12
2.1082361e-12
2.0824826e-12
2.0569266e-12
2.0315695e-12
2.0063968e-12
1.9813779e-12
1.9564957e-12
1.9317481e-12
1.9071221e-12
1.8825887e-12
1.8581297e-12
1.833741e-12
1.8094061e-12
1.7850957e-12
1.7607928e-12
1.7364859e-12
1.7121558e-12
1.6882906e-12
1.6656272e-12
1.6443316e-12
1.6242621e-12
1.6052788e-12
1.5872049e-12
1.5700386e-12
1.5537088e-12
1.5381472e-12
1.5232977e-12
1.5091062e-12
1.4955196e-12
1.4824904e-12
1.4699793e-12
1.4579522e-12
1.4463763e-12
1.4352093e-12
1.424434e-12
1.4139472e-12
1.4038786e-12
1.3936419e-12
1.3846563e-12
1.370069e-12
1.9564924e-07
1.7652381e-07
1.7409172e-07
1.7302616e-07
1.7261098e-07
1.7243537e-07
1.7234317e-07
1.7228842e-07
1.7225455e-07
1.7223413e-07
1.7222334e-07
1.7221998e-07
1.7222268e-07
1.7223063e-07
1.7224341e-07
1.7226091e-07
1.7228336e-07
1.7231144e-07
1.7234654e-07
1.7239028e-07
1.7245724e-07
1.7249519e-07
1.7282898e-07
1.6092965e-07
2.7539032e-12
3.3399282e-11
5.9561285e-11
6.6141252e-11
6.4200653e-11
6.046729e-11
5.7099123e-11
5.4260967e-11
5.1814349e-11
4.9681458e-11
4.7808814e-11
4.6135456e-11
4.4592559e-11
4.3175361e-11
4.1876539e-11
4.0683309e-11
3.9582445e-11
3.8559799e-11
3.7606498e-11
3.6716648e-11
3.5881504e-11
3.5096128e-11
3.4354387e-11
3.365252e-11
3.2986982e-11
3.2354064e-11
3.1751789e-11
3.1176894e-11
3.0626678e-11
3.0099881e-11
2.9594382e-11
2.9108214e-11
2.8640524e-11
2.8189918e-11
2.7754753e-11
2.7334271e-11
2.692772e-11
2.65339e-11
2.614999e-11
2.5775605e-11
2.5412013e-11
2.5058418e-11
2.4714077e-11
2.4378622e-11
2.4051671e-11
2.3732632e-11
2.3420904e-11
2.3116163e-11
2.2818207e-11
2.2526643e-11
2.2240969e-11
2.1960887e-11
2.1686214e-11
2.1416721e-11
2.1152075e-11
2.0891941e-11
2.0636119e-11
2.0384547e-11
2.0137021e-11
1.9893206e-11
1.9652891e-11
1.9415957e-11
1.9182311e-11
1.8951739e-11
1.8723961e-11
1.8498853e-11
1.8276445e-11
1.8056644e-11
1.7839208e-11
1.7623952e-11
1.7410802e-11
1.7199734e-11
1.6990598e-11
1.6783156e-11
1.6577299e-11
1.6373036e-11
1.6170252e-11
1.5968698e-11
1.5768239e-11
1.5568858e-11
1.5370449e-11
1.5172778e-11
1.49757e-11
1.4779182e-11
1.458309e-11
1.4387188e-11
1.419134e-11
1.3995455e-11
1.3799375e-11
1.3607036e-11
1.3424377e-11
1.325274e-11
1.3090981e-11
1.2937967e-11
1.2792285e-11
1.2653918e-11
1.2522294e-11
1.2396862e-11
1.2277169e-11
1.2162781e-11
1.2053267e-11
1.1948245e-11
1.18474e-11
1.1750455e-11
1.1657148e-11
1.1567136e-11
1.148028e-11
1.1395749e-11
1.1314589e-11
1.1232073e-11
1.1159639e-11
1.1042047e-11
1.9565742e-07
1.7634515e-07
1.7388685e-07
1.7279793e-07
1.7237299e-07
1.7219305e-07
1.7209864e-07
1.720425e-07
1.7200767e-07
1.7198656e-07
1.7197525e-07
1.7197149e-07
1.7197389e-07
1.7198162e-07
1.7199422e-07
1.720116e-07
1.7203397e-07
1.7206201e-07
1.7209709e-07
1.7214083e-07
1.7220785e-07
1.7224521e-07
1.7257919e-07
1.6179405e-07
1.1858814e-11
1.6185571e-10
2.8877557e-10
3.2068823e-10
3.1140703e-10
2.9344372e-10
2.7722138e-10
2.6354006e-10
2.517364e-10
2.4143966e-10
2.3239479e-10
2.2430952e-10
2.1685118e-10
2.099982e-10
2.0371576e-10
1.9794255e-10
1.9261496e-10
1.8766478e-10
1.8304915e-10
1.7873987e-10
1.7469469e-10
1.7088989e-10
1.6729582e-10
1.6389438e-10
1.6066847e-10
1.5760019e-10
1.5468004e-10
1.5189222e-10
1.4922371e-10
1.4666842e-10
1.4421609e-10
1.4185723e-10
1.3958774e-10
1.3740086e-10
1.3528865e-10
1.3324748e-10
1.312737e-10
1.293615e-10
1.274973e-10
1.2567902e-10
1.2391294e-10
1.2219523e-10
1.2052232e-10
1.1889241e-10
1.1730365e-10
1.1575318e-10
1.1423808e-10
1.1275681e-10
1.1130838e-10
1.0989087e-10
1.0850187e-10
1.0713994e-10
1.0580419e-10
1.0449351e-10
1.0320628e-10
1.0194089e-10
1.0069637e-10
9.9472424e-11
9.8268043e-11
9.7081625e-11
9.5912148e-11
9.4759037e-11
9.3621834e-11
9.2499497e-11
9.1390671e-11
9.0294744e-11
8.9211867e-11
8.814159e-11
8.7082746e-11
8.6034436e-11
8.4996305e-11
8.3968233e-11
8.2949489e-11
8.1938919e-11
8.0935995e-11
7.9940767e-11
7.8952666e-11
7.7970487e-11
7.6993569e-11
7.6021836e-11
7.505477e-11
7.4091227e-11
7.31305e-11
7.2172438e-11
7.1216383e-11
7.0261184e-11
6.9306182e-11
6.835093e-11
6.7394658e-11
6.6456564e-11
6.5565635e-11
6.4728416e-11
6.3939344e-11
6.3192857e-11
6.2482117e-11
6.1807064e-11
6.1164884e-11
6.0552901e-11
5.9968908e-11
5.9410783e-11
5.8876427e-11
5.8363977e-11
5.7871899e-11
5.7398845e-11
5.6943532e-11
5.6504288e-11
5.6080434e-11
5.5667919e-11
5.527184e-11
5.4869145e-11
5.4515619e-11
5.3941686e-11
1.9566866e-07
1.761088e-07
1.7361506e-07
1.7249498e-07
1.720567e-07
1.718709e-07
1.7177349e-07
1.7171548e-07
1.7167935e-07
1.7165729e-07
1.7164528e-07
1.7164098e-07
1.7164297e-07
1.7165039e-07
1.7166276e-07
1.7167997e-07
1.7170222e-07
1.7173018e-07
1.7176522e-07
1.7180895e-07
1.7187601e-07
1.719128e-07
1.7224716e-07
1.6255241e-07
3.8775475e-11
5.7906238e-10
1.03428e-09
1.1487567e-09
1.1165434e-09
1.0533037e-09
9.9606337e-10
9.4769818e-10
9.0589557e-10
8.6937708e-10
8.3726189e-10
8.0852728e-10
7.8199323e-10
7.5759365e-10
7.3520988e-10
7.146274e-10
6.9562276e-10
6.7795471e-10
6.6147182e-10
6.4607564e-10
6.3161633e-10
6.1801044e-10
6.0515276e-10
5.9297949e-10
5.814301e-10
5.7044112e-10
5.5997914e-10
5.4998799e-10
5.4042137e-10
5.3125781e-10
5.224608e-10
5.139967e-10
5.0585099e-10
4.9799958e-10
4.9041421e-10
4.8308214e-10
4.7599031e-10
4.6911798e-10
4.6241696e-10
4.5587878e-10
4.4952682e-10
4.4334737e-10
4.3732781e-10
4.3146175e-10
4.2574254e-10
4.201599e-10
4.1470359e-10
4.0936808e-10
4.0414976e-10
3.990418e-10
3.9403561e-10
3.8912613e-10
3.8431014e-10
3.795836e-10
3.7494076e-10
3.703759e-10
3.6588558e-10
3.6146867e-10
3.571216e-10
3.5283864e-10
3.4861617e-10
3.4445213e-10
3.4034485e-10
3.3629059e-10
3.3228449e-10
3.2832431e-10
3.2441061e-10
3.2054181e-10
3.1671372e-10
3.1292314e-10
3.0916881e-10
3.0545026e-10
3.0176487e-10
2.9810849e-10
2.9447924e-10
2.908773e-10
2.8730061e-10
2.8374482e-10
2.8020756e-10
2.7668857e-10
2.7318596e-10
2.6969558e-10
2.6621488e-10
2.6274335e-10
2.5927857e-10
2.5581639e-10
2.5235443e-10
2.4889106e-10
2.4542349e-10
2.4202134e-10
2.3878984e-10
2.3575279e-10
2.3289006e-10
2.301814e-10
2.2760223e-10
2.251524e-10
2.228217e-10
2.2060044e-10
2.1848063e-10
2.164546e-10
2.1451472e-10
2.1265424e-10
2.1086763e-10
2.0915e-10
2.074967e-10
2.0590165e-10
2.043624e-10
2.0286425e-10
2.014257e-10
1.999631e-10
1.9867889e-10
1.9659393e-10
1.9568328e-07
1.7581049e-07
1.7327095e-07
1.721108e-07
1.7165511e-07
1.7146171e-07
1.7136041e-07
1.7129997e-07
1.7126215e-07
1.7123887e-07
1.7122593e-07
1.7122093e-07
1.7122239e-07
1.7122939e-07
1.7124146e-07
1.7125844e-07
1.7128052e-07
1.7130838e-07
1.7134335e-07
1.7138704e-07
1.714541e-07
1.7149031e-07
1.7182587e-07
1.6319431e-07
1.0412468e-10
1.6838306e-09
3.0141285e-09
3.3493423e-09
3.2611783e-09
3.0828994e-09
2.9208232e-09
2.7833963e-09
2.6642166e-09
2.5598184e-09
2.4678085e-09
2.3853319e-09
2.3090203e-09
2.2387403e-09
2.17418e-09
2.1147422e-09
2.0597989e-09
2.0086654e-09
1.9609126e-09
1.9162671e-09
1.8743007e-09
1.8347788e-09
1.7974002e-09
1.7619848e-09
1.7283602e-09
1.6963453e-09
1.6658459e-09
1.6367007e-09
1.608777e-09
1.582014e-09
1.5563067e-09
1.5315588e-09
1.5077293e-09
1.4847486e-09
1.4625353e-09
1.4410537e-09
1.4202659e-09
1.400112e-09
1.3804525e-09
1.3612598e-09
1.3426053e-09
1.3244497e-09
1.3067568e-09
1.2895082e-09
1.2726846e-09
1.2562561e-09
1.2401933e-09
1.2244806e-09
1.2091071e-09
1.194053e-09
1.1792937e-09
1.1648146e-09
1.1506064e-09
1.1366571e-09
1.1229501e-09
1.109469e-09
1.0962038e-09
1.0831511e-09
1.0703006e-09
1.0576357e-09
1.0451459e-09
1.0328252e-09
1.0206688e-09
1.0086656e-09
9.9680138e-10
9.850696e-10
9.7347189e-10
9.6200381e-10
9.5065307e-10
9.3941036e-10
9.2827201e-10
9.1723665e-10
9.062965e-10
8.9543945e-10
8.8465996e-10
8.7395865e-10
8.633294e-10
8.5275931e-10
8.4224142e-10
8.3177505e-10
8.2135453e-10
8.1096748e-10
8.0060646e-10
7.9026993e-10
7.799507e-10
7.6963636e-10
7.5931991e-10
7.4899651e-10
7.3865771e-10
7.2851125e-10
7.1887135e-10
7.0980939e-10
7.0126574e-10
6.9317962e-10
6.8547864e-10
6.7816276e-10
6.7120146e-10
6.6456603e-10
6.5823281e-10
6.5217891e-10
6.4638161e-10
6.4082089e-10
6.3548027e-10
6.3034529e-10
6.2540205e-10
6.2063242e-10
6.1602909e-10
6.115482e-10
6.0724504e-10
6.0286972e-10
5.9902721e-10
5.927879e-10
1.9570168e-07
1.754456e-07
1.7284846e-07
1.7163791e-07
1.7116014e-07
1.7095713e-07
1.7085089e-07
1.7078737e-07
1.7074741e-07
1.7072256e-07
1.7070846e-07
1.7070256e-07
1.7070333e-07
1.7070981e-07
1.7072147e-07
1.7073815e-07
1.7076001e-07
1.7078771e-07
1.7082258e-07
1.7086619e-07
1.7093319e-07
1.7096881e-07
1.7130733e-07
1.637049e-07
2.3938453e-10
4.1724913e-09
7.496438e-09
8.3399397e-09
8.1443534e-09
7.7254455e-09
7.341733e-09
7.0145132e-09
6.7291692e-09
6.4780891e-09
6.2560038e-09
6.0563056e-09
5.8709174e-09
5.6997446e-09
5.5421501e-09
5.3967618e-09
5.2621124e-09
5.1365741e-09
5.019135e-09
4.909167e-09
4.8056424e-09
4.7080124e-09
4.615553e-09
4.5278384e-09
4.4444588e-09
4.364979e-09
4.2891785e-09
4.2166661e-09
4.147122e-09
4.0804022e-09
4.0162525e-09
3.9544405e-09
3.8948687e-09
3.8373683e-09
3.7817409e-09
3.7279027e-09
3.6757612e-09
3.6251697e-09
3.5757833e-09
3.5275247e-09
3.4805843e-09
3.4348662e-09
3.3902831e-09
3.3467906e-09
3.3043403e-09
3.2628593e-09
3.2222764e-09
3.1825531e-09
3.143663e-09
3.105557e-09
3.0681748e-09
3.0314814e-09
2.9954532e-09
2.9600608e-09
2.9252631e-09
2.8910204e-09
2.8573076e-09
2.8241166e-09
2.7914217e-09
2.7591818e-09
2.7273715e-09
2.6959759e-09
2.6649825e-09
2.6343641e-09
2.6040852e-09
2.5741287e-09
2.5444991e-09
2.5151859e-09
2.4861583e-09
2.4573931e-09
2.4288812e-09
2.4006191e-09
2.3725872e-09
2.3447551e-09
2.3171087e-09
2.2896499e-09
2.262363e-09
2.2352152e-09
2.208189e-09
2.1812826e-09
2.1544815e-09
2.127754e-09
2.101081e-09
2.0744587e-09
2.0478686e-09
2.0212786e-09
1.9946709e-09
1.9680328e-09
1.9413424e-09
1.9151364e-09
1.8902278e-09
1.8668031e-09
1.8447096e-09
1.8237898e-09
1.8038594e-09
1.78492e-09
1.7668931e-09
1.7497054e-09
1.7332961e-09
1.7176065e-09
1.7025781e-09
1.6881595e-09
1.6743085e-09
1.660988e-09
1.648162e-09
1.6357839e-09
1.6238349e-09
1.6122014e-09
1.6010269e-09
1.5896641e-09
1.5796812e-09
1.5634675e-09
1.9572427e-07
1.750094e-07
1.7234111e-07
1.7106809e-07
1.7056281e-07
1.7034781e-07
1.702354e-07
1.7016803e-07
1.701254e-07
1.700986e-07
1.7008303e-07
1.7007601e-07
1.7007591e-07
1.7008172e-07
1.7009286e-07
1.7010914e-07
1.7013071e-07
1.701582e-07
1.701929e-07
1.7023639e-07
1.7030326e-07
1.7033823e-07
1.7068288e-07
1.6406219e-07
4.8311151e-10
9.0162169e-09
1.6290811e-08
1.8168819e-08
1.7819927e-08
1.6986098e-08
1.6213339e-08
1.554888e-08
1.4964754e-08
1.4447365e-08
1.3987303e-08
1.3571693e-08
1.3183931e-08
1.2824549e-08
1.2492592e-08
1.2185424e-08
1.1900148e-08
1.1633471e-08
1.1383368e-08
1.114864e-08
1.0927172e-08
1.0717884e-08
1.0519284e-08
1.0330521e-08
1.0150764e-08
9.9791205e-09
9.8151537e-09
9.6580495e-09
9.5071463e-09
9.3621561e-09
9.2225495e-09
9.0878456e-09
8.9578494e-09
8.8322069e-09
8.7105027e-09
8.5925708e-09
8.4782159e-09
8.3671283e-09
8.2585625e-09
8.1523283e-09
8.0488788e-09
7.9480135e-09
7.849551e-09
7.7533994e-09
7.6594544e-09
7.5675616e-09
7.4775723e-09
7.3894063e-09
7.3030061e-09
7.2182676e-09
7.1350631e-09
7.0533198e-09
6.9729872e-09
6.8940008e-09
6.8162737e-09
6.7397224e-09
6.664293e-09
6.5899675e-09
6.5166913e-09
6.4443766e-09
6.372969e-09
6.3024363e-09
6.2327511e-09
6.1638546e-09
6.0956695e-09
6.0281573e-09
5.9613284e-09
5.8951616e-09
5.8295896e-09
5.7645619e-09
5.7000585e-09
5.6360718e-09
5.5725586e-09
5.5094514e-09
5.4467194e-09
5.384367e-09
5.3223595e-09
5.2606229e-09
5.1991178e-09
5.137841e-09
5.0767594e-09
5.0158007e-09
4.9549218e-09
4.8941144e-09
4.8333358e-09
4.772513e-09
4.7116049e-09
4.6505826e-09
4.5893946e-09
4.5292729e-09
4.4720881e-09
4.4182746e-09
4.367488e-09
4.3193663e-09
4.2734925e-09
4.2298781e-09
4.1883449e-09
4.1487265e-09
4.110886e-09
4.0746899e-09
4.0400048e-09
4.0067138e-09
3.9747212e-09
3.9439427e-09
3.9142968e-09
3.8856758e-09
3.8580374e-09
3.8311208e-09
3.8052562e-09
3.7789525e-09
3.7558299e-09
3.7182601e-09
1.9575141e-07
1.7449771e-07
1.7174208e-07
1.7039259e-07
1.6985344e-07
1.6962363e-07
1.6950359e-07
1.6943146e-07
1.6938552e-07
1.693563e-07
1.693389e-07
1.6933049e-07
1.6932931e-07
1.6933427e-07
1.6934476e-07
1.6936054e-07
1.6938171e-07
1.6940891e-07
1.6944337e-07
1.6948667e-07
1.6955329e-07
1.6958756e-07
1.6994358e-07
1.6423442e-07
8.7058033e-10
1.7201606e-08
3.1345709e-08
3.512266e-08
3.4646356e-08
3.3228388e-08
3.1891644e-08
3.0729814e-08
2.9697502e-08
2.877516e-08
2.7949362e-08
2.71988e-08
2.6493771e-08
2.5837137e-08
2.5228069e-08
2.4662308e-08
2.413498e-08
2.3640339e-08
2.3174932e-08
2.2736839e-08
2.2322296e-08
2.1929502e-08
2.1555799e-08
2.1199729e-08
2.0859851e-08
2.0534582e-08
2.0223192e-08
1.9924208e-08
1.9636447e-08
1.9359419e-08
1.9092167e-08
1.8833831e-08
1.858408e-08
1.8342267e-08
1.8107638e-08
1.7879915e-08
1.765874e-08
1.7443541e-08
1.7232892e-08
1.7026375e-08
1.6824964e-08
1.6628297e-08
1.6436048e-08
1.6248054e-08
1.6064116e-08
1.5883949e-08
1.5707285e-08
1.553398e-08
1.5363922e-08
1.519692e-08
1.5032737e-08
1.4871245e-08
1.4712345e-08
1.4555916e-08
1.4401797e-08
1.4249835e-08
1.4099927e-08
1.395204e-08
1.3806073e-08
1.3661859e-08
1.3519299e-08
1.337833e-08
1.3238899e-08
1.3100895e-08
1.296417e-08
1.2828647e-08
1.2694347e-08
1.2561233e-08
1.2429175e-08
1.2298077e-08
1.21679e-08
1.2038628e-08
1.1910177e-08
1.1782416e-08
1.1655283e-08
1.1528787e-08
1.140286e-08
1.1277354e-08
1.115219e-08
1.1027362e-08
1.0902802e-08
1.0778363e-08
1.0653958e-08
1.052957e-08
1.040511e-08
1.0280429e-08
1.0155442e-08
1.0030088e-08
9.9042599e-09
9.7804931e-09
9.6626535e-09
9.5516557e-09
9.4468076e-09
9.3473625e-09
9.2524759e-09
9.1621955e-09
9.076161e-09
8.9940364e-09
8.9155464e-09
8.8404201e-09
8.7683861e-09
8.6992063e-09
8.6326871e-09
8.568658e-09
8.5069525e-09
8.4473497e-09
8.3897635e-09
8.3336559e-09
8.2797114e-09
8.2248409e-09
8.1765661e-09
8.0980807e-09
1.9578334e-07
1.7390719e-07
1.7104473e-07
1.6960243e-07
1.6902194e-07
1.6877396e-07
1.6864452e-07
1.6856654e-07
1.6851653e-07
1.6848433e-07
1.6846468e-07
1.6845453e-07
1.68452e-07
1.6845591e-07
1.6846557e-07
1.6848069e-07
1.6850136e-07
1.6852816e-07
1.6856228e-07
1.6860529e-07
1.6867152e-07
1.6870501e-07
1.6907944e-07
1.6417752e-07
1.366561e-09
2.926858e-08
5.402807e-08
6.1022758e-08
6.0615647e-08
5.8534044e-08
5.6522397e-08
5.4750968e-08
5.3156322e-08
5.1716492e-08
5.0416877e-08
4.9227111e-08
4.81e-08
4.7044291e-08
4.6060438e-08
4.5142585e-08
4.4283618e-08
4.3474766e-08
4.2710913e-08
4.1989488e-08
4.1304593e-08
4.0653662e-08
4.0032531e-08
3.9439047e-08
3.8871035e-08
3.8326038e-08
3.7803011e-08
3.7299608e-08
3.6813979e-08
3.6345406e-08
3.5892368e-08
3.5453523e-08
3.5028385e-08
3.4615915e-08
3.4214909e-08
3.3824978e-08
3.3445535e-08
3.3075654e-08
3.2712888e-08
3.2356395e-08
3.2008085e-08
3.1667387e-08
3.1333799e-08
3.1007062e-08
3.0686841e-08
3.0372671e-08
3.0064136e-08
2.9761004e-08
2.9463086e-08
2.9170064e-08
2.8881563e-08
2.8597379e-08
2.8317347e-08
2.8041257e-08
2.7768849e-08
2.7499881e-08
2.7234181e-08
2.6971686e-08
2.6712231e-08
2.6455546e-08
2.6201464e-08
2.5949878e-08
2.5700696e-08
2.5453731e-08
2.5208733e-08
2.4965564e-08
2.4724257e-08
2.4484761e-08
2.4246855e-08
2.4010371e-08
2.377524e-08
2.3541435e-08
2.3308812e-08
2.3077138e-08
2.2846304e-08
2.2616326e-08
2.2387084e-08
2.2158313e-08
2.1929867e-08
2.1701735e-08
2.1473795e-08
2.1245777e-08
2.101752e-08
2.078899e-08
2.0560025e-08
2.0330345e-08
2.0099792e-08
1.9868247e-08
1.9635506e-08
1.9406266e-08
1.918772e-08
1.898161e-08
1.8786693e-08
1.8601581e-08
1.8424733e-08
1.8256303e-08
1.8095643e-08
1.7942145e-08
1.7795315e-08
1.7654661e-08
1.7519688e-08
1.7389961e-08
1.7265131e-08
1.7144888e-08
1.7028927e-08
1.6916842e-08
1.6808475e-08
1.6702828e-08
1.6601178e-08
1.6497762e-08
1.6406675e-08
1.6258462e-08
1.9582004e-07
1.7323604e-07
1.7024291e-07
1.686888e-07
1.6805809e-07
1.677879e-07
1.6764695e-07
1.6756178e-07
1.6750678e-07
1.6747091e-07
1.6744849e-07
1.674362e-07
1.67432e-07
1.6743459e-07
1.6744321e-07
1.674575e-07
1.674775e-07
1.6750376e-07
1.6753742e-07
1.6758003e-07
1.6764566e-07
1.6767831e-07
1.6807542e-07
1.6387054e-07
1.9500015e-09
4.3483937e-08
8.4572082e-08
9.6721988e-08
9.6857145e-08
9.4188586e-08
9.15083e-08
8.9109771e-08
8.6916203e-08
8.4910853e-08
8.3084064e-08
8.1397952e-08
7.9783956e-08
7.8262951e-08
7.6838628e-08
7.5504031e-08
7.4249944e-08
7.3064361e-08
7.1940555e-08
7.0875629e-08
6.9861249e-08
6.8894241e-08
6.7968747e-08
6.7081954e-08
6.6230942e-08
6.5412299e-08
6.4624723e-08
6.3864847e-08
6.3130089e-08
6.2419518e-08
6.1730967e-08
6.1062565e-08
6.0413691e-08
5.9782831e-08
5.9168274e-08
5.8569558e-08
5.7985805e-08
5.7415669e-08
5.6855316e-08
5.6303142e-08
5.576262e-08
5.5232962e-08
5.4713488e-08
5.4203831e-08
5.3703468e-08
5.3211723e-08
5.2728028e-08
5.2252054e-08
5.1783496e-08
5.1321886e-08
5.0866694e-08
5.0417637e-08
4.9974457e-08
4.9536827e-08
4.910437e-08
4.8676752e-08
4.8253708e-08
4.783513e-08
4.7420777e-08
4.7010255e-08
4.6603317e-08
4.6199794e-08
4.5799535e-08
4.5402264e-08
4.5007604e-08
4.4615327e-08
4.4225475e-08
4.3837987e-08
4.3452525e-08
4.3068829e-08
4.2686786e-08
4.2306349e-08
4.1927291e-08
4.154925e-08
4.1172044e-08
4.0795696e-08
4.0420013e-08
4.0044567e-08
3.9669117e-08
3.9293638e-08
3.8917928e-08
3.8541542e-08
3.8164208e-08
3.7785861e-08
3.7406227e-08
3.7024839e-08
3.6641421e-08
3.6255765e-08
3.5867516e-08
3.5484517e-08
3.5118844e-08
3.47735e-08
3.4446482e-08
3.4135437e-08
3.3837821e-08
3.3554046e-08
3.3283066e-08
3.3023899e-08
3.2775744e-08
3.25378e-08
3.2309254e-08
3.2089395e-08
3.1877649e-08
3.1673515e-08
3.1476491e-08
3.1285902e-08
3.1101489e-08
3.0921582e-08
3.0748328e-08
3.0572036e-08
3.0416547e-08
3.0163281e-08
1.9586103e-07
1.7248476e-07
1.6933154e-07
1.6764342e-07
1.6695197e-07
1.6665468e-07
1.6649962e-07
1.6640566e-07
1.6634454e-07
1.6630418e-07
1.6627834e-07
1.6626341e-07
1.6625714e-07
1.6625809e-07
1.6626539e-07
1.6627862e-07
1.6629775e-07
1.663233e-07
1.6635631e-07
1.6639836e-07
1.6646314e-07
1.6649496e-07
1.6691295e-07
1.6338582e-07
2.6628075e-09
5.854547e-08
1.1930871e-07
1.4193612e-07
1.436605e-07
1.406753e-07
1.3746698e-07
1.3453174e-07
1.3179197e-07
1.2924826e-07
1.2690567e-07
1.2472255e-07
1.2260474e-07
1.2059573e-07
1.1870526e-07
1.1692626e-07
1.1524791e-07
1.1365512e-07
1.1213989e-07
1.1069953e-07
1.0932316e-07
1.0800734e-07
1.0674448e-07
1.0553124e-07
1.0436407e-07
1.0323862e-07
1.0215344e-07
1.0110407e-07
1.0008721e-07
9.9101774e-08
9.8144902e-08
9.7214228e-08
9.6309031e-08
9.5427265e-08
9.4566705e-08
9.3726898e-08
9.2906609e-08
9.2104032e-08
9.1313538e-08
9.0532148e-08
8.9765892e-08
8.9013792e-08
8.8275033e-08
8.7549137e-08
8.6835331e-08
8.6132712e-08
8.5440591e-08
8.4758544e-08
8.4086098e-08
8.3422618e-08
8.2767432e-08
8.2120186e-08
8.1480501e-08
8.0847894e-08
8.0221875e-08
7.9602033e-08
7.8987989e-08
7.8379557e-08
7.7776419e-08
7.7178054e-08
7.6584132e-08
7.5994396e-08
7.5408617e-08
7.4826419e-08
7.4247293e-08
7.3670889e-08
7.309724e-08
7.2526285e-08
7.1957558e-08
7.1390688e-08
7.0825499e-08
7.026191e-08
6.9699601e-08
6.9138054e-08
6.8576988e-08
6.8016423e-08
6.7456081e-08
6.6895332e-08
6.6333805e-08
6.5771448e-08
6.5207954e-08
6.4642655e-08
6.4075124e-08
6.3505251e-08
6.2932611e-08
6.235649e-08
6.1776448e-08
6.1192146e-08
6.0603024e-08
6.0020988e-08
5.9464476e-08
5.8938189e-08
5.8439191e-08
5.7963784e-08
5.7508112e-08
5.7073133e-08
5.665732e-08
5.6259223e-08
5.5877666e-08
5.5511463e-08
5.5159399e-08
5.4820412e-08
5.4493651e-08
5.4178372e-08
5.3873828e-08
5.3578995e-08
5.3293489e-08
5.3014775e-08
5.2746111e-08
5.2472743e-08
5.2231253e-08
5.1837477e-08
1.959051e-07
1.716572e-07
1.6830708e-07
1.6645907e-07
1.6569437e-07
1.6536405e-07
1.6519171e-07
1.6508697e-07
1.6501835e-07
1.6497246e-07
1.6494243e-07
1.6492424e-07
1.649154e-07
1.6491429e-07
1.6491994e-07
1.6493182e-07
1.6494983e-07
1.6497444e-07
1.6500658e-07
1.6504786e-07
1.6511144e-07
1.6514257e-07
1.6556987e-07
1.6271058e-07
3.5099113e-09
7.5523214e-08
1.5761868e-07
1.9197216e-07
1.9759657e-07
1.9550088e-07
1.9263302e-07
1.8987492e-07
1.8716664e-07
1.8455658e-07
1.820954e-07
1.7972348e-07
1.7712641e-07
1.7464374e-07
1.7229509e-07
1.7007491e-07
1.6797176e-07
1.6596793e-07
1.6405472e-07
1.6223051e-07
1.6048186e-07
1.5880561e-07
1.5719248e-07
1.5563895e-07
1.5414095e-07
1.5269333e-07
1.5129469e-07
1.499394e-07
1.4862356e-07
1.4734602e-07
1.4610319e-07
1.4489232e-07
1.4371263e-07
1.4256151e-07
1.4143624e-07
1.4033651e-07
1.3926065e-07
1.3820637e-07
1.371657e-07
1.3613312e-07
1.3511894e-07
1.3412206e-07
1.331416e-07
1.3217699e-07
1.3122713e-07
1.3029088e-07
1.2936749e-07
1.2845645e-07
1.2755706e-07
1.266685e-07
1.2579e-07
1.2492115e-07
1.2406142e-07
1.2321012e-07
1.2236666e-07
1.215306e-07
1.2070142e-07
1.1987881e-07
1.1906238e-07
1.182515e-07
1.1744575e-07
1.1664477e-07
1.1584821e-07
1.1505561e-07
1.1426634e-07
1.1347989e-07
1.1269625e-07
1.1191538e-07
1.1113669e-07
1.1035968e-07
1.0958409e-07
1.0880979e-07
1.0803636e-07
1.0726311e-07
1.0648964e-07
1.0571595e-07
1.0494167e-07
1.0416594e-07
1.0338823e-07
1.0260843e-07
1.0182613e-07
1.0104039e-07
1.0025059e-07
9.9456551e-08
9.8657673e-08
9.7852947e-08
9.7041722e-08
9.622349e-08
9.5397439e-08
9.4580264e-08
9.3797957e-08
9.3057288e-08
9.2354266e-08
9.1683341e-08
9.1039064e-08
9.0423424e-08
8.9834368e-08
8.9269914e-08
8.8728454e-08
8.8208362e-08
8.7707956e-08
8.7225763e-08
8.6760611e-08
8.6311479e-08
8.5877333e-08
8.5456744e-08
8.5049173e-08
8.4651086e-08
8.4267e-08
8.3876316e-08
8.3530611e-08
8.2966312e-08
1.9595001e-07
1.7076186e-07
1.6716825e-07
1.6513026e-07
1.6427741e-07
1.6390681e-07
1.6371326e-07
1.6359529e-07
1.6351746e-07
1.6346478e-07
1.6342957e-07
1.6340735e-07
1.6339531e-07
1.6339164e-07
1.633952e-07
1.6340537e-07
1.6342193e-07
1.634453e-07
1.6347628e-07
1.6351654e-07
1.6357848e-07
1.6360924e-07
1.6403328e-07
1.618214e-07
4.494491e-09
9.4301865e-08
2.0058946e-07
2.5027791e-07
2.6103548e-07
2.5995394e-07
2.5726655e-07
2.5447248e-07
2.5157402e-07
2.4867613e-07
2.4587953e-07
2.4317161e-07
2.4042327e-07
2.377524e-07
2.3520211e-07
2.3277293e-07
2.3045583e-07
2.2823331e-07
2.2609968e-07
2.2405599e-07
2.2208744e-07
2.2019291e-07
2.183627e-07
2.16594e-07
2.1488329e-07
2.1322543e-07
2.116196e-07
2.1005948e-07
2.0854112e-07
2.0706369e-07
2.0562327e-07
2.0421711e-07
2.0284472e-07
2.0150298e-07
2.0018913e-07
1.9890325e-07
1.9764321e-07
1.9640647e-07
1.9516922e-07
1.9386969e-07
1.9259148e-07
1.9133346e-07
1.9009482e-07
1.8887489e-07
1.8767217e-07
1.8648526e-07
1.8531346e-07
1.841562e-07
1.8301247e-07
1.8188124e-07
1.807617e-07
1.7965343e-07
1.7855568e-07
1.7746755e-07
1.7638835e-07
1.7531765e-07
1.742548e-07
1.731993e-07
1.7215067e-07
1.7110823e-07
1.7007148e-07
1.6903991e-07
1.6801303e-07
1.6699029e-07
1.6597096e-07
1.6495438e-07
1.6394045e-07
1.6292913e-07
1.6191974e-07
1.6091166e-07
1.5990451e-07
1.5889807e-07
1.5789186e-07
1.5688501e-07
1.5587697e-07
1.548677e-07
1.5385672e-07
1.5284295e-07
1.5182567e-07
1.508047e-07
1.4977949e-07
1.4874882e-07
1.4771186e-07
1.4666833e-07
1.4561742e-07
1.4455781e-07
1.434886e-07
1.4240907e-07
1.4131813e-07
1.4023783e-07
1.3920264e-07
1.382217e-07
1.3728987e-07
1.3639894e-07
1.3554161e-07
1.3472172e-07
1.3393669e-07
1.3318395e-07
1.3246141e-07
1.3176695e-07
1.3109839e-07
1.3045377e-07
1.2983159e-07
1.2923049e-07
1.2864914e-07
1.2808565e-07
1.275393e-07
1.2700548e-07
1.2649e-07
1.2596603e-07
1.2550159e-07
1.2474275e-07
1.959921e-07
1.6981347e-07
1.6591681e-07
1.6365397e-07
1.6269522e-07
1.6227543e-07
1.6205581e-07
1.6192155e-07
1.6183237e-07
1.6177132e-07
1.6172971e-07
1.6170249e-07
1.6168648e-07
1.616796e-07
1.6168053e-07
1.616885e-07
1.617032e-07
1.6172495e-07
1.6175439e-07
1.617933e-07
1.6185302e-07
1.6188397e-07
1.6229152e-07
1.6069204e-07
5.6211709e-09
1.1553965e-07
2.4706271e-07
3.1684213e-07
3.3551167e-07
3.3650649e-07
3.3446411e-07
3.3190984e-07
3.2899839e-07
3.2592294e-07
3.228565e-07
3.1982747e-07
3.1675681e-07
3.1372716e-07
3.1080497e-07
3.0799946e-07
3.053052e-07
3.0270474e-07
3.0019483e-07
2.9777986e-07
2.9544321e-07
2.9318595e-07
2.9099747e-07
2.8887581e-07
2.8681779e-07
2.8481801e-07
2.8287646e-07
2.8098566e-07
2.7914137e-07
2.7734322e-07
2.7558657e-07
2.7386856e-07
2.7218902e-07
2.7054416e-07
2.6893083e-07
2.6734969e-07
2.6579807e-07
2.6427287e-07
2.6275919e-07
2.6124697e-07
2.5975679e-07
2.5828813e-07
2.5684045e-07
2.5541324e-07
2.5400452e-07
2.5261268e-07
2.5123727e-07
2.498778e-07
2.4853292e-07