/*--------------------------------*- C++ -*----------------------------------*\
  =========                 |
  \\      /  F ield         | OpenFOAM: The Open Source CFD Toolbox
   \\    /   O peration     | Website:  https://openfoam.org
    \\  /    A nd           | Version:  12
     \\/     M anipulation  |
\*---------------------------------------------------------------------------*/
FoamFile
{
    format      ascii;
    class       volScalarField;
    location    "200";
    object      p;
}
// * * * * * * * * * * * * * * * * * * * * * * * * * * * * * * * * * * * * * //

dimensions      [0 2 -2 0 0 0 0];

internalField   nonuniform List<scalar> 
7480
(
0.0053225522
0.0052835324
0.0051752093
0.0051427065
0.0051598371
0.0051942605
0.00524208
0.0053070974
0.0053956912
0.0055148885
0.0056853213
0.005923951
0.0063929555
0.0068183079
0.0067601413
0.006325986
0.0058588051
0.0054886959
0.005172982
0.0048907098
0.004644977
0.0044348161
0.0042571687
0.0040905557
0.0039238651
0.0037619766
0.0036087888
0.0034774467
0.0033649615
0.0032578696
0.003159845
0.0030741138
0.0029997385
0.0029358015
0.0028807984
0.0028329633
0.0027907396
0.0027542226
0.0027222353
0.0026921457
0.0026635215
0.0026364735
0.0026111366
0.0025861874
0.0025598799
0.0025320631
0.0025031877
0.0024744411
0.0024451824
0.0024142825
0.0023811406
0.0023452959
0.0023084843
0.0022711407
0.0022320091
0.0021913113
0.0021501184
0.0021101662
0.0020708027
0.0020299459
0.001988129
0.0019463872
0.0019057147
0.0018649326
0.0018228585
0.0017806702
0.0017396217
0.0016987084
0.0016564317
0.0016135162
0.0015710163
0.0015281492
0.001484088
0.001439595
0.0013953403
0.001350687
0.0013048097
0.0012584982
0.001211815
0.0011641673
0.0011156414
0.0010669825
0.0010176826
0.0009670533
0.00091611633
0.00086448431
0.00081150655
0.00075837469
0.00070464302
0.00064974517
0.00059466488
0.00053910992
0.00048329994
0.00042786457
0.00037417922
0.00032007974
0.00028149311
0.00022272138
0.00036028476
-0.00024162379
0.0052600654
0.0052213891
0.0051488669
0.0051270513
0.0051477151
0.005186306
0.0052362947
0.0053022547
0.0053912475
0.0055104652
0.0056794103
0.0059150478
0.0063432198
0.0067163507
0.0066577453
0.0062992921
0.0058864925
0.0055413683
0.0052387712
0.0049603318
0.0047154703
0.0045011615
0.0043096602
0.0041290029
0.0039563156
0.0037927069
0.0036414374
0.0035095177
0.0033935869
0.0032851209
0.0031863631
0.0030998999
0.0030246429
0.0029594813
0.0029029903
0.0028535373
0.0028096541
0.0027716313
0.0027384221
0.0027072727
0.0026775367
0.0026493288
0.0026229243
0.0025970712
0.0025698626
0.0025411574
0.0025115309
0.0024821281
0.002452276
0.0024208429
0.0023872733
0.0023510768
0.0023139409
0.0022763005
0.0022368997
0.002195965
0.0021545617
0.0021144374
0.0020749195
0.0020338976
0.0019919126
0.0019500062
0.0019091759
0.001868237
0.0018260079
0.0017836705
0.0017424802
0.0017014306
0.0016590219
0.0016159816
0.0015733645
0.0015303849
0.0014862161
0.0014416214
0.0013972699
0.0013525234
0.0013065574
0.001260163
0.0012134013
0.0011656788
0.001117082
0.0010683556
0.0010189907
0.00096829972
0.00091730506
0.00086561807
0.00081258811
0.00075940687
0.00070562765
0.00065068473
0.00059556221
0.00053996709
0.00048411924
0.00042864763
0.00037492946
0.00032079711
0.00028216991
0.00022343142
0.00036111497
-0.00024102967
0.0052183667
0.0052042237
0.0051590864
0.0051374472
0.0051542299
0.0051920989
0.0052409969
0.0053055056
0.0053929598
0.0055104416
0.0056752013
0.0059039529
0.0062711677
0.0065853202
0.0065459479
0.0062306486
0.0058392093
0.0054978384
0.0051987513
0.0049248548
0.0046832475
0.0044715872
0.0042826295
0.0041087709
0.0039448136
0.003789126
0.0036455486
0.0035172767
0.0034026384
0.0032974617
0.0032012028
0.0031156755
0.003041007
0.0029760961
0.0029195335
0.0028698011
0.0028256314
0.0027869461
0.0027526141
0.002720519
0.0026899489
0.002660847
0.0026336207
0.0026071812
0.0025794958
0.0025502501
0.0025200344
0.0024900624
0.0024597469
0.0024276004
0.0023932479
0.0023565897
0.0023191396
0.0022812534
0.0022416218
0.0022004813
0.0021589015
0.0021186365
0.0020789836
0.0020378104
0.0019956671
0.0019536113
0.0019126463
0.0018715716
0.0018292051
0.001786737
0.0017454262
0.00170426
0.0016617316
0.0016185745
0.001575847
0.0015327606
0.0014884885
0.0014437962
0.0013993525
0.0013545166
0.0013084631
0.0012619864
0.0012151463
0.0011673486
0.0011186802
0.001069886
0.0010204548
0.00096969981
0.00091864555
0.0008669013
0.00081381655
0.00076058383
0.00070675432
0.00065176311
0.00059659542
0.00054095706
0.00048506833
0.00042955737
0.00037580311
0.00032163266
0.0002829775
0.00022432898
0.00036202983
-0.00024029518
0.0051852444
0.0051843607
0.0051492936
0.005129472
0.0051455782
0.0051835931
0.0052329549
0.0052975573
0.0053845729
0.0055008438
0.005661062
0.0058798971
0.0061959002
0.0064689501
0.0064496272
0.0061698194
0.0058044069
0.0054774313
0.0051909209
0.0049272576
0.0046908547
0.0044819413
0.004293948
0.0041210688
0.0039568691
0.0038001552
0.0036548743
0.0035241138
0.0034078989
0.0033025719
0.0032059085
0.0031196008
0.0030447304
0.0029801911
0.0029244521
0.0028759925
0.0028334726
0.0027956636
0.0027614328
0.002729776
0.0026998056
0.0026709903
0.0026430978
0.0026155192
0.0025871978
0.0025575412
0.0025268712
0.002496464
0.0024658519
0.0024332371
0.0023983453
0.002361384
0.0023237269
0.0022857524
0.0022460422
0.0022047951
0.002163076
0.0021225474
0.0020826285
0.0020413127
0.0019990598
0.0019569121
0.001915868
0.0018747008
0.00183223
0.001789666
0.0017482637
0.0017069942
0.0016643553
0.0016210917
0.0015782658
0.0015350837
0.0014907176
0.0014459362
0.0014014096
0.0013564929
0.0013103573
0.0012638023
0.0012168872
0.0011690169
0.0011202793
0.0010714203
0.0010219253
0.00097110756
0.00091999528
0.00086819491
0.00081505597
0.00076177268
0.00070789328
0.00065285379
0.00059764125
0.00054195971
0.00048602986
0.00043047924
0.0003766876
0.0003224782
0.00028379711
0.00022512004
0.00036288861
-0.00023959654
0.0051545008
0.0051615878
0.005137425
0.0051249012
0.0051430042
0.0051815344
0.005231419
0.0052958329
0.005381675
0.0054955199
0.0056497298
0.0058547185
0.0061300013
0.0063663091
0.0063569005
0.006106758
0.0057674013
0.0054547918
0.0051780486
0.0049212549
0.0046878037
0.004480101
0.0042927459
0.004120446
0.0039570414
0.0038017556
0.0036579903
0.0035285015
0.0034132678
0.0033085919
0.0032122064
0.0031258693
0.003050706
0.0029855799
0.0029290242
0.0028796927
0.0028362914
0.0027974162
0.002762463
0.0027308717
0.0027015646
0.0026738427
0.0026468702
0.0026198233
0.0025921289
0.002563297
0.0025333541
0.0025026953
0.0024711306
0.0024380174
0.0024029389
0.0023658319
0.0023280036
0.0022899371
0.0022502031
0.0022088803
0.0021669712
0.0021261276
0.0020860087
0.0020446429
0.0020023345
0.0019601122
0.0019190024
0.0018777734
0.0018352298
0.0017926108
0.0017511036
0.0017096679
0.0016669007
0.0016235558
0.0015806631
0.0015374108
0.0014929701
0.0014481176
0.0014035209
0.0013585271
0.001312311
0.0012656806
0.0012186931
0.0011707521
0.0011219466
0.0010730253
0.0010234686
0.00097258779
0.00092141651
0.0008695585
0.00081636348
0.00076302869
0.00070909847
0.00065400894
0.00059874979
0.00054302305
0.00048704984
0.00043145753
0.00037762547
0.00032337524
0.00028465975
0.00022589853
0.0003637396
-0.00023880422
0.0051259872
0.0051392298
0.0051256384
0.0051197804
0.0051385693
0.0051762165
0.0052256503
0.0052892353
0.0053733112
0.0054840489
0.0056313415
0.0058221958
0.0060632508
0.0062661738
0.0062623255
0.0060405183
0.0057275093
0.0054296391
0.005162592
0.0049134716
0.0046848674
0.0044799302
0.004294587
0.0041239107
0.0039621697
0.0038086657
0.003666247
0.0035373831
0.0034220596
0.0033171179
0.0032206172
0.0031340518
0.003058421
0.0029926868
0.0029354532
0.0028854209
0.0028412769
0.0028016894
0.0027660817
0.0027337636
0.0027036116
0.0026750093
0.0026472921
0.0026197311
0.0025918435
0.0025633608
0.002534254
0.0025042941
0.0024732093
0.0024408219
0.002406649
0.0023704316
0.0023326911
0.0022939064
0.0022537402
0.0022122938
0.0021702801
0.0021293765
0.0020892926
0.0020479668
0.0020055805
0.0019631856
0.0019219746
0.0018807406
0.0018381689
0.0017954907
0.0017538546
0.0017122601
0.0016693883
0.0016259935
0.001583061
0.0015397546
0.0014952527
0.0014503519
0.0014056806
0.0013605721
0.0013142646
0.0012675752
0.0012205328
0.0011725357
0.0011236742
0.0010746974
0.0010250786
0.00097413524
0.00092290636
0.00087099169
0.00081774099
0.00076435638
0.00071037616
0.00065523547
0.00059992816
0.00054415442
0.00048813623
0.00043250106
0.00037862586
0.00032433297
0.00028557351
0.00022672284
0.00036458262
-0.00023784151
0.0050995282
0.0051174778
0.0051128264
0.0051127368
0.0051324918
0.0051697906
0.0052192326
0.0052823783
0.0053648391
0.0054722484
0.0056122779
0.0057890183
0.0060003657
0.006173779
0.006172884
0.0059766827
0.0056884159
0.0054049093
0.0051472977
0.0049058479
0.0046822434
0.004479825
0.0042961586
0.0041265529
0.003966016
0.0038137924
0.0036723132
0.0035438574
0.0034285003
0.0033235962
0.0032273384
0.0031408341
0.0030649812
0.0029988909
0.0029412199
0.0028906933
0.0028460404
0.0028060062
0.0027699312
0.0027371016
0.0027064759
0.0026774352
0.0026493178
0.0026213726
0.0025930713
0.0025641101
0.0025344279
0.0025039592
0.0024726281
0.0024402397
0.002406435
0.002371046
0.0023340214
0.0022955301
0.0022558868
0.0022152686
0.002174025
0.0021331226
0.002092355
0.002050669
0.0020082036
0.0019657855
0.0019246391
0.0018834678
0.0018409105
0.0017981068
0.0017563533
0.0017147473
0.0016718666
0.0016284195
0.0015854159
0.0015420493
0.0014974927
0.0014525551
0.0014078111
0.001362589
0.0013162006
0.0012694719
0.0012223924
0.0011743518
0.0011254481
0.001076403
0.0010266956
0.00097569069
0.00092441687
0.00087245738
0.00081916072
0.00076573102
0.00071169941
0.00065650842
0.00060115408
0.00054533411
0.00048927195
0.00043359477
0.00037967478
0.00032533807
0.00028652615
0.00022758461
0.0003653859
-0.00023668635
0.0050747887
0.005096262
0.0050990379
0.0051042631
0.0051254426
0.0051625919
0.0052118044
0.0052741337
0.0053544671
0.0054578435
0.0055900061
0.0057525522
0.0059378009
0.006085432
0.0060854246
0.0059116736
0.005646675
0.0053776607
0.0051296368
0.0048959813
0.0046775626
0.0044781742
0.0042964983
0.0041283228
0.0039693316
0.0038186924
0.0036784819
0.0035507825
0.0034357224
0.0033310503
0.0032350629
0.003148578
0.0030724437
0.0030059155
0.0029477042
0.0028965714
0.0028513021
0.0028106947
0.0027740423
0.0027406518
0.0027095457
0.0026800697
0.0026515605
0.0026232673
0.0025946641
0.0025654493
0.0025355513
0.0025049115
0.002473399
0.0024407476
0.0024066019
0.0023708239
0.0023334561
0.0022948478
0.0022554436
0.0022154459
0.0021751992
0.002134793
0.0020940157
0.0020527543
0.0020109295
0.0019689786
0.0019275025
0.0018856515
0.0018429723
0.001800184
0.0017585334
0.0017170244
0.001674192
0.0016306557
0.0015875651
0.0015442007
0.0014996372
0.0014546485
0.0014098356
0.0013645632
0.0013181329
0.0012713693
0.0012242465
0.001176157
0.0011272146
0.0010781045
0.0010283131
0.00097725429
0.00092594772
0.00087395483
0.00082062246
0.00076713289
0.00071302919
0.00065779261
0.00060240082
0.00054654309
0.00049044155
0.00043472186
0.00038075559
0.00032637585
0.00028750442
0.00022846708
0.00036611815
-0.00023531826
0.0050514677
0.0050755799
0.0050844894
0.0050945312
0.0051172883
0.0051542925
0.005203046
0.0052643511
0.0053423551
0.0054414101
0.0055655775
0.0057143911
0.0058768344
0.0060021633
0.0060016369
0.0058474436
0.005604379
0.0053499179
0.0051115058
0.0048855718
0.0046725556
0.0044764873
0.0042969549
0.0041303488
0.0039729237
0.003823819
0.003684814
0.0035578044
0.0034429691
0.0033384104
0.0032425668
0.0031560396
0.003079611
0.0030126473
0.0029539129
0.002902205
0.0028563556
0.0028152078
0.0027780241
0.0027441174
0.0027125485
0.0026826343
0.0026537195
0.0026250802
0.0025961966
0.0025667655
0.0025366979
0.0025059134
0.0024742559
0.0024414683
0.002407226
0.0023713926
0.0023340074
0.0022953835
0.0022558709
0.0022156459
0.0021751086
0.0021343501
0.0020935465
0.002052788
0.0020118049
0.0019706702
0.0019292231
0.0018873235
0.0018451058
0.001802797
0.001760987
0.001718857
0.00167586
0.0016323703
0.0015894103
0.0015461424
0.0015016159
0.0014565505
0.001411691
0.0013664511
0.0013200137
0.0012731996
0.0012260258
0.0011778949
0.0011289178
0.0010797679
0.0010299305
0.00097883009
0.00092749311
0.00087546372
0.00082209359
0.0007685437
0.00071437305
0.00065909691
0.00060367531
0.00054778863
0.00049164011
0.00043586097
0.00038184581
0.00032743047
0.0002884976
0.00022935894
0.00036674715
-0.000233709
0.0050292916
0.0050553856
0.0050693021
0.0050835891
0.0051079486
0.0051448525
0.0051930215
0.0052531379
0.00532861
0.0054230518
0.0055390989
0.0056746611
0.0058169403
0.0059228685
0.0059208127
0.0057834563
0.0055608388
0.0053207627
0.0050919183
0.0048736353
0.0046662335
0.0044737468
0.0042965492
0.004131685
0.0039759162
0.0038284053
0.0036906772
0.0035644532
0.0034499599
0.0033456112
0.0032499929
0.0031635186
0.0030868818
0.0030195413
0.0029603249
0.0029080688
0.0028616499
0.0028199578
0.0027822345
0.0027477945
0.0027157363
0.002685363
0.0026560302
0.0026270377
0.0025978637
0.0025681964
0.002537925
0.0025069565
0.0024751348
0.0024422168
0.0024078953
0.0023720307
0.002334651
0.0022960374
0.0022565177
0.0022162885
0.002175723
0.0021349282
0.0020940793
0.0020531616
0.0020119253
0.0019704691
0.0019288132
0.001887311
0.00184594
0.0018044236
0.0017626507
0.0017203781
0.0016776633
0.0016345583
0.0015914279
0.0015476192
0.001503002
0.0014580315
0.0014133127
0.0013681541
0.0013217255
0.0012748639
0.0012276907
0.0011795684
0.0011305574
0.0010813643
0.001031501
0.0009803735
0.00092900582
0.00087693416
0.00082352453
0.00076994315
0.00071573735
0.00066042381
0.00060497099
0.00054905392
0.00049285458
0.00043701699
0.00038295584
0.00032851118
0.00028951195
0.00023025321
0.00036722918
-0.00023182799
0.0050080311
0.0050356087
0.0050535637
0.0050715106
0.005097423
0.0051342648
0.0051817267
0.0052404568
0.0053131835
0.0054027844
0.0055107128
0.0056336542
0.0057580803
0.0058472049
0.0058430859
0.0057201815
0.0055165128
0.0052905891
0.0050713276
0.004860676
0.0046590746
0.0044704247
0.0042957702
0.0041328199
0.0039788047
0.0038329425
0.0036965416
0.0035711621
0.0034570743
0.0033529653
0.0032575671
0.0031711395
0.0030942863
0.0030265515
0.0029668356
0.0029140151
0.0028670107
0.0028247569
0.0027864816
0.0027514988
0.0027189428
0.0026881084
0.0026583569
0.0026290073
0.0025995367
0.0025696262
0.0025391476
0.002508
0.0024760253
0.0024429844
0.0024085801
0.0023726687
0.0023352748
0.0022966623
0.0022571538
0.0022169559
0.0021764182
0.0021356518
0.0020948003
0.0020538363
0.0020125439
0.0019710172
0.0019293052
0.0018877068
0.0018461362
0.0018043143
0.0017623296
0.0017204716
0.0016785526
0.0016361306
0.0015930044
0.0015490331
0.0015046383
0.0014599078
0.0014149185
0.0013693321
0.0013229364
0.0012762116
0.0012291505
0.0011810782
0.0011320433
0.0010828406
0.001033005
0.00098186297
0.00093045469
0.00087835441
0.00082491788
0.00077131424
0.00071707926
0.00066173302
0.00060625206
0.0005503002
0.00049406221
0.00043819195
0.00038409006
0.00032961355
0.00029053212
0.00023114636
0.00036754723
-0.00022962512
0.0049874923
0.0050161642
0.0050373353
0.0050583693
0.005085716
0.0051224991
0.0051691339
0.0052262884
0.0052960915
0.0053807122
0.0054806309
0.0055916556
0.0057002253
0.0057747871
0.0057683283
0.0056577384
0.0054714645
0.0052593313
0.0050496292
0.0048465541
0.0046508648
0.0044662685
0.0042943507
0.0041334694
0.0039812996
0.0038371375
0.0037021111
0.0035776363
0.0034640235
0.0033601995
0.0032650404
0.003178685
0.0031016496
0.0030335509
0.0029733631
0.0029200029
0.0028724322
0.0028296277
0.0027908092
0.00275529
0.0027222372
0.0026909411
0.0026607674
0.0026310541
0.0026012798
0.0025711198
0.00254043
0.0025090998
0.002476967
0.0024437956
0.0024093004
0.0023733374
0.0023359299
0.0022973244
0.0022578319
0.0022176581
0.0021771284
0.0021363619
0.002095492
0.0020545074
0.0020132227
0.0019717153
0.0019300219
0.0018883891
0.0018467313
0.0018048108
0.0017627392
0.0017207796
0.0016786604
0.0016359918
0.0015928213
0.0015494289
0.0015057463
0.0014614478
0.0014163711
0.0013706433
0.0013244562
0.001277693
0.0012303066
0.0011821206
0.001133187
0.0010841123
0.0010343445
0.00098319789
0.00093177897
0.00087971325
0.00082626984
0.00077263247
0.00071837609
0.00066301048
0.00060750437
0.00055151723
0.00049524982
0.00043935831
0.00038521592
0.00033070689
0.0002915276
0.00023202605
0.00036767258
-0.00022704792
0.004967508
0.004996961
0.0050206541
0.0050442308
0.0050728384
0.0051095332
0.0051552315
0.00521064
0.0052773721
0.0053569369
0.005449027
0.0055488696
0.0056433242
0.0057052583
0.005696383
0.0055962603
0.0054258549
0.0052270702
0.0050268916
0.0048313476
0.0046416614
0.0044613316
0.0042923552
0.0041337063
0.0039834872
0.0038410895
0.0037074956
0.0035839939
0.0034709308
0.0033674429
0.0032725461
0.0031862868
0.0031090971
0.0030406539
0.0029800061
0.0029261129
0.002877976
0.0028346141
0.0027952443
0.0027591804
0.0027256191
0.0026938508
0.0026632453
0.0026331585
0.0026030721
0.0025726549
0.0025417472
0.0025102283
0.0024779323
0.0024446269
0.0024100387
0.002374024
0.0023366027
0.0022980035
0.0022585241
0.0022183701
0.0021778478
0.0021370852
0.0020962082
0.0020552127
0.0020139279
0.0019724135
0.0019307099
0.0018890474
0.0018473695
0.0018054619
0.0017633988
0.0017213901
0.0016791671
0.0016363875
0.0015931175
0.0015496335
0.0015057411
0.0014613057
0.0014164993
0.001371401
0.0013257528
0.0012791082
0.0012315637
0.0011833877
0.0011345252
0.0010852385
0.0010352565
0.00098418365
0.00093290263
0.00088091428
0.00082748043
0.00077383553
0.00071961018
0.00066424154
0.00060870465
0.0005526978
0.00049641245
0.00044049844
0.00038631515
0.0003317796
0.00029249259
0.000232871
0.00036754013
-0.00022404796
0.004947932
0.0049779079
0.0050035381
0.0050291515
0.0050588086
0.0050953554
0.0051400153
0.005193527
0.0052570689
0.0053315581
0.0054160622
0.005505473
0.0055873495
0.0056383291
0.0056270956
0.0055358627
0.0053798453
0.00519388
0.0050031494
0.0048150827
0.0046314552
0.0044555739
0.0042897296
0.0041334656
0.0039852979
0.0038447271
0.003712621
0.0035901569
0.0034777131
0.0033746107
0.0032799994
0.0031938585
0.0031165418
0.0030477759
0.002986684
0.0029322705
0.0028835762
0.0028396593
0.0027997399
0.0027631324
0.0027290607
0.0026968182
0.0026657789
0.0026353153
0.0026049125
0.0025742334
0.0025431035
0.0025113923
0.0024789304
0.0024454893
0.0024108064
0.0023747381
0.0023373004
0.0022987052
0.0022592375
0.0022191029
0.0021785898
0.0021378328
0.0020969493
0.0020559399
0.0020146486
0.001973125
0.0019314166
0.0018897364
0.0018480405
0.0018061221
0.0017640363
0.0017219819
0.0016797302
0.0016369552
0.0015936869
0.0015501449
0.0015061448
0.0014615975
0.0014166919
0.0013714487
0.0013256642
0.0012791947
0.0012321485
0.0011844706
0.001135882
0.0010864586
0.0010363349
0.00098536603
0.00093394885
0.00088172377
0.00082835675
0.0007748437
0.00072069208
0.0006653354
0.00060979991
0.00055382561
0.00049753423
0.0004415909
0.0003873768
0.00033282326
0.00029341945
0.00023366369
0.00036708872
-0.00022055279
0.0049286362
0.0049589171
0.0049859905
0.0050131783
0.0050436508
0.0050799631
0.0051234881
0.0051749734
0.0052352362
0.0053046801
0.0053818901
0.0054616172
0.0055322789
0.0055737472
0.0055602967
0.0054766202
0.005333581
0.005159836
0.004978438
0.0047977909
0.0046202536
0.0044489789
0.0042864515
0.0041327253
0.0039867147
0.0038480406
0.0037174838
0.0035961259
0.0034843742
0.0033817121
0.0032874164
0.0032014208
0.0031240083
0.0030549455
0.002993429
0.00293851
0.0028892675
0.0028447982
0.0028043291
0.0027671768
0.0027325896
0.0026998676
0.0026683888
0.0026375411
0.0026068141
0.0025758652
0.0025445062
0.0025125969
0.0024799647
0.0024463843
0.0024116031
0.0023754779
0.0023380208
0.0022994281
0.0022599714
0.0022198555
0.0021793518
0.0021385993
0.0020977085
0.0020566843
0.0020153867
0.0019738566
0.0019321456
0.0018904479
0.0018487283
0.0018067931
0.0017646874
0.0017225987
0.0016803189
0.0016375279
0.0015942386
0.0015506634
0.0015066553
0.0014621139
0.0014171799
0.001371849
0.0013259416
0.0012793636
0.0012321903
0.0011844117
0.0011360111
0.0010869853
0.0010372889
0.00098664828
0.00093509674
0.0008826574
0.0008293788
0.0007757748
0.00072142894
0.00066613419
0.00061072666
0.00055481485
0.00049853256
0.00044259175
0.00038838263
0.00033381747
0.00029429173
0.00023438794
0.00036625644
-0.00021647653
0.0049095077
0.0049399055
0.0049680039
0.0049963494
0.0050273925
0.0050633624
0.0051056601
0.0051550117
0.0052119373
0.0052764096
0.0053466534
0.0054174295
0.0054780904
0.0055112947
0.0054958168
0.005418581
0.0052872012
0.0051250264
0.0049528018
0.004779509
0.0046080716
0.0044415348
0.0042824974
0.0041314569
0.0039877084
0.0038510027
0.0037220572
0.0036018734
0.0034908853
0.003388719
0.0032947713
0.003208948
0.0031314703
0.0030621371
0.0030002156
0.0029448059
0.002895025
0.0028500066
0.0028089887
0.0027712915
0.0027361859
0.0027029805
0.0026710582
0.0026398212
0.0026087642
0.0025775397
0.0025459467
0.0025138354
0.0024810297
0.0024473077
0.0024124258
0.0023762418
0.0023387635
0.002300172
0.0022607258
0.0022206277
0.0021801335
0.0021393851
0.0020984874
0.0020574493
0.0020161456
0.0019746092
0.0019328942
0.0018911776
0.0018494335
0.0018074824
0.0017653598
0.0017232378
0.0016809246
0.0016381118
0.0015948042
0.0015512043
0.0015071805
0.0014626244
0.0014176634
0.0013723108
0.0013263962
0.0012798007
0.0012325626
0.0011846764
0.0011361641
0.001087004
0.0010372487
0.00098684763
0.00093562945
0.00088355415
0.0008305728
0.00077682878
0.00072226007
0.00066703259
0.00061155349
0.00055548228
0.00049927255
0.00044343869
0.00038925491
0.00033469937
0.00029507947
0.00023501535
0.00036497107
-0.00021172269
0.0048904461
0.0049207962
0.0049495635
0.0049786949
0.0050100636
0.0050455683
0.0050865499
0.0051336827
0.0051872429
0.005246853
0.0053104837
0.0053730179
0.0054247633
0.0054507835
0.0054334917
0.0053617693
0.005240833
0.0050895438
0.004926288
0.0047602722
0.0045949257
0.004433232
0.0042778437
0.0041296323
0.0039882509
0.0038535878
0.0037263183
0.0036073782
0.0034972261
0.0033956141
0.0033020511
0.0032164302
0.00313892
0.0030693455
0.0030070415
0.0029511586
0.0029008513
0.0028552897
0.0028137257
0.0027754848
0.0027398588
0.0027061669
0.0026737974
0.0026421657
0.0026107728
0.0025792663
0.0025474335
0.0025151153
0.0024821323
0.0024482655
0.0024132799
0.0023770343
0.002339532
0.0023009398
0.0022615029
0.0022214212
0.0021809362
0.0021401915
0.0020992871
0.0020582355
0.0020169251
0.0019753821
0.001933662
0.0018919268
0.0018501586
0.0018081916
0.0017660511
0.0017238943
0.0016815461
0.0016387124
0.0015953889
0.001551764
0.0015077191
0.0014631457
0.0014181628
0.0013727876
0.0013268531
0.0012802379
0.0012329848
0.0011850927
0.0011365586
0.0010873389
0.0010374825
0.00098696648
0.00093560782
0.00088355241
0.0008308657
0.00077742177
0.00072314944
0.0006681257
0.00061246577
0.00055620506
0.00050004277
0.00044414155
0.00038984885
0.00033538033
0.00029571962
0.00023546766
0.00036312299
-0.00020618496
0.0048713626
0.0049015186
0.0049306506
0.0049602385
0.0049916952
0.0050266029
0.005066184
0.005111034
0.0051612287
0.0052161163
0.005273503
0.0053284746
0.0053722768
0.0053920502
0.005373165
0.0053061884
0.0051945887
0.0050534835
0.0048989484
0.0047401174
0.0045808367
0.0044240667
0.0042724708
0.0041272259
0.0039883156
0.0038557712
0.0037302444
0.0036126181
0.0035033745
0.0034023768
0.0033092381
0.0032238515
0.0031463427
0.0030765577
0.0030138953
0.0029575578
0.0029067374
0.0028606396
0.0028185327
0.0027797499
0.0027436021
0.0027094207
0.0026766005
0.0026445694
0.0026128346
0.0025810402
0.0025489623
0.0025164327
0.0024832688
0.0024492544
0.0024141623
0.0023778526
0.002340324
0.0023017293
0.0022623008
0.0022222346
0.0021817589
0.0021410177
0.0021001071
0.0020590422
0.0020177247
0.0019761751
0.0019344495
0.0018926962
0.001850904
0.0018089199
0.0017667607
0.0017245689
0.0016821858
0.001639331
0.0015959909
0.0015523395
0.0015082723
0.0014636832
0.0014186797
0.0013732791
0.0013273212
0.0012806879
0.0012334185
0.001185511
0.0011369581
0.0010877279
0.0010378614
0.00098731185
0.00093589309
0.00088374615
0.00083093774
0.00077737266
0.00072322746
0.00066851406
0.00061310251
0.00055709303
0.00050101224
0.00044490447
0.00039048009
0.00033602647
0.00029614563
0.00023564056
0.0003605591
-0.00019977026
0.0048521781
0.0048820089
0.0049112445
0.0049409989
0.0049723189
0.0050064953
0.0050445966
0.0050871194
0.0051339746
0.0051843038
0.0052358238
0.0052838782
0.0053206098
0.0053349521
0.0053146899
0.005251826
0.0051485656
0.0050169417
0.0048708397
0.0047190834
0.0045658286
0.0044140393
0.0042663619
0.0041242132
0.0039878762
0.0038575275
0.0037338114
0.0036175698
0.0035093072
0.0034089855
0.0033163142
0.0032311963
0.0031537243
0.0030837616
0.0030207672
0.0029639956
0.0029126773
0.002866052
0.0028234073
0.0027840853
0.0027474155
0.0027127429
0.0026794693
0.0026470346
0.0026149527
0.0025828646
0.0025505363
0.0025177908
0.0024844424
0.0024502776
0.0024150761
0.0023786997
0.0023411421
0.0023025431
0.0022631218
0.0022230699
0.0021826033
0.0021418653
0.0021009485
0.0020598707
0.0020185458
0.0019769894
0.0019352576
0.0018934863
0.0018516699
0.0018096679
0.0017674893
0.0017252628
0.0016828446
0.0016399676
0.0015966097
0.0015529315
0.0015088419
0.0014642367
0.0014192115
0.0013737844
0.0013278035
0.0012811529
0.0012338659
0.0011859405
0.0011373701
0.0010881256
0.0010382404
0.00098766957
0.0009362471
0.00088408966
0.00083123891
0.00077760285
0.00072336632
0.00066851989
0.00061307086
0.00055730533
0.00050150692
0.00044558489
0.0003913022
0.00033678295
0.0002965776
0.00023579185
0.00035719618
-0.00019240051
0.0048328227
0.0048622099
0.0048913244
0.0049209916
0.0049519671
0.0049852801
0.0050218289
0.0050619984
0.0051055633
0.0051515173
0.0051975497
0.0052392961
0.0052697407
0.0052793634
0.0052579307
0.0051986573
0.0051028457
0.0049800125
0.0048420222
0.0046972105
0.0045499278
0.0044031545
0.0042595033
0.0041205718
0.0039869074
0.0038588318
0.0037369954
0.0036222098
0.003515001
0.0034154183
0.0033232605
0.0032384483
0.00316105
0.0030909442
0.0030276462
0.0029704627
0.0029186631
0.002871521
0.0028283446
0.0027884873
0.0027512965
0.0027161313
0.0026824021
0.00264956
0.0026171259
0.0025847386
0.0025521546
0.0025191888
0.0024856525
0.0024513342
0.0024160207
0.0023795747
0.0023419856
0.0023033804
0.0022639651
0.0022239264
0.0021834686
0.0021427335
0.0021018108
0.0020607206
0.0020193879
0.0019778246
0.0019360862
0.001894297
0.0018524563
0.0018104357
0.0017682371
0.0017259761
0.0016835223
0.0016406221
0.0015972458
0.0015535409
0.0015094283
0.0014648061
0.0014197586
0.0013743046
0.0013283006
0.0012816319
0.0012343262
0.0011863831
0.0011377955
0.0010885351
0.00103863
0.00098803948
0.00093660617
0.00088443178
0.00083156442
0.00077792636
0.00072366916
0.00066876788
0.00061324176
0.00055737366
0.00050144994
0.00044563132
0.00039160688
0.00033728654
0.00029709969
0.0002360275
0.00035320175
-0.00018380166
0.0048132344
0.004842071
0.0048708709
0.0049002299
0.0049306722
0.0049629967
0.0049979284
0.0050357349
0.0050760792
0.0051178558
0.0051587759
0.0051947858
0.0052196475
0.0052251731
0.0052027622
0.0051466489
0.0050574964
0.0049427865
0.0048125597
0.0046745413
0.0045331629
0.0043914212
0.0042518847
0.0041162812
0.0039853853
0.0038596596
0.0037397725
0.0036265144
0.0035204319
0.0034216525
0.003330057
0.00324559
0.003168304
0.0030980915
0.0030345202
0.0029769491
0.0029246867
0.00287704
0.0028333397
0.0027929523
0.0027552424
0.0027195844
0.002685398
0.0026521452
0.0026193544
0.0025866626
0.0025538182
0.0025206279
0.0024869001
0.0024524256
0.0024169972
0.002380479
0.0023428557
0.0023042423
0.0022648318
0.0022248051
0.0021843558
0.0021436233
0.0021026949
0.0020615925
0.0020202517
0.0019786814
0.0019369359
0.0018951289
0.001853264
0.0018112239
0.0017690048
0.0017267094
0.0016842195
0.0016412952
0.0015978999
0.0015541681
0.0015100318
0.0014653917
0.0014203215
0.0013748403
0.0013288125
0.001282125
0.0012348001
0.001186839
0.0011382337
0.0010889565
0.0010390318
0.0009884215
0.00093697512
0.00088478426
0.00083190084
0.00077825147
0.00072397358
0.00066905977
0.00061352796
0.00055762178
0.00050162285
0.00044572088
0.00039154755
0.00033719298
0.00029706563
0.00023583924
0.00034856049
-0.00017376295
0.004793359
0.0048215483
0.0048498666
0.0048787265
0.0049084674
0.0049396885
0.0049729479
0.0050083969
0.005045607
0.0050834143
0.0051195898
0.005150397
0.0051703081
0.0051722824
0.0051490703
0.0050957612
0.0050125714
0.0049053489
0.0047825178
0.0046511205
0.0045155649
0.0043788517
0.0042434998
0.0041113234
0.0039832873
0.0038599872
0.0037421188
0.0036304594
0.0035255759
0.0034276648
0.003336683
0.0032526032
0.0031754697
0.0031051888
0.0030413768
0.0029834442
0.0029307392
0.0028826021
0.0028383871
0.0027974758
0.0027592501
0.0027231
0.0026884555
0.0026547895
0.0026216378
0.0025886367
0.002555527
0.0025221081
0.0024881855
0.002453552
0.0024180059
0.0023814128
0.0023437527
0.002305129
0.0022657217
0.0022257059
0.0021852647
0.0021445347
0.0021036007
0.0020624866
0.0020211374
0.00197956
0.0019378069
0.0018959823
0.001854093
0.0018120329
0.0017697925
0.0017274627
0.0016849364
0.0016419872
0.0015985722
0.0015548134
0.0015106526
0.0014659939
0.0014209006
0.0013753918
0.0013293395
0.0012826325
0.0012352882
0.0011873085
0.0011386848
0.0010893903
0.0010394458
0.00098881491
0.00093735487
0.00088514816
0.00083224774
0.00077858468
0.00072428803
0.00066935873
0.00061381274
0.0005578868
0.00050187617
0.0004459487
0.00039168694
0.00033723339
0.00029666052
0.00023534791
0.00034209241
-0.00016231692
0.0047731492
0.0048006042
0.0048282975
0.0048564943
0.0048853863
0.0049154019
0.0049469443
0.0049800549
0.0050142318
0.0050482842
0.0050800716
0.0051061719
0.0051217006
0.0051206028
0.0050967507
0.0050459511
0.0049681123
0.0048677784
0.0047519633
0.0046269949
0.0044971667
0.0043654619
0.0042343458
0.0041056832
0.0039805922
0.0038597916
0.0037440106
0.0036340208
0.0035304083
0.0034334317
0.0033431171
0.0032594689
0.0031825299
0.0031122205
0.0030482022
0.0029899363
0.0029368109
0.0028881993
0.0028434808
0.0028020532
0.002763316
0.0027266755
0.0026915728
0.0026574917