/*--------------------------------*- C++ -*----------------------------------*\
  =========                 |
  \\      /  F ield         | OpenFOAM: The Open Source CFD Toolbox
   \\    /   O peration     | Website:  https://openfoam.org
    \\  /    A nd           | Version:  12
     \\/     M anipulation  |
\*---------------------------------------------------------------------------*/
FoamFile
{
    format      ascii;
    class       volScalarField;
    location    "200";
    object      p;
}
// * * * * * * * * * * * * * * * * * * * * * * * * * * * * * * * * * * * * * //

dimensions      [0 2 -2 0 0 0 0];

internalField   nonuniform List<scalar> 
13056
(
0.0039478141
0.0039675881
0.0040113285
0.0040667905
0.004131986
0.0042069627
0.004291149
0.0043838128
0.004484587
0.0045935122
0.0047109423
0.004837533
0.0049743214
0.0051228735
0.0052854967
0.005465634
0.0056683869
0.005902047
0.0061790883
0.006525849
0.0069767564
0.0076760499
0.0086522042
0.012057619
0.0090058368
0.0041002587
0.0041064996
0.0045405965
0.0045803226
0.0043920011
0.0042213392
0.0041304276
0.0040603839
0.0039878764
0.0039178975
0.0038536369
0.0037928364
0.003735269
0.0036805084
0.0036294368
0.0035810473
0.0035348868
0.00349087
0.0034483337
0.0034078208
0.0033680375
0.0033302988
0.0032937137
0.0032570235
0.0032225159
0.003188735
0.0031545857
0.0031225278
0.0030910568
0.0030588231
0.0030281956
0.0029983511
0.0029679769
0.0029378023
0.0029092857
0.0028809559
0.0028515971
0.0028229128
0.0027955044
0.0027679983
0.0027397082
0.0027118925
0.0026852785
0.0026585583
0.0026307768
0.0026032642
0.0025767913
0.0025503888
0.0025229121
0.0024954479
0.0024685004
0.0024419668
0.0024148345
0.0023869804
0.0023592131
0.0023322156
0.0023050621
0.0022766214
0.0022481109
0.0022198403
0.0021917606
0.0021629661
0.0021332234
0.0021033899
0.0020740103
0.0020442376
0.0020130117
0.0019814145
0.0019498703
0.0019180927
0.0018851206
0.0018510332
0.0018166477
0.0017822515
0.0017466113
0.0017091668
0.0016711293
0.0016330065
0.001593384
0.0015514437
0.0015086214
0.0014652107
0.0014196113
0.0013714022
0.0013221587
0.0012711274
0.0012168313
0.0011600939
0.0011027508
0.0010448088
0.00098715541
0.00093160728
0.00087729716
0.00082291252
0.00076927766
0.00071734686
0.00066644982
0.00061553448
0.00056508727
0.00051604291
0.00046861704
0.00042213031
0.00037593642
0.00033109248
0.0002884345
0.00024931689
0.00021186428
0.00018670322
0.0001505282
0.0002580355
-0.00020235354
0.0039478141
0.0039675882
0.0040113285
0.0040667905
0.004131986
0.0042069627
0.004291149
0.0043838129
0.004484587
0.0045935122
0.0047109423
0.004837533
0.0049743214
0.0051228735
0.0052854968
0.0054656341
0.0056683869
0.0059020471
0.0061790883
0.0065258491
0.0069767564
0.0076760501
0.0086522052
0.012055426
0.0090065997
0.0041008669
0.0041065192
0.0045406098
0.0045803492
0.004392029
0.0042213639
0.0041304488
0.0040604021
0.0039878924
0.0039179118
0.0038536498
0.0037928482
0.0037352799
0.0036805184
0.0036294461
0.0035810559
0.0035348949
0.0034908775
0.0034483407
0.0034078274
0.0033680436
0.0033303046
0.0032937192
0.0032570287
0.0032225208
0.0031887396
0.0031545902
0.003122532
0.0030910608
0.0030588269
0.0030281992
0.0029983546
0.0029679802
0.0029378055
0.0029092888
0.0028809588
0.0028515999
0.0028229155
0.002795507
0.0027680008
0.0027397106
0.0027118948
0.0026852807
0.0026585604
0.0026307788
0.0026032662
0.0025767931
0.0025503906
0.0025229138
0.0024954495
0.002468502
0.0024419684
0.002414836
0.0023869818
0.0023592145
0.0023322169
0.0023050634
0.0022766227
0.0022481121
0.0022198414
0.0021917617
0.0021629671
0.0021332244
0.0021033909
0.0020740112
0.0020442385
0.0020130125
0.0019814154
0.0019498711
0.0019180934
0.0018851214
0.0018510339
0.0018166483
0.0017822521
0.0017466119
0.0017091673
0.0016711298
0.0016330071
0.0015933845
0.0015514442
0.0015086218
0.0014652111
0.0014196117
0.0013714026
0.001322159
0.0012711277
0.0012168316
0.0011600942
0.0011027511
0.0010448091
0.00098715568
0.00093160753
0.00087729739
0.00082291275
0.00076927788
0.00071734706
0.00066645002
0.00061553467
0.00056508745
0.00051604309
0.00046861721
0.00042213047
0.00037593659
0.00033109264
0.00028843465
0.00024931704
0.00021186442
0.00018670336
0.00015052834
0.00025803567
-0.00020235344
0.0039478141
0.0039675882
0.0040113285
0.0040667905
0.004131986
0.0042069627
0.0042911491
0.0043838129
0.004484587
0.0045935122
0.0047109423
0.004837533
0.0049743214
0.0051228736
0.0052854968
0.0054656341
0.005668387
0.0059020472
0.0061790884
0.0065258492
0.0069767565
0.0076760501
0.0086522059
0.012053209
0.0090074274
0.0041015574
0.0041065428
0.0045406256
0.004580381
0.0043920624
0.0042213935
0.004130474
0.004060424
0.0039879116
0.0039179288
0.0038536652
0.0037928624
0.003735293
0.0036805304
0.0036294572
0.0035810662
0.0035349045
0.0034908865
0.0034483491
0.0034078352
0.003368051
0.0033303115
0.0032937257
0.0032570349
0.0032225267
0.0031887452
0.0031545955
0.003122537
0.0030910656
0.0030588315
0.0030282036
0.0029983588
0.0029679842
0.0029378093
0.0029092924
0.0028809623
0.0028516033
0.0028229187
0.00279551
0.0027680037
0.0027397134
0.0027118975
0.0026852833
0.0026585629
0.0026307813
0.0026032685
0.0025767954
0.0025503927
0.0025229159
0.0024954515
0.0024685039
0.0024419702
0.0024148377
0.0023869835
0.0023592161
0.0023322185
0.0023050649
0.0022766241
0.0022481135
0.0022198427
0.002191763
0.0021629684
0.0021332256
0.002103392
0.0020740123
0.0020442395
0.0020130135
0.0019814163
0.001949872
0.0019180943
0.0018851222
0.0018510347
0.0018166491
0.0017822529
0.0017466126
0.001709168
0.0016711305
0.0016330077
0.0015933851
0.0015514447
0.0015086224
0.0014652117
0.0014196122
0.001371403
0.0013221595
0.0012711281
0.001216832
0.0011600946
0.0011027515
0.0010448094
0.00098715599
0.00093160783
0.00087729768
0.00082291302
0.00076927814
0.00071734731
0.00066645026
0.0006155349
0.00056508767
0.00051604331
0.00046861742
0.00042213067
0.00037593678
0.00033109282
0.00028843483
0.00024931721
0.00021186459
0.00018670353
0.00015052851
0.00025803586
-0.00020235331
0.0039478141
0.0039675882
0.0040113285
0.0040667905
0.004131986
0.0042069627
0.0042911491
0.0043838129
0.004484587
0.0045935122
0.0047109423
0.0048375331
0.0049743214
0.0051228736
0.0052854968
0.0054656342
0.005668387
0.0059020472
0.0061790885
0.0065258492
0.0069767565
0.0076760499
0.0086522066
0.012051023
0.0090082888
0.0041021611
0.0041065659
0.0045406412
0.0045804121
0.0043920952
0.0042214225
0.0041304988
0.0040604454
0.0039879304
0.0039179455
0.0038536803
0.0037928763
0.0037353058
0.0036805422
0.0036294681
0.0035810762
0.0035349138
0.0034908952
0.0034483573
0.0034078429
0.0033680582
0.0033303183
0.0032937322
0.003257041
0.0032225325
0.0031887507
0.0031546007
0.0031225419
0.0030910703
0.003058836
0.0030282079
0.0029983628
0.0029679881
0.002937813
0.002909296
0.0028809657
0.0028516065
0.0028229218
0.0027955131
0.0027680066
0.0027397162
0.0027119002
0.0026852858
0.0026585654
0.0026307836
0.0026032708
0.0025767976
0.0025503948
0.0025229179
0.0024954535
0.0024685058
0.002441972
0.0024148395
0.0023869852
0.0023592177
0.00233222
0.0023050664
0.0022766255
0.0022481149
0.0022198441
0.0021917643
0.0021629696
0.0021332268
0.0021033932
0.0020740134
0.0020442406
0.0020130145
0.0019814173
0.0019498729
0.0019180952
0.0018851231
0.0018510355
0.0018166499
0.0017822536
0.0017466133
0.0017091687
0.0016711311
0.0016330083
0.0015933857
0.0015514453
0.0015086229
0.0014652122
0.0014196127
0.0013714035
0.0013221599
0.0012711286
0.0012168324
0.0011600949
0.0011027518
0.0010448098
0.00098715629
0.00093160812
0.00087729796
0.00082291329
0.00076927839
0.00071734756
0.00066645049
0.00061553512
0.00056508789
0.00051604351
0.00046861762
0.00042213087
0.00037593696
0.000331093
0.000288435
0.00024931739
0.00021186476
0.00018670369
0.00015052867
0.00025803606
-0.00020235319
0.0039478141
0.0039675882
0.0040113285
0.0040667905
0.004131986
0.0042069627
0.0042911491
0.0043838129
0.004484587
0.0045935122
0.0047109423
0.0048375331
0.0049743214
0.0051228736
0.0052854969
0.0054656342
0.0056683871
0.0059020472
0.0061790885
0.0065258492
0.0069767565
0.0076760493
0.0086522075
0.012048648
0.0090091806
0.0041027267
0.0041065899
0.0045406576
0.0045804442
0.0043921289
0.0042214523
0.0041305243
0.0040604674
0.0039879496
0.0039179626
0.0038536958
0.0037928906
0.0037353189
0.0036805543
0.0036294793
0.0035810866
0.0035349235
0.0034909042
0.0034483657
0.0034078508
0.0033680657
0.0033303253
0.0032937388
0.0032570472
0.0032225384
0.0031887563
0.003154606
0.003122547
0.0030910751
0.0030588405
0.0030282122
0.002998367
0.0029679921
0.0029378169
0.0029092996
0.0028809692
0.0028516099
0.002822925
0.0027955162
0.0027680096
0.002739719
0.002711903
0.0026852885
0.0026585679
0.0026307861
0.0026032731
0.0025767998
0.002550397
0.00252292
0.0024954555
0.0024685077
0.0024419739
0.0024148413
0.0023869869
0.0023592194
0.0023322216
0.0023050679
0.002276627
0.0022481163
0.0022198454
0.0021917656
0.0021629709
0.002133228
0.0021033943
0.0020740145
0.0020442416
0.0020130156
0.0019814183
0.0019498739
0.0019180961
0.0018851239
0.0018510363
0.0018166507
0.0017822544
0.001746614
0.0017091694
0.0016711318
0.0016330089
0.0015933863
0.0015514459
0.0015086234
0.0014652127
0.0014196132
0.001371404
0.0013221603
0.001271129
0.0012168328
0.0011600953
0.0011027522
0.0010448101
0.00098715661
0.00093160842
0.00087729824
0.00082291356
0.00076927866
0.00071734781
0.00066645074
0.00061553536
0.00056508811
0.00051604373
0.00046861782
0.00042213107
0.00037593716
0.00033109319
0.00028843519
0.00024931756
0.00021186493
0.00018670387
0.00015052883
0.00025803626
-0.00020235306
0.0039478141
0.0039675882
0.0040113285
0.0040667905
0.004131986
0.0042069627
0.0042911491
0.0043838129
0.004484587
0.0045935122
0.0047109424
0.0048375331
0.0049743215
0.0051228736
0.0052854969
0.0054656342
0.0056683871
0.0059020473
0.0061790885
0.0065258492
0.0069767564
0.0076760484
0.0086522087
0.012045997
0.0090099108
0.0041032671
0.0041066173
0.0045406761
0.004580479
0.0043921654
0.0042214844
0.0041305517
0.0040604911
0.0039879704
0.0039179811
0.0038537125
0.0037929059
0.003735333
0.0036805673
0.0036294913
0.0035810977
0.0035349338
0.0034909138
0.0034483747
0.0034078592
0.0033680736
0.0033303328
0.0032937458
0.0032570539
0.0032225447
0.0031887623
0.0031546117
0.0031225524
0.0030910803
0.0030588454
0.0030282169
0.0029983715
0.0029679964
0.0029378209
0.0029093035
0.0028809729
0.0028516135
0.0028229285
0.0027955195
0.0027680128
0.0027397221
0.0027119059
0.0026852913
0.0026585706
0.0026307887
0.0026032756
0.0025768022
0.0025503993
0.0025229222
0.0024954576
0.0024685098
0.0024419758
0.0024148432
0.0023869887
0.0023592211
0.0023322233
0.0023050695
0.0022766286
0.0022481178
0.0022198469
0.002191767
0.0021629722
0.0021332293
0.0021033956
0.0020740157
0.0020442428
0.0020130167
0.0019814193
0.0019498749
0.0019180971
0.0018851249
0.0018510372
0.0018166515
0.0017822552
0.0017466148
0.0017091701
0.0016711325
0.0016330096
0.0015933869
0.0015514465
0.001508624
0.0014652132
0.0014196137
0.0013714045
0.0013221608
0.0012711294
0.0012168332
0.0011600957
0.0011027526
0.0010448104
0.00098715695
0.00093160874
0.00087729855
0.00082291385
0.00076927894
0.00071734808
0.00066645099
0.0006155356
0.00056508835
0.00051604396
0.00046861805
0.00042213128
0.00037593736
0.00033109339
0.00028843538
0.00024931775
0.00021186511
0.00018670405
0.00015052901
0.00025803647
-0.00020235293
0.0039478141
0.0039675882
0.0040113285
0.0040667905
0.004131986
0.0042069627
0.0042911491
0.0043838129
0.0044845871
0.0045935122
0.0047109424
0.0048375331
0.0049743215
0.0051228736
0.0052854969
0.0054656342
0.0056683871
0.0059020473
0.0061790885
0.0065258491
0.0069767562
0.0076760471
0.0086522101
0.01204304
0.0090104443
0.0041038099
0.0041066534
0.0045406988
0.0045805183
0.0043922065
0.0042215206
0.0041305825
0.0040605176
0.0039879936
0.0039180016
0.0038537311
0.0037929229
0.0037353487
0.0036805817
0.0036295045
0.00358111
0.0035349452
0.0034909245
0.0034483847
0.0034078686
0.0033680824
0.0033303411
0.0032937536
0.0032570613
0.0032225517
0.0031887689
0.0031546179
0.0031225584
0.003091086
0.0030588509
0.0030282221
0.0029983764
0.002968001
0.0029378254
0.0029093078
0.002880977
0.0028516174
0.0028229323
0.0027955231
0.0027680163
0.0027397254
0.0027119091
0.0026852944
0.0026585735
0.0026307915
0.0026032783
0.0025768048
0.0025504018
0.0025229246
0.0024954599
0.002468512
0.002441978
0.0024148452
0.0023869907
0.0023592231
0.0023322251
0.0023050713
0.0022766303
0.0022481194
0.0022198485
0.0021917685
0.0021629737
0.0021332307
0.0021033969
0.002074017
0.002044244
0.0020130179
0.0019814205
0.001949876
0.0019180981
0.0018851259
0.0018510382
0.0018166525
0.0017822561
0.0017466157
0.0017091709
0.0016711333
0.0016330103
0.0015933876
0.0015514471
0.0015086246
0.0014652138
0.0014196143
0.001371405
0.0013221613
0.0012711299
0.0012168337
0.0011600961
0.001102753
0.0010448108
0.00098715731
0.00093160909
0.00087729888
0.00082291417
0.00076927924
0.00071734837
0.00066645127
0.00061553587
0.00056508861
0.00051604421
0.00046861829
0.00042213151
0.00037593759
0.00033109361
0.00028843559
0.00024931796
0.00021186531
0.00018670424
0.00015052919
0.0002580367
-0.00020235279
0.0039478141
0.0039675882
0.0040113285
0.0040667905
0.004131986
0.0042069627
0.0042911491
0.0043838129
0.0044845871
0.0045935122
0.0047109424
0.0048375331
0.0049743215
0.0051228737
0.0052854969
0.0054656343
0.0056683871
0.0059020473
0.0061790884
0.006525849
0.0069767559
0.0076760454
0.0086522118
0.012039739
0.0090107982
0.0041044769
0.0041067115
0.0045407303
0.0045805658
0.0043922554
0.0042215634
0.0041306189
0.0040605489
0.0039880208
0.0039180257
0.0038537528
0.0037929428
0.0037353669
0.0036805984
0.0036295199
0.0035811242
0.0035349585
0.0034909368
0.0034483961
0.0034078793
0.0033680924
0.0033303506
0.0032937626
0.0032570697
0.0032225596
0.0031887764
0.0031546251
0.0031225652
0.0030910924
0.003058857
0.0030282279
0.002998382
0.0029680064
0.0029378305
0.0029093127
0.0028809817
0.0028516219
0.0028229366
0.0027955272
0.0027680202
0.0027397292
0.0027119127
0.0026852979
0.0026585769
0.0026307947
0.0026032814
0.0025768078
0.0025504047
0.0025229274
0.0024954626
0.0024685146
0.0024419804
0.0024148476
0.002386993
0.0023592252
0.0023322272
0.0023050733
0.0022766322
0.0022481213
0.0022198502
0.0021917702
0.0021629753
0.0021332323
0.0021033984
0.0020740184
0.0020442454
0.0020130192
0.0019814218
0.0019498772
0.0019180993
0.001885127
0.0018510392
0.0018166535
0.0017822571
0.0017466166
0.0017091718
0.0016711341
0.0016330111
0.0015933884
0.0015514479
0.0015086253
0.0014652145
0.0014196149
0.0013714056
0.0013221619
0.0012711304
0.0012168342
0.0011600966
0.0011027534
0.0010448113
0.00098715772
0.00093160948
0.00087729925
0.00082291452
0.00076927958
0.00071734869
0.00066645158
0.00061553617
0.0005650889
0.00051604448
0.00046861855
0.00042213177
0.00037593784
0.00033109385
0.00028843582
0.00024931818
0.00021186553
0.00018670446
0.0001505294
0.00025803695
-0.00020235263
0.0039478141
0.0039675882
0.0040113286
0.0040667905
0.004131986
0.0042069627
0.0042911491
0.0043838129
0.0044845871
0.0045935123
0.0047109424
0.0048375331
0.0049743215
0.0051228737
0.005285497
0.0054656343
0.0056683871
0.0059020473
0.0061790884
0.0065258487
0.0069767555
0.0076760431
0.008652214
0.012036041
0.0090109267
0.0041054173
0.0041068194
0.0045407795
0.0045806273
0.0043923176
0.0042216175
0.0041306646
0.004060588
0.0039880547
0.0039180556
0.0038537797
0.0037929673
0.0037353893
0.0036806189
0.0036295388
0.0035811416
0.0035349746
0.0034909518
0.0034484101
0.0034078924
0.0033681047
0.003330362
0.0032937734
0.0032570799
0.0032225692
0.0031887855
0.0031546337
0.0031225733
0.0030911002
0.0030588644
0.003028235
0.0029983887
0.0029680128
0.0029378366
0.0029093185
0.0028809872
0.0028516272
0.0028229417
0.0027955321
0.0027680249
0.0027397337
0.002711917
0.002685302
0.0026585808
0.0026307985
0.0026032851
0.0025768113
0.002550408
0.0025229306
0.0024954657
0.0024685175
0.0024419833
0.0024148503
0.0023869956
0.0023592278
0.0023322297
0.0023050756
0.0022766345
0.0022481234
0.0022198523
0.0021917722
0.0021629772
0.0021332341
0.0021034002
0.0020740201
0.002044247
0.0020130207
0.0019814233
0.0019498787
0.0019181007
0.0018851283
0.0018510405
0.0018166547
0.0017822582
0.0017466177
0.0017091729
0.0016711351
0.0016330121
0.0015933893
0.0015514487
0.0015086262
0.0014652153
0.0014196157
0.0013714063
0.0013221625
0.0012711311
0.0012168348
0.0011600972
0.0011027539
0.0010448118
0.00098715819
0.00093160993
0.00087729967
0.00082291493
0.00076927996
0.00071734906
0.00066645194
0.00061553651
0.00056508922
0.0005160448
0.00046861886
0.00042213206
0.00037593812
0.00033109412
0.00028843609
0.00024931844
0.00021186578
0.00018670471
0.00015052964
0.00025803724
-0.00020235245
0.0039478141
0.0039675882
0.0040113286
0.0040667905
0.004131986
0.0042069627
0.0042911491
0.0043838129
0.0044845871
0.0045935123
0.0047109424
0.0048375332
0.0049743215
0.0051228737
0.005285497
0.0054656343
0.0056683871
0.0059020472
0.0061790883
0.0065258484
0.006976755
0.00767604
0.0086522167
0.012031874
0.009010497
0.0041067606
0.0041070272
0.0045408618
0.0045807118
0.0043924007
0.0042216895
0.0041307252
0.0040606395
0.0039880993
0.0039180947
0.0038538147
0.0037929991
0.0037354183
0.0036806455
0.0036295631
0.003581164
0.0035349953
0.003490971
0.003448428
0.0034079091
0.0033681203
0.0033303767
0.0032937871
0.0032570928
0.0032225815
0.003188797
0.0031546446
0.0031225837
0.00309111
0.0030588737
0.0030282438
0.0029983971
0.0029680208
0.0029378443
0.0029093258
0.0028809942
0.0028516339
0.0028229481
0.0027955382
0.0027680307
0.0027397393
0.0027119224
0.0026853071
0.0026585858
0.0026308032
0.0026032896
0.0025768157
0.0025504122
0.0025229346
0.0024954695
0.0024685212
0.0024419868
0.0024148537
0.0023869989
0.0023592309
0.0023322327
0.0023050785
0.0022766372
0.0022481261
0.0022198549
0.0021917747
0.0021629796
0.0021332364
0.0021034024
0.0020740222
0.002044249
0.0020130227
0.0019814251
0.0019498804
0.0019181023
0.0018851299
0.001851042
0.0018166561
0.0017822596
0.001746619
0.0017091741
0.0016711363
0.0016330132
0.0015933904
0.0015514498
0.0015086271
0.0014652162
0.0014196165
0.0013714071
0.0013221633
0.0012711318
0.0012168355
0.0011600978
0.0011027546
0.0010448123
0.00098715875
0.00093161046
0.00087730018
0.00082291541
0.00076928043
0.00071734951
0.00066645236
0.00061553692
0.00056508962
0.00051604518
0.00046861922
0.00042213241
0.00037593846
0.00033109445
0.00028843641
0.00024931875
0.00021186608
0.00018670501
0.00015052992
0.00025803759
-0.00020235224
0.0039478141
0.0039675882
0.0040113286
0.0040667905
0.0041319861
0.0042069627
0.0042911491
0.0043838129
0.0044845871
0.0045935123
0.0047109424
0.0048375332
0.0049743216
0.0051228737
0.005285497
0.0054656343
0.0056683871
0.0059020472
0.0061790881
0.006525848
0.0069767542
0.007676036
0.0086522201
0.012027158
0.0090092516
0.0041086189
0.0041074123
0.0045410011
0.004580831
0.0043925144
0.0042217875
0.0041308076
0.0040607093
0.0039881595
0.0039181475
0.0038538618
0.0037930417
0.0037354572
0.003680681
0.0036295956
0.0035811939
0.0035350229
0.0034909966
0.0034484518
0.0034079312
0.003368141
0.0033303961
0.0032938053
0.00325711
0.0032225976
0.0031888123
0.003154659
0.0031225973
0.0030911229
0.003058886
0.0030282555
0.0029984082
0.0029680313
0.0029378543
0.0029093354
0.0028810033
0.0028516426
0.0028229564
0.0027955462
0.0027680384
0.0027397466
0.0027119294
0.0026853138
0.0026585922
0.0026308094
0.0026032955
0.0025768213
0.0025504176
0.0025229398
0.0024954745
0.002468526
0.0024419914
0.0024148581
0.0023870031
0.0023592349
0.0023322366
0.0023050823
0.0022766408
0.0022481295
0.0022198582
0.0021917778
0.0021629826
0.0021332393
0.0021034051
0.0020740249
0.0020442516
0.0020130251
0.0019814274
0.0019498826
0.0019181045
0.0018851319
0.001851044
0.001816658
0.0017822614
0.0017466207
0.0017091758
0.0016711378
0.0016330147
0.0015933918
0.0015514511
0.0015086284
0.0014652174
0.0014196177
0.0013714082
0.0013221643
0.0012711328
0.0012168364
0.0011600987
0.0011027554
0.0010448131
0.00098715946
0.00093161113
0.00087730082
0.00082291602
0.00076928101
0.00071735006
0.0006664529
0.00061553743
0.00056509011
0.00051604565
0.00046861967
0.00042213285
0.00037593888
0.00033109486
0.0002884368
0.00024931913
0.00021186645
0.00018670538
0.00015053027
0.00025803802
-0.00020235197
0.0039478141
0.0039675882
0.0040113286
0.0040667905
0.0041319861
0.0042069627
0.0042911491
0.004383813
0.0044845871
0.0045935123
0.0047109425
0.0048375332
0.0049743216
0.0051228737
0.005285497
0.0054656343
0.0056683871
0.0059020471
0.0061790879
0.0065258475
0.0069767532
0.0076760309
0.0086522243
0.012021814
0.0090075534
0.0041110736
0.0041080784
0.0045412339
0.0045809988
0.0043926693
0.0042219208
0.0041309194
0.004060804
0.003988241
0.0039182188
0.0038539254
0.0037930993
0.0037355096
0.0036807288
0.0036296394
0.0035812342
0.0035350601
0.003491031
0.0034484837
0.003407961
0.0033681688
0.0033304221
0.0032938298
0.003257133
0.0032226192
0.0031888327
0.0031546783
0.0031226156
0.0030911402
0.0030589023
0.003028271
0.002998423
0.0029680454
0.0029378677
0.0029093481
0.0028810155
0.0028516542
0.0028229675
0.0027955568
0.0027680485
0.0027397563
0.0027119387
0.0026853227
0.0026586007
0.0026308175
0.0026033033
0.0025768288
0.0025504248
0.0025229467
0.0024954811
0.0024685323
0.0024419975
0.0024148639
0.0023870087
0.0023592403
0.0023322417
0.0023050872
0.0022766455
0.0022481341
0.0022198625
0.002191782
0.0021629866
0.0021332431
0.0021034088
0.0020740284
0.0020442549
0.0020130283
0.0019814305
0.0019498856
0.0019181073
0.0018851346
0.0018510465
0.0018166604
0.0017822637
0.0017466229
0.0017091779
0.0016711398
0.0016330166
0.0015933936
0.0015514528
0.00150863
0.0014652189
0.0014196191
0.0013714096
0.0013221656
0.001271134
0.0012168375
0.0011600998
0.0011027564
0.0010448141
0.00098716038
0.000931612
0.00087730165
0.00082291681
0.00076928176
0.00071735078
0.00066645358
0.00061553809
0.00056509074
0.00051604626
0.00046862026
0.00042213342
0.00037593943
0.00033109539
0.00028843731
0.00024931963
0.00021186693
0.00018670586
0.00015053073
0.00025803857
-0.00020235162
0.0039478141
0.0039675882
0.0040113286
0.0040667905
0.0041319861
0.0042069627
0.0042911491
0.004383813
0.0044845871
0.0045935123
0.0047109425
0.0048375332
0.0049743216
0.0051228738
0.005285497
0.0054656343
0.005668387
0.0059020469
0.0061790875
0.0065258467
0.006976752
0.0076760241
0.0086522294
0.012015749
0.0090058094
0.0041142218
0.0041091467
0.004541617
0.004581231
0.0043928749
0.0042220975
0.004131068
0.00406093
0.0039883497
0.0039183141
0.0038540101
0.0037931757
0.0037355792
0.0036807924
0.0036296976
0.0035812876
0.0035351095
0.0034910767
0.0034485262
0.0034080005
0.0033682058
0.0033304568
0.0032938623
0.0032571635
0.003222648
0.0031888598
0.003154704
0.0031226399
0.0030911632
0.0030589242
0.0030282918
0.0029984427
0.0029680641
0.0029378856
0.0029093652
0.0028810317
0.0028516697
0.0028229824
0.002795571
0.002768062
0.0027397692
0.0027119511
0.0026853346
0.002658612
0.0026308284
0.0026033137
0.0025768388
0.0025504343
0.0025229558
0.0024954899
0.0024685408
0.0024420056
0.0024148717
0.0023870161
0.0023592474
0.0023322485
0.0023050937
0.0022766518
0.0022481401
0.0022198683
0.0021917875
0.0021629919
0.0021332482
0.0021034137
0.002074033
0.0020442594
0.0020130326
0.0019814345
0.0019498895
0.001918111
0.0018851381
0.0018510499
0.0018166637
0.0017822668
0.0017466258
0.0017091807
0.0016711425
0.0016330191
0.001593396
0.0015514551
0.0015086322
0.001465221
0.0014196211
0.0013714114
0.0013221674
0.0012711356
0.0012168391
0.0011601012
0.0011027577
0.0010448153
0.00098716159
0.00093161315
0.00087730274
0.00082291785
0.00076928276
0.00071735173
0.00066645449
0.00061553896
0.00056509158
0.00051604706
0.00046862103
0.00042213416
0.00037594015
0.00033109608
0.00028843798
0.00024932029
0.00021186757
0.00018670649
0.00015053133
0.0002580393
-0.00020235117
0.0039478141
0.0039675882
0.0040113286
0.0040667906
0.0041319861
0.0042069627
0.0042911491
0.004383813
0.0044845871
0.0045935123
0.0047109425
0.0048375332
0.0049743216
0.0051228738
0.005285497
0.0054656342
0.0056683869
0.0059020467
0.0061790871
0.0065258457
0.0069767503
0.0076760154
0.0086522359
0.012008855
0.0090040727
0.0041182979
0.0041107282
0.0045422171
0.0045815524
0.0043931447
0.0042223282
0.0041312623
0.0040610947
0.0039884918
0.0039184384
0.0038541197
0.0037932737
0.0037356685
0.003680874
0.0036297724
0.0035813565
0.0035351732
0.0034911358
0.0034485811
0.0034080518
0.0033682537
0.0033305017
0.0032939045
0.0032572033
0.0032226855
0.0031888952
0.0031547374
0.0031226715
0.0030911932
0.0030589527
0.0030283189
0.0029984684
0.0029680887
0.002937909
0.0029093875
0.002881053
0.0028516901
0.0028230018
0.0027955895
0.0027680797
0.0027397862
0.0027119673
0.0026853501
0.0026586269
0.0026308426
0.0026033274
0.0025768518
0.0025504469
0.0025229678
0.0024955014
0.0024685518
0.0024420161
0.0024148818
0.0023870258
0.0023592568
0.0023322575
0.0023051023
0.00227666
0.002248148
0.0022198758
0.0021917948
0.0021629988
0.0021332548
0.00210342
0.0020740391
0.0020442652
0.0020130381
0.0019814399
0.0019498946
0.0019181159
0.0018851428
0.0018510544
0.0018166679
0.0017822708
0.0017466297
0.0017091843
0.001671146
0.0016330225
0.0015933992
0.0015514581
0.001508635
0.0014652237
0.0014196236
0.0013714138
0.0013221697
0.0012711378
0.0012168411
0.0011601031
0.0011027595
0.001044817
0.00098716319
0.00093161467
0.00087730419
0.00082291923
0.00076928407
0.00071735298
0.00066645569
0.00061554011
0.00056509268
0.00051604812
0.00046862206
0.00042213515
0.0003759411
0.000331097
0.00028843887
0.00024932115
0.0002118684
0.00018670732
0.00015053211
0.00025804026
-0.00020235057
0.0039478141
0.0039675882
0.0040113286
0.0040667906
0.0041319861
0.0042069628
0.0042911492
0.004383813
0.0044845872
0.0045935124
0.0047109425
0.0048375333
0.0049743216
0.0051228738
0.005285497
0.0054656341
0.0056683868
0.0059020464
0.0061790865
0.0065258444
0.0069767481
0.0076760042
0.0086522439
0.012001001
0.0090023422
0.0041237152
0.0041129262
0.0045431079
0.0045819982
0.0043934972
0.0042226255
0.0041315118
0.0040613054
0.0039886727
0.0039185962
0.0038542583
0.0037933976
0.0037357814
0.0036809773
0.0036298672
0.0035814438
0.0035352539
0.0034912107
0.0034486508
0.0034081168
0.0033683146
0.0033305588
0.0032939581
0.0032572538
0.0032227332
0.0031889402
0.0031547801
0.0031227119
0.0030912315
0.0030589891
0.0030283535
0.0029985014
0.0029681201
0.0029379389
0.002909416
0.0028810803
0.0028517161
0.0028230264
0.0027956129
0.0027681021
0.0027398076
0.0027119878
0.0026853697
0.0026586457
0.0026308606
0.0026033447
0.0025768684
0.0025504628
0.0025229831
0.002495516
0.0024685658
0.0024420296
0.0024148948
0.0023870382
0.0023592687
0.0023322689
0.0023051133
0.0022766706
0.0022481581
0.0022198855
0.002191804
0.0021630077
0.0021332634
0.0021034282
0.002074047
0.0020442727
0.0020130453
0.0019814468
0.0019499011
0.0019181222
0.0018851488
0.0018510601
0.0018166734
0.001782276
0.0017466347
0.0017091891
0.0016711505
0.0016330267
0.0015934032
0.001551462
0.0015086387
0.0014652272
0.0014196269
0.001371417
0.0013221726
0.0012711406
0.0012168437
0.0011601056
0.0011027619
0.0010448192
0.00098716527
0.00093161664
0.00087730606
0.00082292101
0.00076928577
0.00071735461
0.00066645725
0.0006155416
0.00056509411
0.0005160495
0.00046862338
0.00042213642
0.00037594233
0.00033109819
0.00028844002
0.00024932227
0.00021186949
0.0001867084
0.00015053314
0.00025804151
-0.0002023498
0.0039478141
0.0039675882
0.0040113286
0.0040667906
0.0041319861
0.0042069628
0.0042911492
0.004383813
0.0044845872
0.0045935124
0.0047109425
0.0048375333
0.0049743216
0.0051228737
0.0052854969
0.005465634
0.0056683865
0.005902046
0.0061790857
0.0065258426
0.0069767452
0.0076759896
0.0086522538
0.011992023
0.009000654
0.0041305953
0.0041158229
0.0045443846
0.004582612
0.0043939552
0.0042230055
0.0041318291
0.0040615723
0.0039889011
0.0039187949
0.0038544336
0.0037935549
0.0037359245
0.003681108
0.0036299869
0.0035815539
0.0035353556
0.003491305
0.0034487384
0.0034081985
0.0033683909
0.0033306304
0.0032940254
0.0032573171
0.0032227928
0.0031889965
0.0031548333
0.0031227624
0.0030912793
0.0030590345
0.0030283967
0.0029985424
0.0029681591
0.0029379762
0.0029094516
0.0028811142
0.0028517484
0.0028230571
0.002795642
0.0027681299
0.0027398342
0.0027120133
0.0026853941
0.0026586691
0.0026308831
0.0026033662
0.0025768891
0.0025504825
0.0025230021
0.0024955343
0.0024685833
0.0024420464
0.0024149109
0.0023870537
0.0023592835
0.0023322832
0.002305127
0.0022766837
0.0022481707
0.0022198976
0.0021918157
0.0021630188
0.002133274
0.0021034384
0.0020740568
0.0020442821
0.0020130543
0.0019814554
0.0019499094
0.00191813
0.0018851563
0.0018510673
0.0018166803
0.0017822826
0.0017466409
0.001709195
0.0016711562
0.0016330322
0.0015934084
0.0015514669
0.0015086434
0.0014652316
0.0014196311
0.0013714209
0.0013221763
0.0012711441
0.001216847
0.0011601087
0.0011027648
0.001044822
0.00098716792
0.00093161914
0.00087730842
0.00082292324
0.0007692879
0.00071735665
0.0006664592
0.00061554347
0.00056509591
0.00051605123
0.00046862505
0.00042213803
0.00037594388
0.00033109969
0.00028844147
0.00024932368
0.00021187086
0.00018670976
0.00015053443
0.00025804308
-0.00020234881
0.0039478141
0.0039675882
0.0040113286
0.0040667906
0.0041319861
0.0042069628
0.0042911492
0.004383813
0.0044845872
0.0045935124
0.0047109425
0.0048375333
0.0049743216
0.0051228737
0.0052854968
0.0054656339
0.0056683862
0.0059020454
0.0061790846
0.0065258403
0.0069767414
0.0076759708
0.0086522661
0.011981744
0.0089990648
0.0041386936
0.0041194183
0.004546153
0.0045834543
0.0043945505
0.0042234906
0.0041322328
0.0040619112
0.0039891904
0.0039190462
0.0038546554
0.0037937539
0.0037361051
0.0036812727
0.0036301376
0.0035816922
0.0035354833
0.0034914233
0.0034488482
0.0034083007
0.0033684864
0.0033307198
0.0032941093
0.003257396
0.0032228672
0.0031890666
0.0031548996
0.0031228251
0.0030913387
0.0030590909
0.0030284502
0.0029985933
0.0029682076
0.0029380223
0.0029094956
0.0028811561
0.0028517883
0.0028230952
0.0027956783
0.0027681646
0.0027398674
0.0027120451
0.0026854246
0.0026586982
0.002630911
0.002603393
0.0025769148