/*--------------------------------*- C++ -*----------------------------------*\
  =========                 |
  \\      /  F ield         | OpenFOAM: The Open Source CFD Toolbox
   \\    /   O peration     | Website:  https://openfoam.org
    \\  /    A nd           | Version:  12
     \\/     M anipulation  |
\*---------------------------------------------------------------------------*/
FoamFile
{
    format      ascii;
    class       surfaceScalarField;
    location    "200";
    object      phi;
}
// * * * * * * * * * * * * * * * * * * * * * * * * * * * * * * * * * * * * * //

dimensions      [0 3 -1 0 0 0 0];

internalField   nonuniform List<scalar> 
25880
(
2.0046437e-06
1.0493638e-11
2.0046175e-06
2.6173571e-11
2.004584e-06
3.3443758e-11
2.0045473e-06
3.6696416e-11
2.0045065e-06
4.0827314e-11
2.0044607e-06
4.585415e-11
2.0044092e-06
5.1415236e-11
2.0043516e-06
5.7599913e-11
2.004287e-06
6.4671124e-11
2.0042141e-06
7.2893747e-11
2.0041315e-06
8.2557271e-11
2.0040375e-06
9.4060179e-11
2.0039295e-06
1.0798195e-10
2.0038042e-06
1.2523727e-10
2.0036571e-06
1.4711642e-10
2.0034809e-06
1.7620735e-10
2.0032657e-06
2.1517675e-10
2.0029902e-06
2.754962e-10
2.0026342e-06
3.5609059e-10
2.0020917e-06
5.4242213e-10
2.0013517e-06
7.4000894e-10
1.9990903e-06
2.2614647e-09
1.9978775e-06
1.2127469e-09
1.0258797e-06
9.7199784e-07
3.9493856e-08
9.8638582e-07
2.5600878e-08
1.3892977e-08
2.5170414e-08
4.3046411e-10
2.4879239e-08
2.9117538e-10
2.4288234e-08
5.9100499e-10
2.3659984e-08
6.2825016e-10
2.3097832e-08
5.6215117e-10
2.2612847e-08
4.8498584e-10
2.2189996e-08
4.2285027e-10
2.1815575e-08
3.7442094e-10
2.1479232e-08
3.3634383e-10
2.1171267e-08
3.0796499e-10
2.0885244e-08
2.8602301e-10
2.0618944e-08
2.6629989e-10
2.0370759e-08
2.4818444e-10
2.0138894e-08
2.3186549e-10
1.9921315e-08
2.1757859e-10
1.9716232e-08
2.050835e-10
1.9522464e-08
1.9376739e-10
1.9338877e-08
1.8358749e-10
1.9164381e-08
1.7449556e-10
1.8998037e-08
1.6634418e-10
1.8839079e-08
1.5895764e-10
1.8686903e-08
1.5217644e-10
1.8540853e-08
1.4604953e-10
1.8400511e-08
1.4034197e-10
1.8265448e-08
1.3506315e-10
1.8135099e-08
1.3034903e-10
1.8009183e-08
1.2591582e-10
1.7887426e-08
1.2175784e-10
1.7769392e-08
1.1803336e-10
1.7654873e-08
1.1451914e-10
1.7543722e-08
1.1115085e-10
1.743561e-08
1.081118e-10
1.7330286e-08
1.0532404e-10
1.7227688e-08
1.025979e-10
1.7127654e-08
1.0003424e-10
1.7029775e-08
9.7879427e-11
1.6933814e-08
9.5960472e-11
1.6839884e-08
9.3930617e-11
1.674796e-08
9.1923834e-11
1.6657825e-08
9.0134537e-11
1.656937e-08
8.8455357e-11
1.6482589e-08
8.6780801e-11
1.6397398e-08
8.51908e-11
1.6313615e-08
8.378287e-11
1.6231134e-08
8.24814e-11
1.6149961e-08
8.1173122e-11
1.6070058e-08
7.9903029e-11
1.5991286e-08
7.8772008e-11
1.5913539e-08
7.7746736e-11
1.5836795e-08
7.6743729e-11
1.5761045e-08
7.5750598e-11
1.5686217e-08
7.482766e-11
1.5612203e-08
7.4014542e-11
1.5538941e-08
7.3261973e-11
1.5466444e-08
7.2496566e-11
1.5394695e-08
7.1749129e-11
1.5323597e-08
7.1098228e-11
1.5253073e-08
7.052358e-11
1.5183104e-08
6.9969279e-11
1.5113688e-08
6.9416019e-11
1.5044785e-08
6.8903286e-11
1.4976309e-08
6.8475343e-11
1.4908212e-08
6.8096812e-11
1.4840507e-08
6.7705681e-11
1.4773188e-08
6.7318851e-11
1.470619e-08
6.699782e-11
1.4639449e-08
6.6741431e-11
1.4572941e-08
6.6507218e-11
1.4506667e-08
6.6274177e-11
1.4440593e-08
6.6074038e-11
1.4374648e-08
6.5945444e-11
1.4308784e-08
6.5863598e-11
1.4243002e-08
6.5782053e-11
1.417728e-08
6.5722615e-11
1.4111543e-08
6.5736704e-11
1.4045734e-08
6.580932e-11
1.3979839e-08
6.5895019e-11
1.3913831e-08
6.6007639e-11
1.3847638e-08
6.6192752e-11
1.3781196e-08
6.6441917e-11
1.3714479e-08
6.6717077e-11
1.3647445e-08
6.7033854e-11
1.3580014e-08
6.7431085e-11
1.3512119e-08
6.7895304e-11
1.3443712e-08
6.8406556e-11
1.3374732e-08
6.8980535e-11
1.3305054e-08
6.9678145e-11
1.3237519e-08
6.7534369e-11
1.3173618e-08
6.3901761e-11
1.3113006e-08
6.0611757e-11
1.3055365e-08
5.7640411e-11
1.3000372e-08
5.4993873e-11
1.2947793e-08
5.2578192e-11
1.2897485e-08
5.0308638e-11
1.2849277e-08
4.8208113e-11
1.2803022e-08
4.6254862e-11
1.2758582e-08
4.4439712e-11
1.2715822e-08
4.2760348e-11
1.2674619e-08
4.1202575e-11
1.2634872e-08
3.9746593e-11
1.259649e-08
3.8382148e-11
1.2559383e-08
3.7107364e-11
1.2523447e-08
3.5936082e-11
1.2488611e-08
3.4836079e-11
1.2454681e-08
3.3929959e-11
1.2421752e-08
3.2928881e-11
1.2388958e-08
3.2794088e-11
1.2357754e-08
3.1203926e-11
1.2319783e-08
3.7970801e-11
2.3867926e-11
2.0345173e-06
2.1270233e-11
2.0344904e-06
5.3102293e-11
2.0344559e-06
6.7898164e-11
2.0344181e-06
7.4509987e-11
2.034376e-06
8.2890789e-11
2.0343288e-06
9.3084717e-11
2.0342759e-06
1.043563e-10
2.0342166e-06
1.1688589e-10
2.03415e-06
1.312068e-10
2.0340751e-06
1.4785531e-10
2.0339902e-06
1.674166e-10
2.0338936e-06
1.9069599e-10
2.0337827e-06
2.1886465e-10
2.0336542e-06
2.5377124e-10
2.0335033e-06
2.9802262e-10
2.0333226e-06
3.5684868e-10
2.0331022e-06
4.3563094e-10
2.0328201e-06
5.5755273e-10
2.0324558e-06
7.2038557e-10
2.0319014e-06
1.0967956e-09
2.0311458e-06
1.495638e-09
2.0288378e-06
4.5695141e-09
2.0275868e-06
2.4636826e-09
1.0926667e-06
1.906918e-06
1.1831464e-07
1.9607379e-06
7.8335803e-08
5.387181e-08
7.7019438e-08
1.7468293e-09
7.6126573e-08
1.1840402e-09
7.4316477e-08
2.4011013e-09
7.2393835e-08
2.5508917e-09
7.0674351e-08
2.2816357e-09
6.9190624e-08
1.9687129e-09
6.7896793e-08
1.7166811e-09
6.6751168e-08
1.5200456e-09
6.57221e-08
1.3654123e-09
6.477987e-08
1.2501951e-09
6.3904777e-08
1.1611155e-09
6.3090035e-08
1.0810421e-09
6.2330728e-08
1.007491e-09
6.1621351e-08
9.4124246e-10
6.0955688e-08
8.8324235e-10
6.0328253e-08
8.3251812e-10
5.9735438e-08
7.8658294e-10
5.917377e-08
7.4525498e-10
5.8639915e-08
7.0835083e-10
5.8131005e-08
6.7525431e-10
5.7644688e-08
6.4527425e-10
5.7179113e-08
6.1775183e-10
5.6732292e-08
5.9287053e-10
5.6302926e-08
5.6970807e-10
5.5889705e-08
5.4828373e-10
5.5490916e-08
5.2913803e-10
5.5105682e-08
5.1114961e-10
5.4733162e-08
4.9427754e-10
5.4372046e-08
4.7914971e-10
5.4021676e-08
4.6488873e-10
5.3681604e-08
4.5122316e-10
5.3350832e-08
4.3888388e-10
5.3028593e-08
4.2756291e-10
5.2714687e-08
4.1650405e-10
5.2408618e-08
4.0610339e-10
5.2109148e-08
3.9734918e-10
5.181555e-08
3.8955862e-10
5.1528153e-08
3.8132768e-10
5.1246892e-08
3.7318524e-10
5.0971108e-08
3.6591789e-10
5.0700464e-08
3.5909996e-10
5.0434936e-08
3.5230874e-10
5.0174267e-08
3.4585908e-10
4.991791e-08
3.4014039e-10
4.9665536e-08
3.3485515e-10
4.941716e-08
3.2954937e-10
4.9172664e-08
3.2439901e-10
4.893163e-08
3.1980562e-10
4.8693735e-08
3.1564243e-10
4.8458906e-08
3.1157267e-10
4.822711e-08
3.0754588e-10
4.7998137e-08
3.0380101e-10
4.7771653e-08
3.0049879e-10
4.7547472e-08
2.9744306e-10
4.7325628e-08
2.9434009e-10
4.7106067e-08
2.9131021e-10
4.6888499e-08
2.8866623e-10
4.6672689e-08
2.863332e-10
4.6458574e-08
2.8408456e-10
4.6246148e-08
2.8184216e-10
4.6035289e-08
2.7976257e-10
4.5825739e-08
2.7802472e-10
4.5617347e-08
2.7648878e-10
4.5410148e-08
2.7490483e-10
4.5204129e-08
2.7333809e-10
4.4999092e-08
2.7203436e-10
4.479484e-08
2.709939e-10
4.4591302e-08
2.7004518e-10
4.4388474e-08
2.691023e-10
4.4186257e-08
2.6829126e-10
4.3984433e-08
2.6776925e-10
4.3782858e-08
2.6743821e-10
4.358153e-08
2.6711058e-10
4.3380381e-08
2.6687155e-10
4.3179189e-08
2.669286e-10
4.2977774e-08
2.6722446e-10
4.2776093e-08
2.6757578e-10
4.2574065e-08
2.6803557e-10
4.2371471e-08
2.6878734e-10
4.2168112e-08
2.6980037e-10
4.1963908e-08
2.709209e-10
4.1758733e-08
2.7220919e-10
4.1552342e-08
2.7382248e-10
4.1344527e-08
2.7570953e-10
4.1135146e-08
2.7778826e-10
4.0924006e-08
2.8012016e-10
4.071073e-08
2.8295411e-10
4.0504014e-08
2.7425076e-10
4.0308416e-08
2.5949977e-10
4.0122889e-08
2.461386e-10
3.9946456e-08
2.3407347e-10
3.9778122e-08
2.2332763e-10
3.9617183e-08
2.1351679e-10
3.9463193e-08
2.0429896e-10
3.9315632e-08
1.9576887e-10
3.917405e-08
1.8783728e-10
3.9038024e-08
1.8046566e-10
3.8907139e-08
1.7364485e-10
3.8781023e-08
1.6731859e-10
3.8659364e-08
1.6140633e-10
3.854188e-08
1.5586569e-10
3.8428299e-08
1.5068827e-10
3.8318305e-08
1.4593082e-10
3.8211677e-08
1.4146314e-10
3.8107824e-08
1.3778332e-10
3.8007039e-08
1.3371439e-10
3.7906662e-08
1.3317056e-10
3.7811215e-08
1.2665144e-10
3.7694753e-08
1.5443271e-10
9.6572577e-11
2.0947098e-06
3.2506003e-11
2.0946817e-06
8.1236613e-11
2.0946457e-06
1.0395006e-10
2.0946061e-06
1.1408753e-10
2.0945621e-06
1.2690901e-10
2.0945127e-06
1.4249655e-10
2.0944573e-06
1.597225e-10
2.0943953e-06
1.7886117e-10
2.0943258e-06
2.0072808e-10
2.0942475e-06
2.2614192e-10
2.0941589e-06
2.5599437e-10
2.0940581e-06
2.9151231e-10
2.0939425e-06
3.3448005e-10
2.0938086e-06
3.8771412e-10
2.0936514e-06
4.5518463e-10
2.0934634e-06
5.4485873e-10
2.0932341e-06
6.6492186e-10
2.0929409e-06
8.5069384e-10
2.0925627e-06
1.0986836e-09
2.0919876e-06
1.6718866e-09
2.0912045e-06
2.2786599e-09
2.0888138e-06
6.9602934e-09
2.0875074e-06
3.7700554e-09
1.1766475e-06
2.8177779e-06
2.0159736e-07
2.935788e-06
1.3576249e-07
1.1970668e-07
1.3347828e-07
4.0310375e-09
1.3192785e-07
2.7344705e-09
1.2878873e-07
5.5402262e-09
1.2545613e-07
5.8834838e-09
1.2247708e-07
5.2606944e-09
1.199062e-07
4.5395905e-09
1.1766408e-07
3.9588014e-09
1.1567881e-07
3.5053118e-09
1.1389562e-07
3.1486065e-09
1.1226294e-07
2.8828768e-09
1.107466e-07
2.6774506e-09
1.0933486e-07
2.4927869e-09
1.0801919e-07
2.3231606e-09
1.0679004e-07
2.1703859e-09
1.0563665e-07
2.0366338e-09
1.045495e-07
1.9196674e-09
1.0352234e-07
1.813748e-09
1.0254915e-07
1.7184456e-09
1.0162414e-07
1.633353e-09
1.0074237e-07
1.5570284e-09
9.9899738e-08
1.4879064e-09
9.9093038e-08
1.4244515e-09
9.8318842e-08
1.3670666e-09
9.7574882e-08
1.3136676e-09
9.6858892e-08
1.2642741e-09
9.6167915e-08
1.220115e-09
9.5500415e-08
1.1786496e-09
9.4854935e-08
1.1397579e-09
9.4229219e-08
1.1048651e-09
9.3622119e-08
1.0719891e-09
9.3032849e-08
1.0404928e-09
9.2459694e-08
1.0120392e-09
9.1901328e-08
9.8592923e-10
9.1357389e-08
9.6044282e-10
9.0827019e-08
9.3647303e-10
9.0308092e-08
9.1627673e-10
8.9799337e-08
8.9831309e-10
8.9301313e-08
8.7935241e-10
8.8813912e-08
8.6058613e-10
8.8336005e-08
8.4382402e-10
8.7867004e-08
8.2810139e-10
8.7406859e-08
8.1245414e-10
8.6955125e-08
7.975926e-10
8.6510863e-08
7.844025e-10
8.6073505e-08
7.7221354e-10
8.5643065e-08
7.599888e-10
8.5219341e-08
7.4812345e-10
8.4801615e-08
7.3753106e-10
8.4389327e-08
7.2793045e-10
8.398235e-08
7.1855043e-10
8.3580621e-08
7.0927451e-10
8.3183777e-08
7.0064474e-10
8.2791247e-08
6.9302944e-10
8.2402706e-08
6.8598352e-10
8.2018209e-08
6.7883669e-10
8.1637661e-08
6.7185872e-10
8.1260565e-08
6.657618e-10
8.0886516e-08
6.6038276e-10
8.0515399e-08
6.552013e-10
8.0147204e-08
6.500377e-10
7.9781719e-08
6.4524744e-10
7.9418502e-08
6.4124126e-10
7.9057288e-08
6.377027e-10
7.8698134e-08
6.3405872e-10
7.8341019e-08
6.3045372e-10
7.7985604e-08
6.274491e-10
7.7631546e-08
6.250522e-10
7.7278721e-08
6.228695e-10
7.6927122e-08
6.2070209e-10
7.6576576e-08
6.1883632e-10
7.6226711e-08
6.1763497e-10
7.5877273e-08
6.1687557e-10
7.5528257e-08
6.1612717e-10
7.5179547e-08
6.1558141e-10
7.483076e-08
6.1571533e-10
7.4481583e-08
6.164017e-10
7.413194e-08
6.1721916e-10
7.378169e-08
6.1828546e-10
7.3430455e-08
6.2002233e-10
7.3077891e-08
6.2236368e-10
7.2723857e-08
6.2495527e-10
7.2368134e-08
6.2793199e-10
7.20103e-08
6.3165648e-10
7.1649995e-08
6.3601492e-10
7.1286967e-08
6.4081601e-10
7.0920888e-08
6.4619915e-10
7.0551101e-08
6.5274097e-10
7.0192684e-08
6.3266824e-10
6.9853543e-08
5.9864082e-10
6.9531864e-08
5.6781755e-10
6.9225949e-08
5.3998794e-10
6.8934076e-08
5.1520129e-10
6.8655026e-08
4.9256608e-10
6.8388026e-08
4.7129878e-10
6.8132175e-08
4.5162044e-10
6.7886689e-08
4.3332303e-10
6.7650839e-08
4.1631593e-10
6.7423904e-08
4.0057938e-10
6.7205238e-08
3.8598482e-10
6.6994298e-08
3.7234631e-10
6.6790599e-08
3.5956468e-10
6.6593668e-08
3.4761943e-10
6.6402956e-08
3.3664304e-10
6.6218083e-08
3.2633582e-10
6.6038021e-08
3.1784566e-10
6.5863279e-08
3.0845613e-10
6.5689251e-08
3.071983e-10
6.5523812e-08
2.9209064e-10
6.5321709e-08
3.5653562e-10
2.2238512e-10
2.1861183e-06
4.439106e-11
2.1860885e-06
1.1106599e-10
2.1860502e-06
1.4224037e-10
2.1860082e-06
1.5613656e-10
2.1859614e-06
1.7366768e-10
2.1859089e-06
1.9496885e-10
2.1858502e-06
2.1849503e-10
2.1857844e-06
2.4461875e-10
2.1857107e-06
2.7445441e-10
2.1856277e-06
3.0911879e-10
2.1855339e-06
3.4982585e-10
2.1854271e-06
3.9824544e-10
2.1853048e-06
4.5680617e-10
2.1851632e-06
5.2934171e-10
2.1849971e-06
6.2125361e-10
2.1847986e-06
7.4338493e-10
2.1845567e-06
9.06857e-10
2.1842476e-06
1.1597436e-09
2.1838491e-06
1.4971506e-09
2.1832441e-06
2.2769536e-09
2.1824212e-06
3.1015283e-09
2.1799101e-06
9.4714039e-09
2.1785262e-06
5.153982e-09
1.2811807e-06
3.7151233e-06
2.9400342e-07
3.9229653e-06
2.0131053e-07
2.1239957e-07
1.9792e-07
7.4215754e-09
1.9561335e-07
5.0411169e-09
1.9095584e-07
1.0197738e-08
1.8601377e-07
1.0825546e-08
1.8159816e-07
9.6763063e-09
1.7778722e-07
8.3505309e-09
1.7446319e-07
7.2828357e-09
1.7151997e-07
6.4485271e-09
1.6887649e-07
5.7920876e-09
1.6645622e-07
5.3031534e-09
1.6420843e-07
4.9252347e-09
1.6211572e-07
4.5854968e-09
1.6016546e-07
4.273422e-09
1.5834348e-07
3.9923618e-09
1.5663382e-07
3.7463015e-09
1.5502234e-07
3.5311413e-09
1.5349978e-07
3.336308e-09
1.5205723e-07
3.1609946e-09
1.5068611e-07
3.004473e-09
1.4937908e-07
2.8640666e-09
1.4813005e-07
2.7369339e-09
1.4693428e-07
2.6202244e-09
1.4578669e-07
2.5146539e-09
1.4468391e-07
2.4164461e-09
1.4362258e-07
2.325603e-09
1.4259833e-07
2.2443616e-09
1.4160887e-07
2.1681118e-09
1.4065203e-07
2.0965964e-09
1.397245e-07
2.0324029e-09
1.3882454e-07
1.9719442e-09
1.37951e-07
1.9140357e-09
1.3710134e-07
1.8617001e-09
1.362736e-07
1.813668e-09
1.3546723e-07
1.7668119e-09
1.3468096e-07
1.7227447e-09
1.3391165e-07
1.6855797e-09
1.3315743e-07
1.6525414e-09
1.3241908e-07
1.6177021e-09
1.3169646e-07
1.583201e-09
1.3098792e-07
1.5523642e-09
1.3029258e-07
1.5234438e-09
1.2961035e-07
1.4946846e-09
1.2894057e-07
1.4673685e-09
1.2828187e-07
1.4431044e-09
1.276334e-07
1.4206829e-09
1.2699517e-07
1.3982149e-09
1.2636689e-07
1.3764101e-09
1.2574749e-07
1.3569294e-09
1.2513615e-07
1.3392705e-09
1.2453267e-07
1.3220263e-09
1.2393697e-07
1.3049821e-09
1.2334849e-07
1.289121e-09
1.227664e-07
1.275115e-09
1.2219023e-07
1.2621576e-09
1.2162004e-07
1.2490277e-09
1.2105569e-07
1.2362091e-09
1.2049645e-07
1.2249979e-09
1.1994173e-07
1.2151068e-09
1.1939135e-07
1.2055843e-09
1.1884528e-07
1.1961005e-09
1.1830323e-07
1.1873008e-09
1.1776453e-07
1.1799375e-09
1.172288e-07
1.173438e-09
1.166961e-07
1.1667532e-09
1.1616642e-07
1.1601383e-09
1.1563925e-07
1.1546186e-09
1.1511408e-07
1.1502169e-09
1.1459074e-07
1.1462133e-09
1.140692e-07
1.1422409e-09
1.1354922e-07
1.1388204e-09
1.1303023e-07
1.1366186e-09
1.1251188e-07
1.1352322e-09
1.1199413e-07
1.1338707e-09
1.1147684e-07
1.1328795e-09
1.1095942e-07
1.1331345e-09
1.1044141e-07
1.1344086e-09
1.099227e-07
1.1359283e-09
1.0940308e-07
1.1379039e-09
1.0888199e-07
1.1411099e-09
1.0835893e-07
1.1454311e-09
1.0783367e-07
1.1502157e-09
1.0730589e-07
1.1557064e-09
1.0677498e-07
1.162571e-09
1.0624039e-07
1.1706056e-09
1.0570175e-07
1.1794554e-09
1.0515857e-07
1.1893741e-09
1.0460989e-07
1.2014262e-09
1.0407807e-07
1.1644912e-09
1.0357484e-07
1.1018645e-09
1.0309753e-07
1.0451319e-09
1.026436e-07
9.9391663e-10
1.022105e-07
9.4830016e-10
1.0179643e-07
9.066321e-10
1.0140025e-07
8.6748176e-10
1.0102061e-07
8.3126049e-10
1.0065635e-07
7.9758112e-10
1.0030639e-07
7.6627455e-10
9.9969666e-08
7.3730678e-10
9.9645208e-08
7.1044296e-10
9.9332214e-08
6.8534037e-10
9.9029965e-08
6.6181408e-10
9.8737759e-08
6.39825e-10
9.8454783e-08
6.1961944e-10
9.8180471e-08
6.0064728e-10
9.79133e-08
5.8501715e-10
9.7654022e-08
5.6773421e-10
9.7395818e-08
5.654015e-10
9.7150379e-08
5.3752969e-10
9.685038e-08
6.5653545e-10
4.0893008e-10
2.3101049e-06
5.713356e-11
2.3100729e-06
1.431309e-10
2.3100316e-06
1.8348131e-10
2.3099863e-06
2.0144447e-10
2.309936e-06
2.2404083e-10
2.3098794e-06
2.5147873e-10
2.3098162e-06
2.8176302e-10
2.3097454e-06
3.1537005e-10
2.3096661e-06
3.5373508e-10
2.309577e-06
3.9829379e-10
2.3094762e-06
4.506035e-10
2.3093616e-06
5.128056e-10
2.3092304e-06
5.8801463e-10
2.3090786e-06
6.8114711e-10
2.3089007e-06
7.9912707e-10
2.3086883e-06
9.5585861e-10
2.3084295e-06
1.1655762e-09
2.3080994e-06
1.4899313e-09
2.3076741e-06
1.9224481e-09
2.3070291e-06
2.9219575e-09
2.306153e-06
3.9775833e-09
2.3034814e-06
1.2143002e-08
2.3019956e-06
6.63978e-09
1.4098967e-06
4.6072222e-06
4.0047241e-07
4.9323896e-06
2.7887946e-07
3.3399251e-07
2.7416797e-07
1.2133063e-08
2.7095285e-07
8.2562399e-09
2.6449828e-07
1.6652309e-08
2.5765385e-07
1.766997e-08
2.5154162e-07
1.5788536e-08
2.4626584e-07
1.3626314e-08
2.4166343e-07
1.1885244e-08
2.3758829e-07
1.0523673e-08
2.3392837e-07
9.4520063e-09
2.3057759e-07
8.6539341e-09
2.2746563e-07
8.0371942e-09
2.2456839e-07
7.4827309e-09
2.218684e-07
6.9734168e-09
2.1934603e-07
6.5147279e-09
2.1697917e-07
6.1131663e-09
2.1474823e-07
5.7620755e-09
2.1264038e-07
5.4441626e-09
2.1064329e-07
5.1580847e-09
2.0874508e-07
4.9026844e-09
2.0693558e-07
4.6735651e-09
2.0520637e-07
4.466143e-09
2.0355087e-07
4.2757249e-09
2.0196207e-07
4.1034476e-09
2.004353e-07
3.9432259e-09
1.9896588e-07
3.7950162e-09
1.975478e-07
3.6624396e-09
1.9617785e-07
3.5380608e-09
1.9485304e-07
3.4214082e-09
1.9356879e-07
3.3166539e-09
1.9232271e-07
3.2180286e-09
1.9111316e-07
3.123585e-09
1.8993666e-07
3.0381989e-09
1.887905e-07
2.9598232e-09
1.8767391e-07
2.8834085e-09
1.8658511e-07
2.8115451e-09
1.8551981e-07
2.7508799e-09
1.8447536e-07
2.6969841e-09
1.8345286e-07
2.6402065e-09
1.8245212e-07
2.5839437e-09
1.8147086e-07
2.5336254e-09
1.8050786e-07
2.4864401e-09
1.7956299e-07
2.4395532e-09
1.7863534e-07
2.3950189e-09
1.7772302e-07
2.3554296e-09
1.7682485e-07
2.3188469e-09
1.7594085e-07
2.2822187e-09
1.7507058e-07
2.2466774e-09
1.7421261e-07
2.2149018e-09
1.7336579e-07
2.1860927e-09
1.7252984e-07
2.157974e-09
1.7170462e-07
2.1301965e-09
1.708894e-07
2.1043417e-09
1.7008302e-07
2.0814958e-09
1.6928482e-07
2.0603625e-09
1.6849488e-07
2.0389683e-09
1.67713e-07
2.0180835e-09
1.669382e-07
1.999802e-09
1.6616963e-07
1.9836721e-09
1.6540707e-07
1.9681515e-09
1.6465046e-07
1.9527036e-09
1.6389939e-07
1.9383693e-09
1.6315296e-07
1.9263698e-09
1.6241061e-07
1.9157866e-09
1.6167245e-07
1.9049147e-09
1.6093844e-07
1.8941533e-09
1.6020789e-07
1.885165e-09
1.5948011e-07
1.8780004e-09
1.5875483e-07
1.8714916e-09
1.5803203e-07
1.8650385e-09
1.5731137e-07
1.8594823e-09
1.5659208e-07
1.8559099e-09
1.5587364e-07
1.8536715e-09
1.5515603e-07
1.8514801e-09
1.5443902e-07
1.8498899e-09
1.5372182e-07
1.8503282e-09
1.530038e-07
1.8524338e-09
1.5228478e-07
1.8549464e-09
1.5156448e-07
1.8582008e-09
1.5084213e-07
1.8634597e-09
1.5011702e-07
1.8705436e-09
1.4938885e-07
1.8783878e-09
1.4865718e-07
1.8873811e-09
1.4792113e-07
1.8986152e-09
1.4717997e-07
1.9117644e-09
1.4643318e-07
1.9262454e-09
1.4568009e-07
1.9424693e-09
1.4491933e-07
1.9621788e-09
1.4418195e-07
1.9018781e-09
1.4348421e-07
1.7996052e-09
1.4282239e-07
1.7069523e-09
1.4219298e-07
1.6233229e-09
1.4159245e-07
1.5488329e-09
1.4101831e-07
1.4807689e-09
1.4046898e-07
1.416817e-09
1.3994258e-07
1.3576566e-09
1.3943751e-07
1.3026476e-09
1.3895228e-07
1.2515108e-09
1.3848539e-07
1.2041947e-09
1.3803551e-07
1.1603184e-09
1.3760153e-07
1.1193207e-09
1.3718245e-07
1.0808957e-09
1.367773e-07
1.0449783e-09
1.3638494e-07
1.0119744e-09
1.360046e-07
9.8098834e-10
1.3563416e-07
9.5545515e-10
1.3527467e-07
9.2723178e-10
1.3491668e-07
9.2338324e-10
1.3457641e-07
8.7780671e-10
1.3416034e-07
1.0726047e-09
6.6750625e-10
2.4685173e-06
7.0964602e-11
2.4684824e-06
1.7803698e-10
2.4684374e-06
2.2847655e-10
2.468388e-06
2.5090137e-10
2.468333e-06
2.7901608e-10
2.4682714e-06
3.1312924e-10
2.4682024e-06
3.5075438e-10
2.4681253e-06
3.9247877e-10
2.4680389e-06
4.4008634e-10
2.4679418e-06
4.9535822e-10
2.4678322e-06
5.6022189e-10
2.4677077e-06
6.3732669e-10
2.4675652e-06
7.3052593e-10
2.4674004e-06
8.4590264e-10
2.4672075e-06
9.9201913e-10
2.4669773e-06
1.186076e-09
2.4666973e-06
1.4456465e-09
2.4663402e-06
1.8470072e-09
2.4658807e-06
2.3818761e-09
2.4651849e-06
3.617764e-09
2.4642412e-06
4.9213095e-09
2.4613657e-06
1.5018523e-08
2.459751e-06
8.2545234e-09
1.5668324e-06
5.5001408e-06
5.2644551e-07
5.9727764e-06
3.7301519e-07
4.8742284e-07
3.6665197e-07
1.8496282e-08
3.6230452e-07
1.2603698e-08
3.5367429e-07
2.5282531e-08
3.4453175e-07
2.681251e-08
3.3637127e-07
2.3949022e-08
3.2932638e-07
2.0671199e-08
3.2317945e-07
1.8032178e-08
3.1773651e-07
1.596661e-08
3.1284835e-07
1.4340169e-08
3.0837313e-07
1.3129156e-08
3.0421679e-07
1.2193532e-08
3.0034719e-07
1.1352326e-08
2.9674099e-07
1.0579621e-08
2.93372e-07
9.8837175e-09
2.9021068e-07
9.2744919e-09
2.8723083e-07
8.741917e-09
2.8441531e-07
8.2596818e-09
2.8174769e-07
7.8257072e-09
2.7921209e-07
7.4382827e-09
2.7679495e-07
7.0907078e-09
2.7448499e-07
6.7761025e-09
2.7227343e-07
6.4872815e-09
2.7015095e-07
6.2259316e-09
2.6811125e-07
5.9829247e-09
2.6614814e-07
5.7581309e-09
2.6425357e-07
5.5570068e-09
2.6242324e-07
5.368394e-09
2.6065314e-07
5.1915032e-09
2.589372e-07
5.0325918e-09
2.5727221e-07
4.8830255e-09
2.5565596e-07
4.7398344e-09
2.5408383e-07
4.6103311e-09
2.525522e-07
4.4914438e-09
2.5106002e-07
4.3755914e-09
2.4960492e-07
4.2666458e-09
2.4818122e-07
4.174585e-09
2.4678534e-07
4.0928557e-09
2.454187e-07
4.0068473e-09
2.4408109e-07
3.9215546e-09
2.4276949e-07
3.8452273e-09
2.4148227e-07
3.7736604e-09
2.4021922e-07
3.7026e-09
2.3897914e-07
3.6351073e-09
2.377595e-07
3.5750634e-09
2.3655877e-07
3.5195779e-09
2.3537692e-07
3.4640698e-09
2.3421338e-07
3.4102193e-09
2.3306624e-07
3.3620424e-09
2.3193398e-07
3.3183533e-09
2.3081622e-07
3.2757328e-09
2.2971276e-07
3.2336533e-09
2.2862262e-07
3.1944806e-09
2.2754427e-07
3.1598438e-09
2.2647683e-07
3.1278063e-09
2.2542039e-07
3.0954048e-09
2.243747e-07
3.0637789e-09
2.2333843e-07
3.0360739e-09
2.2231047e-07
3.0116269e-09
2.2129051e-07
2.988116e-09
2.2027848e-07
2.9647308e-09
2.1927382e-07
2.9430323e-09
2.1827532e-07
2.9248636e-09
2.1728225e-07
2.908855e-09
2.1629474e-07
2.8924297e-09
2.1531273e-07
2.8761654e-09
2.1433532e-07
2.8625706e-09
2.1336158e-07
2.8517406e-09
2.1239116e-07
2.8419139e-09
2.1142402e-07
2.8321798e-09
2.104597e-07
2.8238026e-09
2.0949718e-07
2.818428e-09
2.0853577e-07
2.8150823e-09
2.0757543e-07
2.8118169e-09
2.0661586e-07
2.8094597e-09
2.0565602e-07
2.8101744e-09
2.0469502e-07
2.8134261e-09
2.0373267e-07
2.8173033e-09
2.0276857e-07
2.8223033e-09
2.0180168e-07
2.8303428e-09
2.0083107e-07
2.8411596e-09
1.9985632e-07
2.8531351e-09
1.9887685e-07
2.8668505e-09
1.978915e-07
2.8839666e-09
1.9689927e-07
2.9039971e-09
1.9589946e-07
2.9260508e-09
1.9489118e-07
2.9507494e-09
1.9387261e-07
2.9807446e-09
1.9288531e-07
2.8891871e-09
1.9195106e-07
2.7338468e-09
1.9106491e-07
2.5931096e-09
1.9022213e-07
2.4661009e-09
1.89418e-07
2.3529654e-09
1.8864921e-07
2.2495503e-09
1.8791365e-07
2.1523827e-09
1.872088e-07
2.0625062e-09
1.8653251e-07
1.9789356e-09
1.8588278e-07
1.901243e-09
1.8525762e-07
1.8293566e-09
1.8465523e-07
1.7627012e-09
1.8407413e-07
1.7004214e-09
1.8351298e-07
1.6420468e-09
1.8297048e-07
1.5874777e-09
1.8244512e-07
1.5373357e-09
1.8193584e-07
1.4902652e-09
1.8143983e-07
1.4514686e-09
1.8095846e-07
1.4086041e-09
1.8047915e-07
1.4026894e-09
1.8002355e-07
1.3334131e-09
1.7946631e-07
1.6298436e-09
1.013718e-09
2.6637162e-06
8.6143891e-11
2.6636778e-06
2.1647167e-10
2.6636281e-06
2.7814523e-10
2.6635735e-06
3.0552748e-10
2.6635128e-06
3.3972499e-10
2.6634447e-06
3.8118291e-10
2.6633686e-06
4.2687279e-10
2.6632836e-06
4.7750139e-10
2.6631884e-06
5.3523574e-10
2.6630815e-06
6.0223531e-10
2.6629609e-06
6.8083097e-10
2.662824e-06
7.742249e-10
2.6626675e-06
8.8707456e-10
2.6624867e-06
1.0267326e-09
2.6622751e-06
1.2035427e-09
2.6620229e-06
1.4382927e-09
2.6617164e-06
1.752172e-09
2.661326e-06
2.2373762e-09
2.6608244e-06
2.883536e-09
2.6600658e-06
4.376373e-09
2.6590384e-06
5.9486269e-09
2.6559115e-06
1.8145473e-08
2.6541373e-06
1.0028743e-08
1.7565409e-06
6.3977373e-06
6.7804809e-07
7.0512692e-06
4.8904186e-07
6.7642907e-07
4.8048369e-07
2.7054449e-08
4.7467686e-07
1.8410527e-08
4.6338684e-07
3.6572548e-08
4.5144563e-07
3.8753723e-08
4.4079161e-07
3.4603046e-08
4.3159148e-07
2.9871322e-08
4.2356164e-07
2.6062022e-08
4.1645059e-07
2.307766e-08
4.1006415e-07
2.0726611e-08
4.0421697e-07
1.8976336e-08
3.9878602e-07
1.7624477e-08
3.937294e-07
1.6408947e-08
3.8901663e-07
1.5292392e-08
3.8461359e-07
1.428676e-08
3.804817e-07
1.3406375e-08
3.7658674e-07
1.2636885e-08
3.7290628e-07
1.1940133e-08
3.6941895e-07
1.1313046e-08
3.6610399e-07
1.0753239e-08
3.6294371e-07
1.0250984e-08
3.5992337e-07
9.796447e-09
3.570315e-07
9.3791456e-09
3.5425596e-07
9.0014748e-09
3.5158851e-07
8.6503788e-09
3.4902105e-07
8.3255853e-09
3.4654312e-07
8.0349382e-09
3.4414904e-07
7.7624746e-09
3.4183359e-07
7.5069518e-09
3.3958887e-07
7.2773129e-09
3.3741066e-07
7.0612419e-09
3.3529606e-07
6.8544295e-09
3.3323907e-07
6.6673248e-09
3.3123498e-07
6.4955329e-09
3.2928236e-07
6.3282088e-09
3.2737813e-07
6.1708725e-09
3.2551494e-07
6.0377794e-09
3.2368807e-07
5.9197202e-09
3.218993e-07
5.7956213e-09
3.2014841e-07
5.6724477e-09
3.1843148e-07
5.5621558e-09
3.1674639e-07
5.4587531e-09
3.1509282e-07
5.356161e-09
3.1346921e-07
5.2587253e-09
3.1187229e-07
5.1719792e-09
3.1030005e-07
5.0918142e-09
3.0875244e-07
5.0116849e-09
3.0722869e-07
4.9339661e-09
3.0572634e-07
4.8643915e-09
3.0424342e-07
4.8012821e-09
3.027794e-07
4.7397476e-09
3.0133402e-07
4.6790313e-09
2.99906e-07
4.622504e-09
2.9849335e-07
4.5724897e-09
2.9709493e-07
4.5262332e-09
2.9571083e-07
4.4794968e-09
2.9434073e-07
4.4338871e-09
2.9298289e-07
4.3939047e-09
2.916359e-07
4.3586206e-09
2.9029931e-07
4.3247057e-09
2.8897305e-07
4.290996e-09
2.8765636e-07
4.259723e-09
2.8634768e-07
4.233536e-09
2.8504605e-07
4.2104907e-09
2.837516e-07
4.1868753e-09
2.8246429e-07
4.1634816e-09
2.8118294e-07
4.1439172e-09
2.7990633e-07
4.1283463e-09
2.7863401e-07
4.1142368e-09
2.7736592e-07
4.1002737e-09
2.7610145e-07
4.0882694e-09
2.7483928e-07
4.0805969e-09
2.735785e-07
4.0758645e-09
2.7231905e-07
4.0712606e-09
2.7106055e-07
4.0679651e-09
2.6980162e-07
4.0691059e-09
2.6854112e-07
4.0739267e-09
2.6727876e-07
4.0796622e-09
2.6601404e-07
4.0870187e-09
2.6474561e-07
4.098772e-09
2.6347222e-07
4.1145546e-09
2.6219334e-07
4.1320191e-09
2.6090819e-07
4.1519962e-09
2.5961526e-07
4.1768957e-09
2.5831323e-07
4.206023e-09
2.570012e-07
4.2380806e-09
2.5567799e-07
4.2739674e-09
2.543412e-07
4.3175288e-09
2.5304538e-07
4.1850047e-09
2.5181918e-07
3.9600533e-09
2.5065605e-07
3.7562344e-09
2.4954982e-07
3.5723334e-09
2.4849428e-07
3.4085046e-09
2.4748515e-07
3.2586841e-09
2.4651962e-07
3.1179153e-09
2.455944e-07
2.9877261e-09
2.4470666e-07
2.8666684e-09
2.4385379e-07
2.7541184e-09
2.4303316e-07
2.6499824e-09
2.4224243e-07
2.553432e-09
2.4147963e-07
2.4632223e-09
2.4074301e-07
2.378664e-09
2.4003088e-07
2.2996124e-09
2.3934124e-07
2.2269763e-09
2.386727e-07
2.1587989e-09
2.3802158e-07
2.1025906e-09
2.3738966e-07
2.0405221e-09
2.3676051e-07
2.0318477e-09
2.3616243e-07
1.9314843e-09
2.3543078e-07
2.3615e-09
1.4682372e-09
2.8986104e-06
1.0296631e-10
2.8985677e-06
2.5922392e-10
2.8985123e-06
3.3355087e-10
2.8984513e-06
3.6650616e-10
2.8983836e-06
4.074797e-10
2.8983076e-06
4.5710229e-10
2.8982228e-06
5.1174222e-10
2.898128e-06
5.7223582e-10
2.8980221e-06
6.4117518e-10
2.8979032e-06
7.2113822e-10
2.8977691e-06
8.1489953e-10
2.8976171e-06
9.2626856e-10
2.8974434e-06
1.060786e-09
2.8972429e-06
1.2271992e-09
2.8970086e-06
1.4378059e-09
2.8967296e-06
1.7173332e-09
2.8963908e-06
2.0909218e-09
2.89596e-06
2.6682519e-09
2.895407e-06
3.4365169e-09
2.8945722e-06
5.2111797e-09
2.8934436e-06
7.0772177e-09
2.8900127e-06
2.1576319e-08
2.8880443e-06
1.1997235e-08
1.9841774e-06
7.3016041e-06
8.6221112e-07
8.1732355e-06
6.3307064e-07
9.0556955e-07
6.2134425e-07
3.8780839e-08
6.1359594e-07
2.6158833e-08
5.9906451e-07
5.1103986e-08
5.8373683e-07
5.4081402e-08
5.7006549e-07
4.8274378e-08
5.5825427e-07
4.1682548e-08
5.4794087e-07
3.637542e-08
5.3880521e-07
3.2213317e-08
5.3059921e-07
2.8932616e-08
5.2308502e-07
2.649053e-08
5.1610451e-07
2.4604978e-08
5.0960397e-07
2.2909494e-08
5.0354435e-07
2.135201e-08
4.9788204e-07
1.9949073e-08
4.9256762e-07
1.8720795e-08
4.8755709e-07
1.7647415e-08
4.8282174e-07
1.6675477e-08
4.783342e-07
1.5800588e-08
4.7406788e-07
1.5019558e-08
4.7000009e-07
1.4318777e-08
4.6611187e-07
1.368467e-08
4.6238855e-07
1.3102466e-08
4.5881456e-07
1.2575467e-08
4.5537931e-07
1.2085625e-08
4.5207244e-07
1.1632452e-08
4.4888053e-07
1.1226855e-08
4.4579623e-07
1.0846768e-08
4.4281286e-07
1.0490319e-08
4.3992032e-07
1.0169859e-08
4.3711315e-07
9.8684133e-09
4.3438763e-07
9.5799476e-09
4.3173606e-07
9.3188895e-09
4.2915244e-07
9.0791605e-09
4.2663487e-07
8.8457709e-09
4.2417941e-07
8.6263323e-09
4.217767e-07
8.4404968e-09
4.1942061e-07
8.2758055e-09
4.1711333e-07
8.1029e-09
4.1485467e-07
7.9311133e-09
4.1263962e-07
7.7772052e-09
4.1046545e-07
7.6329248e-09
4.0833172e-07
7.4898849e-09
4.062364e-07
7.3540457e-09
4.0417536e-07
7.2330241e-09
4.0214599e-07
7.1211772e-09
4.001482e-07
7.0094749e-09
3.9818101e-07
6.9011605e-09
3.9624126e-07
6.8041404e-09
3.9432643e-07
6.7161142e-09
3.9243585e-07
6.6303281e-09
3.9056914e-07
6.5457374e-09
3.8872467e-07
6.4669809e-09
3.868999e-07
6.3972576e-09
3.8509335e-07
6.3327808e-09
3.8330515e-07
6.2676991e-09
3.8153484e-07
6.2041992e-09
3.7978024e-07
6.1485041e-09
3.780395e-07
6.0993525e-09
3.7631208e-07
6.0521344e-09
3.7459783e-07
6.0052369e-09
3.7289581e-07
5.9617436e-09
3.7120402e-07
5.9253337e-09
3.6952116e-07
5.8933429e-09
3.6784744e-07
5.8606037e-09
3.6618276e-07
5.8281567e-09
3.6452566e-07
5.8010171e-09
3.6287456e-07
5.7794508e-09
3.6122885e-07
5.7599403e-09
3.5958847e-07
5.740653e-09
3.5795264e-07
5.7241021e-09
3.5631964e-07
5.7135928e-09
3.5468831e-07
5.7072016e-09
3.5305856e-07
5.7010064e-09
3.5142989e-07
5.6966344e-09
3.4980054e-07
5.6984602e-09
3.4816902e-07
5.7054477e-09
3.4653495e-07
5.7137267e-09
3.448977e-07
5.7242697e-09
3.4325551e-07
5.7409676e-09
3.4160674e-07
5.7633196e-09
3.3995073e-07
5.788031e-09