/*--------------------------------*- C++ -*----------------------------------*\
  =========                 |
  \\      /  F ield         | OpenFOAM: The Open Source CFD Toolbox
   \\    /   O peration     | Website:  https://openfoam.org
    \\  /    A nd           | Version:  12
     \\/     M anipulation  |
\*---------------------------------------------------------------------------*/
FoamFile
{
    format      ascii;
    class       volScalarField;
    location    "1600";
    object      epsilon;
}
// * * * * * * * * * * * * * * * * * * * * * * * * * * * * * * * * * * * * * //

dimensions      [0 2 -3 0 0 0 0];

internalField   nonuniform List<scalar> 
7480
(
0.016623555
0.067948814
0.16531304
0.29547025
0.43372643
0.55763714
0.65388422
0.71868896
0.75491328
0.76848747
0.76580085
0.75235575
0.73235257
0.70875803
0.68355591
0.65802771
0.63300773
0.60906906
0.58659049
0.56584456
0.54704582
0.53037286
0.51596621
0.50391633
0.49425026
0.48688103
0.48151046
0.47771702
0.4749395
0.4725807
0.47015526
0.46738385
0.46419666
0.46068385
0.45698585
0.45321339
0.44941318
0.44557986
0.44169004
0.43773446
0.43373179
0.42971953
0.42573619
0.42180631
0.41793821
0.41413179
0.41038661
0.40670405
0.40308575
0.39953229
0.39604285
0.39261555
0.38924845
0.38594029
0.38268993
0.37949557
0.37635518
0.37326738
0.37023142
0.3672454
0.36430754
0.36141628
0.35857015
0.35576792
0.35300858
0.35029106
0.34761431
0.34497734
0.34237908
0.33981853
0.33729474
0.33480673
0.3323536
0.32993445
0.32754843
0.32519473
0.32287253
0.32058106
0.31831956
0.31608729
0.31388357
0.31170768
0.30955898
0.30743679
0.3053405
0.30326945
0.30122304
0.29920061
0.29720158
0.29522516
0.2932709
0.29133733
0.28942501
0.28752889
0.28565579
0.28378281
0.28194948
0.28002713
0.27842226
0.27544264
0.00023087139
0.0010234329
0.0033388195
0.0078600775
0.014519155
0.022903303
0.032091486
0.040936355
0.048639244
0.054851652
0.059552189
0.063032645
0.0657978
0.068374646
0.071300633
0.075141096
0.08077735
0.08841419
0.096801011
0.10594934
0.11605584
0.12722988
0.13937692
0.15215068
0.16513452
0.17766076
0.18886555
0.19791446
0.20419463
0.20751876
0.20817898
0.20681976
0.2042186
0.2010772
0.1978788
0.1948488
0.19201914
0.18933227
0.18672553
0.18417536
0.18169785
0.1793232
0.17706973
0.17493835
0.17291366
0.17097662
0.169113
0.16731397
0.16557288
0.16388342
0.16223994
0.16063803
0.15907425
0.15754563
0.15604954
0.15458383
0.1531468
0.15173715
0.15035352
0.14899535
0.14766161
0.14635132
0.14506372
0.1437982
0.14255422
0.14133127
0.14012879
0.13894625
0.13778315
0.13663899
0.13551332
0.13440568
0.13331564
0.13224279
0.13118673
0.13014704
0.12912335
0.12811527
0.12712243
0.12614446
0.12518102
0.12423174
0.12329629
0.12237434
0.12146555
0.1205696
0.11968617
0.11881495
0.11795563
0.11710787
0.11627138
0.11544575
0.11463072
0.11382556
0.11303038
0.11224284
0.11146635
0.11067924
0.10998122
0.10878916
2.4601301e-05
6.0185829e-05
0.00012790363
0.00023316773
0.00037721515
0.00056134003
0.00078497616
0.0010437635
0.0013297789
0.0016323948
0.0019397774
0.0022414602
0.0025308592
0.0028069572
0.0030760501
0.0033519934
0.0036644423
0.0040533602
0.0045603513
0.005237386
0.0061516486
0.0073878403
0.0090717997
0.011468309
0.014772052
0.01924128
0.025712711
0.033465802
0.042232365
0.051693444
0.061322092
0.070521678
0.078722257
0.085444838
0.090424362
0.093680807
0.09546748
0.096174508
0.096209999
0.095906545
0.095470608
0.094990084
0.09448144
0.0939316
0.09333475
0.092700783
0.092047308
0.091388677
0.090731056
0.090074516
0.089417559
0.08875972
0.088101551
0.087443673
0.086786393
0.086129876
0.085474349
0.08482014
0.084167525
0.083516835
0.082868586
0.08222328
0.08158136
0.080943241
0.080309324
0.079679965
0.079055468
0.078436093
0.077822074
0.077213614
0.076610897
0.076014086
0.075423322
0.074838728
0.074260402
0.073688421
0.073122845
0.072563715
0.072011057
0.071464882
0.070925187
0.070391957
0.069865165
0.069344774
0.068830738
0.068323002
0.067821503
0.067326172
0.066836933
0.066353704
0.06587638
0.065404883
0.064939033
0.064478817
0.064023773
0.063574215
0.063129538
0.062683338
0.062286099
0.061604242
1.1002707e-05
1.6725278e-05
2.5903176e-05
3.8362956e-05
5.3856658e-05
7.2210969e-05
9.3283558e-05
0.00011687893
0.00014271175
0.00017040949
0.00019952854
0.0002295931
0.00026015009
0.00029083223
0.0003214222
0.00035187658
0.00038250957
0.00041396948
0.00044747808
0.00048497148
0.00052893276
0.00058334558
0.00065355676
0.00074841363
0.00088172349
0.0010718498
0.0013652374
0.0018114989
0.0024798061
0.0034517566
0.004894237
0.0069738597
0.0098341398
0.013934528
0.018857798
0.024340496
0.030028034
0.03556482
0.040605555
0.044869363
0.048216506
0.050666696
0.052365859
0.053520373
0.054327059
0.054924073
0.05538279
0.055728508
0.055969337
0.056115314
0.056182445
0.056187665
0.056143706
0.056058272
0.055936269
0.055781893
0.055599237
0.055392022
0.05516334
0.054915705
0.054651385
0.054372488
0.054080924
0.053778402
0.053466444
0.053146415
0.052819531
0.052486887
0.052149467
0.051808156
0.051463757
0.051116998
0.050768538
0.050418974
0.050068843
0.049718628
0.049368761
0.049019632
0.048671586
0.048324933
0.047979947
0.047636869
0.047295913
0.046957264
0.046621083
0.046287511
0.045956667
0.045628656
0.045303558
0.044981452
0.044662377
0.044346409
0.044033494
0.043723832
0.043417007
0.043113858
0.042813278
0.042512765
0.04224607
0.041784327
8.6317032e-06
1.0200286e-05
1.2723917e-05
1.6064261e-05
2.0094899e-05
2.4727355e-05
2.9903269e-05
3.5579062e-05
4.1714369e-05
4.8266164e-05
5.5186725e-05
6.2423738e-05
6.992221e-05
7.7627866e-05
8.5491897e-05
9.3473614e-05
0.00010154978
0.00010971908
0.00011801234
0.00012651653
0.00013535241
0.00014474853
0.00015500605
0.00016657185
0.00018013439
0.00019654543
0.00021743079
0.00024503067
0.00028256395
0.00033455174
0.00040870868
0.00051772555
0.00067939202
0.00093548693
0.0013385851
0.0019471876
0.0028948855
0.0042792796
0.0062323529
0.0089101798
0.01210099
0.01559972
0.019176958
0.022603564
0.025678067
0.028278712
0.030377137
0.032027047
0.033327255
0.03437686
0.035246446
0.035974042
0.036577842
0.037070811
0.037467515
0.037783194
0.03803072
0.038219533
0.03835672
0.038448261
0.038499589
0.03851554
0.038500267
0.038457337
0.038389893
0.038300732
0.038192331
0.03806689
0.037926366
0.03777251
0.037606897
0.037430946
0.037245934
0.037053014
0.03685323
0.036647522
0.03643674
0.036221652
0.036002954
0.035781272
0.035557172
0.035331163
0.035103704
0.034875207
0.034646043
0.034416545
0.034187011
0.033957708
0.033728874
0.033500727
0.033273443
0.033047222
0.03282214
0.0325985
0.032376051
0.032155682
0.031936525
0.03171709
0.031523734
0.031184345
8.0073813e-06
8.5130387e-06
9.414339e-06
1.0674857e-05
1.2234566e-05
1.4042306e-05
1.6061927e-05
1.8268969e-05
2.0645812e-05
2.3178511e-05
2.5854709e-05
2.8662429e-05
3.15896e-05
3.4623935e-05
3.7753301e-05
4.0966049e-05
4.4251886e-05
4.7602725e-05
5.1013737e-05
5.4486548e-05
5.8028666e-05
6.1659221e-05
6.54098e-05
6.9327999e-05
7.3487581e-05
7.7986104e-05
8.2970948e-05
8.8666029e-05
9.536937e-05
0.00010348827
0.0001135718
0.00012650095
0.00014334073
0.00016607555
0.00019768067
0.0002421759
0.00030714
0.0004037913
0.0005506621
0.00078358872
0.0011455013
0.0017179126
0.0025832802
0.0038338308
0.0055594831
0.0076536732
0.0099832583
0.012403144
0.01476096
0.01692698
0.018822578
0.020428806
0.021774902
0.022910974
0.023882468
0.024719035
0.025437724
0.026050942
0.026571163
0.027010808
0.027380595
0.027689031
0.027943065
0.028148806
0.02831173
0.028436638
0.028527685
0.028588523
0.028622396
0.02863219
0.028620475
0.028589546
0.028541461
0.028478069
0.028401035
0.02831186
0.028211896
0.028102369
0.027984383
0.027858939
0.027726941
0.027589209
0.027446483
0.027299431
0.027148661
0.026994719
0.026838102
0.026679258
0.026518592
0.026356474
0.026193225
0.02602917
0.025864523
0.02569967
0.025534547
0.025369996
0.025205511
0.025039867
0.024895061
0.024636059
7.8064618e-06
7.9727039e-06
8.3114147e-06
8.8375247e-06
9.5356468e-06
1.0380625e-05
1.134927e-05
1.2423738e-05
1.3591344e-05
1.4842826e-05
1.6171049e-05
1.7570193e-05
1.9035199e-05
2.0561421e-05
2.2144438e-05
2.3779987e-05
2.5464005e-05
2.7192756e-05
2.8962984e-05
3.0772451e-05
3.2620146e-05
3.4507047e-05
3.6436817e-05
3.8416372e-05
4.0457613e-05
4.257826e-05
4.4803843e-05
4.71729e-05
4.9738117e-05
5.2572627e-05
5.5764679e-05
5.9452826e-05
6.3786189e-05
6.8990398e-05
7.5393041e-05
8.3432564e-05
9.3759218e-05
0.00010729972
0.00012537897
0.00015024877
0.0001852259
0.00023628605
0.00031264973
0.00042939678
0.00061439666
0.00090108905
0.0013605692
0.0020479215
0.0030657311
0.0043774857
0.0059261797
0.0076228415
0.0093635168
0.011046303
0.012594623
0.013970535
0.015173242
0.016223106
0.017143691
0.017952337
0.018660509
0.01927776
0.0198138
0.020278041
0.020678663
0.021022513
0.021315558
0.021563164
0.021770121
0.02194065
0.022078495
0.022186998
0.022269155
0.022327649
0.022364884
0.022383029
0.022384036
0.022369668
0.022341516
0.022301021
0.022249485
0.022188087
0.022117894
0.022039876
0.021954907
0.021863785
0.021767231
0.021665899
0.021560383
0.021451225
0.021338908
0.021223896
0.021106551
0.020987352
0.020866421
0.020744561
0.020621604
0.020496453
0.020387809
0.020188399
7.7226416e-06
7.7776617e-06
7.9018193e-06
8.1193606e-06
8.4379388e-06
8.8525443e-06
9.3526744e-06
9.9272972e-06
1.0567026e-05
1.1264472e-05
1.2013929e-05
1.2810946e-05
1.3651962e-05
1.4534025e-05
1.5454579e-05
1.6411334e-05
1.7402174e-05
1.8425134e-05
1.9478387e-05
2.0560338e-05
2.1669698e-05
2.2805633e-05
2.3967981e-05
2.5157445e-05
2.6375966e-05
2.7627147e-05
2.8916589e-05
3.0252895e-05
3.1648263e-05
3.312006e-05
3.4689754e-05
3.6386492e-05
3.8255597e-05
4.0353475e-05
4.2745563e-05
4.5522517e-05
4.8800104e-05
5.2736844e-05
5.7529014e-05
6.3462168e-05
7.0933431e-05
8.0567552e-05
9.3276787e-05
0.00011039873
0.00013416724
0.00016785401
0.00021790874
0.00029322284
0.00041222558
0.00059820095
0.00089410832
0.0013481537
0.0020310831
0.0029392161
0.0040433749
0.0052874827
0.0065989349
0.0079023987
0.0091361707
0.010265094
0.011280406
0.01218885
0.013000782
0.013724596
0.014367032
0.014934861
0.015435182
0.015874724
0.016259427
0.016594583
0.016885018
0.017135115
0.017348814
0.017529656
0.01768084
0.017805255
0.017905508
0.017983959
0.018042741
0.018083786
0.018108845
0.018119504
0.018117201
0.018103242
0.018078813
0.018044989
0.018002749
0.01795298
0.017896491
0.017834018
0.017766224
0.017693732
0.017617066
0.017536816
0.017453288
0.017367284
0.017278915
0.017187264
0.017108112
0.016957095
7.6693829e-06
7.6894933e-06
7.734153e-06
7.8199834e-06
7.9595242e-06
8.1582012e-06
8.4154382e-06
8.727292e-06
9.0886781e-06
9.4946269e-06
9.9407885e-06
1.0423539e-05
1.0939905e-05
1.1487449e-05
1.2064138e-05
1.2668242e-05
1.3298246e-05
1.3952794e-05
1.4630656e-05
1.533072e-05
1.6052003e-05
1.6793684e-05
1.7555162e-05
1.8336128e-05
1.9136676e-05
1.9957467e-05
2.0799854e-05
2.1666143e-05
2.2559831e-05
2.3486085e-05
2.4451731e-05
2.5465649e-05
2.6540743e-05
2.7694414e-05
2.8947153e-05
3.0325442e-05
3.186168e-05
3.3596144e-05
3.5583117e-05
3.7899757e-05
4.0631337e-05
4.3897292e-05
4.7864119e-05
5.2756571e-05
5.8883086e-05
6.6681009e-05
7.6902798e-05
9.0558852e-05
0.00010944648
0.00013616457
0.00017546919
0.00023446801
0.00032708309
0.00047159408
0.00070094395
0.0010555354
0.0015825426
0.0022837371
0.003137842
0.0041058337
0.005133403
0.0061635768
0.0071506576
0.008068799
0.0089098396
0.0096749138
0.010367521
0.010991249
0.011550159
0.012049018
0.012492786
0.012886151
0.013233469
0.013538818
0.013805984
0.014038444
0.014239382
0.014411706
0.014558073
0.014680906
0.01478241
0.014864595
0.014929292
0.014978166
0.015012735
0.01503438
0.01504436
0.01504382
0.015033804
0.015015263
0.01498906
0.014955997
0.014916772
0.014872108
0.014822494
0.014768771
0.014711282
0.014649378
0.01459604
0.014487172
7.6207264e-06
7.6305328e-06
7.6479722e-06
7.681141e-06
7.7391732e-06
7.8293915e-06
7.9559587e-06
8.1200447e-06
8.3207368e-06
8.5560031e-06
8.8234008e-06
9.1204951e-06
9.4450536e-06
9.7951155e-06
1.0168987e-05
1.0565208e-05
1.0982512e-05
1.1419787e-05
1.1876041e-05
1.2350389e-05
1.2842039e-05
1.3350294e-05
1.3874562e-05
1.4414385e-05
1.496947e-05
1.5539756e-05
1.6125469e-05
1.672721e-05
1.7346046e-05
1.7983684e-05
1.8642544e-05
1.9325858e-05
2.0038114e-05
2.0785543e-05
2.1575922e-05
2.2419129e-05
2.3327318e-05
2.431522e-05
2.5401053e-05
2.6609597e-05
2.7969607e-05
2.9516093e-05
3.1294782e-05
3.3359849e-05
3.5803221e-05
3.8723324e-05
4.2268989e-05
4.6634251e-05
5.2120372e-05
5.9117889e-05
6.828811e-05
8.0561421e-05
9.7561576e-05
0.00012168461
0.00015719478
0.00021087799
0.00029494908
0.00042549926
0.00063273026
0.00095310388
0.001408637
0.0020004075
0.0027104897
0.0035051497
0.0043404904
0.0051735419
0.0059731752
0.0067230456
0.007417284
0.0080547592
0.0086360552
0.0091629138
0.0096381139
0.010064987
0.010446973
0.010787465
0.011089764
0.011357017
0.011592185
0.011798028
0.011977109
0.012131794
0.012264262
0.012376518
0.0124704
0.012547592
0.012609638
0.012657947
0.012693809
0.012718406
0.012732812
0.012738021
0.012734917
0.012724374
0.012707066
0.012683907
0.012655434
0.012621361
0.012591876
0.012521734
7.5695242e-06
7.5763386e-06
7.5852123e-06
7.5992289e-06
7.6231754e-06
7.6623219e-06
7.7212501e-06
7.8031664e-06
7.9097661e-06
8.0414756e-06
8.1978408e-06
8.3778983e-06
8.5804505e-06
8.8042437e-06
9.048066e-06
9.310793e-06
9.5914022e-06
9.888971e-06
1.0202668e-05
1.0531744e-05
1.0875526e-05
1.1233408e-05
1.1604859e-05
1.198942e-05
1.2386725e-05
1.2796521e-05
1.3218697e-05
1.3653311e-05
1.4100637e-05
1.4561225e-05
1.5035952e-05
1.552607e-05
1.6033328e-05
1.6560184e-05
1.7109859e-05
1.7686509e-05
1.8295342e-05
1.8942741e-05
1.9636384e-05
2.0386159e-05
2.1204011e-05
2.2103994e-05
2.3103593e-05
2.4222644e-05
2.5490047e-05
2.6939282e-05
2.8614407e-05
3.0569803e-05
3.2877518e-05
3.5651918e-05
3.9038143e-05
4.3229927e-05
4.8525896e-05
5.53398e-05
6.432157e-05
7.646351e-05
9.3425658e-05
0.00011773264
0.00015382475
0.00020945136
0.00029589862
0.00043169093
0.00064439342
0.00095902868
0.0013856172
0.0019189898
0.0025397475
0.0032160148
0.0039117347
0.0045969924
0.0052528432
0.005869695
0.0064432698
0.0069718907
0.0074555618
0.0078955595
0.0082939228
0.0086530448
0.0089754738
0.0092638064
0.0095206017
0.0097483268
0.0099493285
0.010125819
0.010279866
0.010413396
0.010528194
0.010625909
0.010708062
0.010776054
0.01083117
0.010874598
0.010907414
0.010930649
0.010945163
0.01095197
0.01095177
0.010944725
0.010938182
0.010905064
7.5141141e-06
7.5199215e-06
7.5262139e-06
7.5338848e-06
7.5449432e-06
7.5622069e-06
7.5888304e-06
7.6277979e-06
7.6815322e-06
7.7517077e-06
7.8392583e-06
7.9445058e-06
8.0673271e-06
8.2073114e-06
8.3638842e-06
8.536393e-06
8.7241632e-06
8.9265313e-06
9.1428624e-06
9.3725605e-06
9.6150716e-06
9.8698861e-06
1.013654e-05
1.0414618e-05
1.0703762e-05
1.1003676e-05
1.1314145e-05
1.1635043e-05
1.1966356e-05
1.2308205e-05
1.266087e-05
1.3024821e-05
1.3400758e-05
1.3789697e-05
1.4193031e-05
1.4612613e-05
1.505083e-05
1.5510673e-05
1.5995774e-05
1.651067e-05
1.7060927e-05
1.7653129e-05
1.8295276e-05
1.8996463e-05
1.9768453e-05
2.0625314e-05
2.1584525e-05
2.2667239e-05
2.389875e-05
2.5315614e-05
2.6964208e-05
2.8902588e-05
3.1208982e-05
3.3993869e-05
3.7421602e-05
4.1708816e-05
4.7182141e-05
5.4315888e-05
6.3832288e-05
7.6955027e-05
9.5558226e-05
0.00012275573
0.00016397656
0.00022776078
0.00032701336
0.00048332263
0.00071773612
0.0010430302
0.0014604744
0.001958893
0.0025148207
0.0030989818
0.0036851295
0.0042549293
0.0047976388
0.005307428
0.0057813016
0.0062181693
0.0066183013
0.0069828199
0.0073133318
0.00761172
0.007880007
0.0081202557
0.0083345062
0.0085247367
0.0086928383
0.0088406012
0.0089697072
0.0090817286
0.0091781269
0.0092602628
0.0093293865
0.0093866841
0.0094331912
0.009470037
0.0094980531
0.0095179207
0.0095340685
0.0095373721
7.4542685e-06
7.4595775e-06
7.4650113e-06
7.4706901e-06
7.4773104e-06
7.4860998e-06
7.4987318e-06
7.5171516e-06
7.5433377e-06
7.5790747e-06
7.6258025e-06
7.6845582e-06
7.7559899e-06
7.8404155e-06
7.937896e-06
8.0483072e-06
8.1714002e-06
8.3068483e-06
8.4542813e-06
8.6133101e-06
8.7835435e-06
8.9645989e-06
9.1561107e-06
9.3577363e-06
9.569163e-06
9.7901149e-06
1.0020361e-05
1.025972e-05
1.0508075e-05
1.0765378e-05
1.103167e-05
1.1307088e-05
1.1591889e-05
1.1886483e-05
1.2191473e-05
1.2507701e-05
1.2836291e-05
1.3178696e-05
1.3536729e-05
1.3912643e-05
1.4309223e-05
1.4729816e-05
1.5178465e-05
1.5659841e-05
1.617963e-05
1.6744621e-05
1.7363028e-05
1.8044712e-05
1.8801057e-05
1.9646925e-05
2.0601096e-05
2.1686451e-05
2.293198e-05
2.4374912e-05
2.6067376e-05
2.8076297e-05
3.0491693e-05
3.3437322e-05
3.7105727e-05
4.1766895e-05
4.7815128e-05
5.5847729e-05
6.6817458e-05
8.2257857e-05
0.00010460411
0.00013819945
0.00018985819
0.0002698327
0.00039572178
0.00058417832
0.00084787849
0.0011905691
0.0016050383
0.002072889
0.0025701919
0.0030747645
0.0035702988
0.0040464354
0.0044969816
0.0049184317
0.0053091611
0.0056688632
0.0059980816
0.0062978895
0.0065696876
0.0068150611
0.0070356808
0.0072332376
0.0074093979
0.0075657761
0.0077039155
0.0078252812
0.0079312479
0.0080231234
0.0081020898
0.0081693863
0.008225943
0.0082730098
0.0083119901
0.00835181
7.3900838e-06
7.395038e-06
7.4000686e-06
7.4050734e-06
7.4102421e-06
7.4160281e-06
7.4231663e-06
7.4326682e-06
7.4457545e-06
7.4637399e-06
7.4879085e-06
7.5194116e-06
7.5592025e-06
7.6080105e-06
7.6663456e-06
7.7345224e-06
7.8126928e-06
7.9008811e-06
7.9990156e-06
8.1069561e-06
8.224516e-06
8.3514799e-06
8.4876167e-06
8.6326904e-06
8.7864697e-06
8.948736e-06
9.1192905e-06
9.2979601e-06
9.4846046e-06
9.6791227e-06
9.8814592e-06
1.0091612e-05
1.0309644e-05
1.0535697e-05
1.0770015e-05
1.101297e-05
1.1265088e-05
1.1527081e-05
1.1799867e-05
1.2084609e-05
1.2382761e-05
1.26961e-05
1.3026791e-05
1.3377379e-05
1.3750898e-05
1.4150951e-05
1.4581829e-05
1.5048658e-05
1.5557331e-05
1.6115035e-05
1.6730662e-05
1.7414913e-05
1.8180907e-05
1.904462e-05
2.0026927e-05
2.1154375e-05
2.2460419e-05
2.398855e-05
2.5799605e-05
2.7976316e-05
3.0629791e-05
3.391763e-05
3.8089551e-05
4.3495701e-05
5.0657103e-05
6.0419217e-05
7.4123726e-05
9.3874999e-05
0.00012350861
0.0001687588
0.00023885364
0.00034810301
0.00051055649
0.00073726742
0.0010322014
0.001389376
0.0017931909
0.0022236866
0.0026623915
0.0030954434
0.0035136134
0.0039110772
0.0042843824
0.0046317829
0.0049527193
0.0052474202
0.0055166293
0.0057614199
0.0059830613
0.0061829275
0.006362434
0.0065229958
0.0066659966
0.0067927828
0.006904617
0.0070028119
0.007088344
0.0071630593
0.0072251959
0.0073020215
7.3217195e-06
7.3263802e-06
7.3311306e-06
7.3358227e-06
7.340479e-06
7.3452419e-06
7.3503885e-06
7.3563616e-06
7.3637802e-06
7.3734142e-06
7.3861338e-06
7.4028447e-06
7.4244246e-06
7.4516716e-06
7.4852704e-06
7.5257753e-06
7.5736091e-06
7.6290716e-06
7.6923546e-06
7.7635593e-06
7.8427138e-06
7.9297892e-06
8.0247136e-06
8.1273854e-06
8.2376833e-06
8.3554767e-06
8.4806333e-06
8.6130261e-06
8.7525393e-06
8.8990745e-06
9.0525548e-06
9.2129303e-06
9.3801846e-06
9.5543439e-06
9.735488e-06
9.9237661e-06
1.0119414e-05
1.0322771e-05
1.05343e-05
1.0754605e-05
1.0984459e-05
1.1224827e-05
1.1476902e-05
1.1742114e-05
1.2022174e-05
1.2319108e-05
1.2635319e-05
1.2973666e-05
1.3337453e-05
1.373058e-05
1.4157749e-05
1.4624561e-05
1.5137752e-05
1.5705321e-05
1.6337175e-05
1.7045704e-05
1.7845861e-05
1.8756843e-05
1.9802863e-05
2.1016084e-05
2.2438253e-05
2.4123657e-05
2.6151177e-05
2.8628097e-05
3.1698944e-05
3.5589199e-05
4.0642194e-05
4.7342866e-05
5.6509436e-05
6.9379012e-05
8.7979067e-05
0.00011585563
0.00015819195
0.00022410947
0.00032519647
0.00047382492
0.00067904645
0.00094368193
0.0012613231
0.0016179133
0.0019965166
0.0023819
0.0027626149
0.0031308352
0.0034814797
0.0038114784
0.0041192202
0.0044041108
0.0046662483
0.0049061946
0.0051248142
0.0053231578
0.0055023831
0.005663702
0.0058083241
0.005937546
0.0060523021
0.0061550257
0.0062406202
0.0063550546
7.2493509e-06
7.2537596e-06
7.258275e-06
7.2627505e-06
7.2671607e-06
7.2715399e-06
7.2759788e-06
7.2806459e-06
7.2858101e-06
7.291851e-06
7.2992541e-06
7.3085915e-06
7.3204905e-06
7.3355976e-06
7.3545428e-06
7.3779106e-06
7.4062195e-06
7.4399095e-06
7.4793391e-06
7.5247869e-06
7.576458e-06
7.6344921e-06
7.6989737e-06
7.7699415e-06
7.8473976e-06
7.9313177e-06
8.0216581e-06
8.1183634e-06
8.2213726e-06
8.3306246e-06
8.446063e-06
8.5676399e-06
8.6953217e-06
8.8290945e-06
8.9689708e-06
9.1149998e-06
9.2672777e-06
9.4259592e-06
9.5912707e-06
9.7635222e-06
9.9431236e-06
1.0130602e-05
1.0326623e-05
1.0532002e-05
1.0747727e-05
1.0974978e-05
1.121516e-05
1.1469939e-05
1.1741262e-05
1.2031399e-05
1.2343038e-05
1.2679351e-05
1.3044104e-05
1.344172e-05
1.3877489e-05
1.435789e-05
1.4890578e-05
1.5485129e-05
1.6153158e-05
1.6909303e-05
1.7772392e-05
1.8765634e-05
1.9920304e-05
2.1277963e-05
2.2891852e-05
2.4836577e-05
2.7220403e-05
3.0188673e-05
3.3955251e-05
3.8869559e-05
4.5423829e-05
5.4435207e-05
6.7121429e-05
8.5625405e-05
0.00011332743
0.00015552616
0.00022082591
0.00031967817
0.0004623915
0.00065617804
0.00090158696
0.001191137
0.0015117437
0.0018489912
0.0021904803
0.0025269696
0.0028520632
0.0031615699
0.0034529503
0.0037248623
0.0039768064
0.0042088649
0.0044215195
0.0046155132
0.0047917491
0.0049513255
0.0050949804
0.0052256676
0.0053347589
0.0054872025
7.1731655e-06
7.1773549e-06
7.1816628e-06
7.185953e-06
7.1901888e-06
7.1943705e-06
7.1985229e-06
7.2027027e-06
7.2070127e-06
7.2116156e-06
7.216744e-06
7.2227032e-06
7.229866e-06
7.23866e-06
7.2495479e-06
7.2630065e-06
7.2795057e-06
7.2994903e-06
7.323367e-06
7.351495e-06
7.3841818e-06
7.4216823e-06
7.4642007e-06
7.5118943e-06
7.5648787e-06
7.6232345e-06
7.6870127e-06
7.7562407e-06
7.8309285e-06
7.9110728e-06
7.9966624e-06
8.0876814e-06
8.1841139e-06
8.2859487e-06
8.393184e-06
8.5058341e-06
8.6239365e-06
8.7475597e-06
8.8768118e-06
9.0118497e-06
9.1528891e-06
9.3002171e-06
9.4542048e-06
9.6153198e-06
9.7841385e-06
9.96136e-06
1.0147823e-05
1.034453e-05
1.055266e-05
1.0773591e-05
1.1008941e-05
1.1260609e-05
1.1530828e-05
1.182221e-05
1.2137819e-05
1.2481334e-05
1.2857059e-05
1.3270227e-05
1.3727097e-05
1.4235249e-05
1.4804197e-05
1.5445455e-05
1.6173647e-05
1.7007688e-05
1.7971127e-05
1.9094911e-05
2.0421308e-05
2.2005699e-05
2.3922392e-05
2.6283623e-05
2.9242435e-05
3.3026415e-05
3.7977413e-05
4.4647303e-05
5.3880202e-05
6.7004767e-05
8.6265564e-05
0.00011513219
0.00015945005
0.0002273216
0.00032818495
0.00047063099
0.00065930951
0.00089213448
0.0011605039
0.0014522719
0.0017553372
0.0020597821
0.0023583039
0.002645847
0.0029191163
0.0031761337
0.0034158825
0.003638021
0.0038426823
0.0040304256
0.0042015207
0.0043592791
0.0044913107
0.0046815544
7.093363e-06
7.0973598e-06
7.1014815e-06
7.105603e-06
7.1096864e-06
7.1137218e-06
7.1177126e-06
7.1216757e-06
7.1256463e-06
7.1296868e-06
7.133895e-06
7.138413e-06
7.1434316e-06
7.1491917e-06
7.1559799e-06
7.1641197e-06
7.1739602e-06
7.1858628e-06
7.200188e-06
7.2172846e-06
7.2374796e-06
7.2610715e-06
7.2883262e-06
7.3194747e-06
7.3547133e-06
7.3942051e-06
7.4380825e-06
7.4864509e-06
7.5393916e-06
7.596966e-06
7.6592188e-06
7.7261814e-06
7.7978755e-06
7.8743169e-06
7.9555193e-06
8.0414989e-06
8.1322801e-06
8.2279001e-06
8.328416e-06
8.4339105e-06
8.5444996e-06
8.6603412e-06
8.7816439e-06
8.9086767e-06
9.0417776e-06
9.181364e-06
9.3279435e-06
9.482128e-06
9.6446458e-06
9.8163532e-06
9.9982562e-06
1.0191534e-05
1.0397566e-05
1.0617966e-05
1.0854608e-05
1.1109711e-05
1.1385855e-05
1.1686111e-05
1.201412e-05
1.2374186e-05
1.277157e-05
1.3212575e-05
1.3704911e-05
1.4258255e-05
1.4884402e-05
1.5598369e-05
1.6419453e-05
1.73726e-05
1.8489508e-05
1.981452e-05
2.1406677e-05
2.3347482e-05
2.5751158e-05
2.8788581e-05
3.2707757e-05
3.7880562e-05
4.492081e-05
5.4747913e-05
6.8907755e-05
8.9826475e-05
0.00012149529
0.00017003482
0.00024328921
0.00034963534
0.00049557853
0.00068269558
0.00090637417
0.0011572939
0.0014245359
0.0016982049
0.0019705314
0.0022358778
0.0024903901
0.0027315912
0.0029580359
0.0031691394
0.0033642315
0.0035466599
0.0036999895
0.0039266438
7.0101545e-06
7.0139801e-06
7.0179334e-06
7.0218991e-06
7.0258404e-06
7.0297447e-06
7.0336089e-06
7.0374363e-06
7.0412381e-06
7.0450359e-06
7.0488671e-06
7.0527902e-06
7.0568912e-06
7.0612889e-06
7.0661369e-06
7.0716246e-06
7.0779733e-06
7.0854317e-06
7.0942683e-06
7.1047632e-06
7.1172001e-06
7.131858e-06
7.149005e-06
7.1688925e-06
7.1917516e-06
7.2177912e-06
7.2471963e-06
7.2801288e-06
7.3167278e-06
7.3571114e-06
7.401378e-06
7.4496089e-06
7.5018703e-06
7.5582159e-06
7.6186903e-06
7.683332e-06
7.7521772e-06
7.8252639e-06
7.9026365e-06
7.9843499e-06
8.0704756e-06
8.1611074e-06
8.2563681e-06
8.3564165e-06
8.4614544e-06
8.571734e-06
8.6875658e-06
8.8093282e-06
8.9374763e-06
9.0725502e-06
9.2151879e-06
9.3661392e-06
9.5262821e-06
9.6966418e-06
9.878409e-06
1.007298e-05
1.0281973e-05
1.0507289e-05
1.0751162e-05
1.1016203e-05
1.130553e-05
1.1622846e-05
1.1972576e-05
1.2360134e-05
1.279202e-05
1.3276282e-05
1.3822882e-05
1.4444462e-05
1.5156577e-05
1.5979728e-05
1.6940562e-05
1.8074183e-05
1.9427177e-05
2.1064821e-05
2.3077635e-05
2.5592108e-05
2.8801029e-05
3.2982703e-05
3.8568638e-05
4.6262133e-05
5.7163705e-05
7.3066079e-05
9.6834677e-05
0.00013306186
0.00018805276
0.00026932009
0.00038383753
0.000535303
0.00072214074
0.00093775031
0.0011728278
0.0014180211
0.0016654954
0.0019093081
0.0021452318
0.0023705633
0.0025829109
0.0027850865
0.0029562415
0.0032158787
6.9237607e-06
6.9274325e-06
6.9312322e-06
6.9350527e-06
6.9388597e-06
6.9426397e-06
6.9463875e-06
6.9501022e-06
6.9537864e-06
6.9574473e-06
6.9610978e-06
6.96476e-06
6.9684686e-06
6.9722754e-06
6.9762533e-06
6.9804993e-06
6.9851364e-06
6.9903131e-06
6.9962026e-06
7.0029986e-06
7.0109116e-06
7.0201631e-06
7.0309802e-06
7.0435904e-06
7.0582165e-06
7.0750726e-06
7.094361e-06
7.1162697e-06
7.1409709e-06
7.16862e-06
7.1993558e-06
7.2333003e-06
7.2705597e-06
7.3112259e-06
7.355378e-06
7.4030846e-06
7.4544061e-06
7.5093979e-06
7.5681129e-06
7.6306052e-06
7.696934e-06
7.7671681e-06
7.8413904e-06
7.9197038e-06
8.0022357e-06
8.0891445e-06
8.1806251e-06
8.2769161e-06
8.3783062e-06
8.485141e-06
8.597831e-06
8.7168612e-06
8.8428011e-06
8.976317e-06
9.1181839e-06
9.269307e-06
9.4307354e-06
9.60369e-06
9.7895983e-06
9.9901182e-06
1.0207198e-05
1.0443132e-05
1.070062e-05
1.0982904e-05
1.1293825e-05
1.1638038e-05
1.2021173e-05
1.2450208e-05
1.2933593e-05
1.3481977e-05
1.4108858e-05
1.4831463e-05
1.567182e-05
1.6659216e-05
1.7832769e-05
1.9244501e-05
2.0968258e-05
2.3106503e-05
2.5805889e-05
2.929032e-05
3.3895396e-05
4.013995e-05
4.8874146e-05
6.1456688e-05
8.008411e-05
0.00010824762
0.00015100273
0.00021484148
0.00030650031
0.00043070101
0.00058793354
0.00077386852
0.00098088323
0.0012004732
0.0014250275
0.0016486954
0.0018663068
0.0020792546
0.0022618011
0.0025476706
6.8344098e-06
6.8379418e-06
6.8416003e-06
6.8452851e-06
6.8489643e-06
6.8526248e-06
6.8562605e-06
6.8598691e-06
6.8634503e-06
6.867006e-06
6.8705404e-06
6.8740611e-06
6.8775808e-06
6.88112e-06
6.8847094e-06
6.8883931e-06
6.8922315e-06
6.8963031e-06
6.900706e-06
6.9055578e-06
6.9109954e-06
6.9171722e-06
6.9242557e-06
6.932424e-06
6.9418621e-06
6.952758e-06
6.9652995e-06
6.9796702e-06
6.9960476e-06
7.0146001e-06
7.0354855e-06
7.0588496e-06
7.0848259e-06
7.113535e-06
7.1450851e-06
7.1795732e-06
7.217086e-06
7.2577015e-06
7.3014912e-06
7.3485216e-06
7.3988577e-06
7.4525656e-06
7.5097161e-06
7.5703885e-06
7.6346747e-06
7.7026835e-06
7.7745455e-06
7.8504179e-06
7.9304899e-06
8.0149878e-06
8.1041809e-06
8.1983884e-06
8.2979863e-06
8.4034149e-06
8.5151884e-06
8.6339064e-06
8.7602647e-06
8.8950701e-06
9.0392616e-06
9.1939272e-06
9.3603329e-06
9.5399577e-06
9.7345277e-06
9.9460821e-06
1.0177017e-05
1.0430187e-05
1.070899e-05
1.1017546e-05
1.1360797e-05
1.1744781e-05
1.2176963e-05
1.2666649e-05
1.3225438e-05
1.3868138e-05
1.4613923e-05
1.5487435e-05
1.6521764e-05
1.776125e-05
1.926585e-05
2.1121201e-05
2.3449682e-05
2.6428574e-05
3.0330222e-05
3.5573258e-05
4.2818997e-05
5.3144673e-05
6.8288492e-05
9.1001763e-05
0.00012540466
0.00017703709
0.00025210405
0.00035567065
0.00048950342
0.00065100491
0.0008340422
0.0010312598
0.0012345733
0.0014431949
0.001626124
0.0019262461
6.7423355e-06
6.7457391e-06
6.7492667e-06
6.7528239e-06
6.7563813e-06
6.7599265e-06
6.7634533e-06
6.7669586e-06
6.7704409e-06
6.7739003e-06
6.7773378e-06
6.7807558e-06
6.7841586e-06
6.7875532e-06
6.7909514e-06
6.794371e-06
6.7978383e-06
6.80139e-06
6.8050756e-06
6.8089584e-06
6.8131174e-06
6.8176466e-06
6.8226553e-06
6.828267e-06
6.8346168e-06
6.8418504e-06
6.8501203e-06
6.8595841e-06
6.8704008e-06
6.8827289e-06
6.8967236e-06
6.9125347e-06
6.9303052e-06
6.9501695e-06
6.9722533e-06
6.996673e-06
7.0235357e-06
7.0529397e-06
7.0849753e-06
7.1197261e-06
7.1572699e-06
7.1976814e-06
7.2410339e-06
7.2874025e-06
7.3368664e-06
7.3895126e-06
7.4454392e-06
7.5047594e-06
7.5676055e-06
7.6341328e-06
7.7045246e-06
7.7789966e-06
7.8578026e-06
7.9412397e-06
8.0296551e-06
8.1234534e-06
8.2231049e-06
8.3291539e-06
8.4422327e-06
8.5630725e-06
8.6925203e-06
8.8315591e-06
8.9813303e-06
9.1431677e-06
9.3186273e-06
9.5095398e-06
9.7180587e-06
9.9467538e-06
1.0198675e-05
1.0477478e-05
1.0787587e-05
1.1134413e-05
1.1524566e-05
1.1966246e-05
1.2469787e-05
1.3048142e-05
1.3718011e-05
1.4501091e-05
1.5425591e-05
1.6529673e-05
1.7865604e-05
1.9505297e-05
2.155229e-05
2.4157521e-05
2.7545823e-05
3.206465e-05
3.8260816e-05
4.7009978e-05
5.972562e-05
7.8660201e-05
0.00010724221
0.00015022462
0.00021321151
0.00030124255
0.0004167465
0.00055858382
0.00072079917
0.00090244737
0.0010685008
0.0013631544
6.6477747e-06
6.6510595e-06
6.654465e-06
6.6579018e-06
6.6613429e-06
6.6647767e-06
6.6681972e-06
6.6716011e-06
6.6749863e-06
6.678352e-06
6.681698e-06
6.6850249e-06
6.6883337e-06
6.6916265e-06
6.6949072e-06
6.6981821e-06
6.7014612e-06
6.7047596e-06
6.7080995e-06
6.7115112e-06
6.7150351e-06
6.7187229e-06
6.7226382e-06
6.7268573e-06
6.7314689e-06
6.7365733e-06
6.7422816e-06
6.7487139e-06
6.7559975e-06
6.7642652e-06
6.7736523e-06
6.7842954e-06
6.7963297e-06
6.8098879e-06