/*--------------------------------*- C++ -*----------------------------------*\
  =========                 |
  \\      /  F ield         | OpenFOAM: The Open Source CFD Toolbox
   \\    /   O peration     | Website:  https://openfoam.org
    \\  /    A nd           | Version:  12
     \\/     M anipulation  |
\*---------------------------------------------------------------------------*/
FoamFile
{
    format      ascii;
    class       volScalarField;
    location    "1600";
    object      k;
}
// * * * * * * * * * * * * * * * * * * * * * * * * * * * * * * * * * * * * * //

dimensions      [0 2 -2 0 0 0 0];

internalField   nonuniform List<scalar> 
7480
(
0.00065123739
0.0016648586
0.0030115768
0.0044353876
0.0057288343
0.0067736604
0.0075322171
0.0080220043
0.0082893462
0.0083884185
0.0083688565
0.0082706134
0.00812336
0.0079479335
0.0077583898
0.0075640029
0.007371031
0.0071840045
0.0070061416
0.0068399616
0.0066876166
0.0065510326
0.0064318573
0.0063313237
0.006250098
0.006187817
0.0061422295
0.0061099271
0.0060862214
0.0060660531
0.00604528
0.0060215
0.0059940942
0.0059638157
0.0059318577
0.0058991672
0.0058661444
0.0058327395
0.0057987441
0.0057640716
0.0057288798
0.0056934949
0.0056582558
0.005623382
0.0055889503
0.0055549639
0.0055214226
0.0054883424
0.0054557419
0.0054236307
0.0053920053
0.0053608524
0.0053301584
0.0052999153
0.0052701164
0.0052407485
0.0052117964
0.0051832506
0.0051551071
0.0051273514
0.0050999699
0.0050729508
0.0050462829
0.0050199574
0.0049939671
0.0049683045
0.004942962
0.0049179323
0.0048932077
0.0048687807
0.0048446441
0.0048207909
0.0047972141
0.0047739069
0.0047508632
0.0047280766
0.0047055411
0.0046832507
0.0046611998
0.0046393827
0.004617794
0.0045964285
0.004575281
0.0045543464
0.0045336199
0.0045130964
0.004492771
0.0044726387
0.0044526946
0.004432932
0.0044133477
0.0043939278
0.0043746791
0.0043555515
0.0043366148
0.0043176379
0.0042990221
0.0042794592
0.0042630928
0.0042326232
0.00015546924
0.00017516083
0.00021703173
0.00028813932
0.00039342936
0.00052370951
0.00066475049
0.00080422739
0.00093368722
0.0010488975
0.0011496689
0.0012389743
0.0013216987
0.0014043273
0.0014952114
0.0016045929
0.0017493022
0.0019375962
0.002148211
0.0023805219
0.0026377222
0.0029217837
0.0032311601
0.0035620046
0.0039054756
0.0042466365
0.0045670349
0.0048479841
0.005074004
0.0052388861
0.0053470704
0.0054104775
0.0054439045
0.0054605135
0.0054690579
0.0054732842
0.0054735412
0.0054690972
0.0054597871
0.0054465903
0.0054311909
0.0054151255
0.0053992867
0.0053838049
0.0053684326
0.0053529533
0.0053373309
0.0053216217
0.005305847
0.0052899604
0.0052738985
0.0052576329
0.0052411677
0.0052245079
0.005207645
0.0051905716
0.0051732937
0.0051558258
0.0051381609
0.005120345
0.0051023791
0.0050842678
0.0050660252
0.0050476688
0.0050292149
0.0050106779
0.0049920711
0.0049734054
0.0049546915
0.0049359398
0.0049171599
0.004898361
0.0048795522
0.004860742
0.0048419381
0.0048231479
0.0048043781
0.0047856352
0.0047669249
0.0047482527
0.0047296237
0.0047110424
0.0046925131
0.0046740397
0.0046556256
0.0046372741
0.0046189878
0.0046007694
0.004582621
0.0045645443
0.0045465404
0.0045286102
0.0045107518
0.0044929657
0.0044752409
0.0044575824
0.0044399726
0.0044221092
0.004406174
0.004377991
0.00014843249
0.00014962995
0.00015119537
0.00015302217
0.00015512476
0.00015746113
0.00015993828
0.00016246107
0.00016495015
0.00016734425
0.00016962096
0.00017182155
0.00017406157
0.00017654739
0.00017963316
0.00018380538
0.00019012912
0.0001992433
0.00021586521
0.00024276445
0.00028224795
0.00033704343
0.00041100511
0.00050857845
0.00063714396
0.00080687156
0.0010452837
0.0013339392
0.0016626034
0.0020192327
0.0023876211
0.0027487373
0.0030826143
0.0033727624
0.0036098509
0.003793692
0.0039315492
0.004034904
0.0041155003
0.0041824439
0.0042409063
0.0042927489
0.004338136
0.0043770904
0.0044102381
0.0044386914
0.004463554
0.004485549
0.004504999
0.0045220443
0.0045368395
0.0045495932
0.0045605054
0.004569721
0.0045773435
0.0045834683
0.0045881943
0.0045916154
0.0045938078
0.0045948226
0.0045947469
0.0045936601
0.0045916315
0.0045887238
0.0045849954
0.0045805007
0.0045752894
0.0045694075
0.0045628982
0.0045558018
0.0045481567
0.0045399988
0.0045313623
0.0045222796
0.0045127811
0.0045028952
0.0044926489
0.0044820676
0.0044711751
0.0044599939
0.0044485451
0.0044368487
0.0044249235
0.0044127868
0.0044004553
0.0043879445
0.004375269
0.0043624426
0.004349478
0.0043363878
0.0043231821
0.0043098737
0.0042964661
0.0042829824
0.0042693969
0.0042557867
0.0042420179
0.0042281877
0.0042154233
0.0041931758
0.00014785753
0.00014811865
0.00014838795
0.00014863579
0.00014885244
0.00014902869
0.00014915162
0.00014920689
0.00014917857
0.00014905335
0.00014881978
0.00014846807
0.00014799036
0.00014739065
0.00014667542
0.00014585404
0.00014495348
0.00014399377
0.00014304299
0.00014227955
0.00014161168
0.00014175646
0.000142478
0.00014436139
0.00014800376
0.00015427096
0.00016551787
0.00018388233
0.00021667871
0.00027074537
0.00035230432
0.00046827491
0.00062673908
0.00084941058
0.0011176905
0.001415101
0.0017259143
0.0020328593
0.0023188471
0.0025710177
0.0027835676
0.0029579835
0.0031009473
0.0032210167
0.0033256161
0.0034193471
0.003504176
0.0035806718
0.0036492517
0.0037107287
0.0037661652
0.0038164917
0.0038623223
0.0039040402
0.0039419645
0.003976421
0.0040077174
0.004036112
0.0040618179
0.0040850165
0.0041058847
0.0041245891
0.0041412803
0.0041560953
0.0041691598
0.0041805892
0.0041904888
0.0041989557
0.00420608
0.0042119452
0.0042166291
0.0042202045
0.0042227397
0.0042242987
0.0042249413
0.0042247238
0.0042236988
0.0042219159
0.0042194217
0.00421626
0.0042124719
0.0042080963
0.0042031695
0.0041977258
0.0041917974
0.0041854148
0.0041786066
0.0041713999
0.0041638201
0.0041558917
0.0041476362
0.004139078
0.0041302298
0.0041211283
0.0041117509
0.0041022071
0.0040923218
0.0040824011
0.0040728951
0.0040562945
0.00014772519
0.00014783649
0.00014793715
0.00014801629
0.00014807212
0.00014810342
0.00014810767
0.00014808201
0.00014802306
0.00014792701
0.00014779042
0.00014761049
0.00014738333
0.00014710061
0.00014675888
0.00014635635
0.00014589293
0.00014536949
0.00014479102
0.00014417058
0.00014351549
0.00014285971
0.00014221982
0.0001416218
0.00014108518
0.00014066031
0.00014033677
0.00014043847
0.00014093582
0.00014234672
0.00014518303
0.00015024215
0.00015875658
0.00017353864
0.00019898569
0.00024363484
0.0003142713
0.00041757011
0.00056310678
0.00076087683
0.00099395121
0.001248216
0.0015088518
0.0017607959
0.001992082
0.0021963621
0.0023731044
0.0025260929
0.0026608014
0.002781926
0.0028922715
0.0029930688
0.0030849405
0.0031686102
0.003245012
0.0033150469
0.0033794005
0.0034385683
0.0034929682
0.0035429914
0.0035889973
0.0036313005
0.0036701764
0.0037058739
0.0037386203
0.0037686215
0.0037960633
0.0038211156
0.0038439343
0.0038646625
0.0038834325
0.0039003666
0.0039155785
0.003929174
0.0039412515
0.003951903
0.0039612143
0.0039692656
0.0039761324
0.003981885
0.0039865898
0.0039903087
0.0039931001
0.0039950188
0.0039961161
0.0039964406
0.003996038
0.0039949514
0.0039932211
0.0039908861
0.0039879813
0.003984544
0.003980599
0.0039761952
0.0039713204
0.003966102
0.003960352
0.0039545179
0.0039484806
0.0039377219
0.00014766969
0.00014773606
0.00014778998
0.00014782586
0.00014784561
0.00014785061
0.0001478406
0.00014781457
0.00014777134
0.00014770951
0.00014762755
0.00014752283
0.00014739474
0.00014724112
0.00014705954
0.00014684783
0.00014660418
0.00014632709
0.00014601553
0.00014566946
0.00014528959
0.00014487761
0.00014443711
0.00014397022
0.00014348583
0.00014299895
0.00014251378
0.00014205638
0.00014163243
0.00014130216
0.00014099997
0.00014101479
0.00014118485
0.00014173538
0.00014287504
0.00014511941
0.00014914352
0.00015588941
0.00016718882
0.00018593579
0.00021925601
0.00027423465
0.00035749003
0.00047754585
0.00064174931
0.00083704066
0.001052373
0.0012751292
0.0014930125
0.0016966034
0.0018811582
0.0020464371
0.002195066
0.0023302961
0.0024544964
0.0025689067
0.0026742112
0.0027710942
0.0028603681
0.002942813
0.003019056
0.0030895964
0.0031548771
0.0032153105
0.0032712705
0.0033230867
0.003371054
0.0034154407
0.0034564916
0.0034944295
0.0035294582
0.0035617653
0.0035915236
0.0036188929
0.003644021
0.0036670454
0.0036880937
0.0037072852
0.0037247308
0.0037405345
0.0037547932
0.003767598
0.0037790338
0.0037891806
0.0037981132
0.0038059021
0.0038126134
0.0038183096
0.0038230492
0.0038268881
0.0038298773
0.003832069
0.003833503
0.0038342408
0.0038342849
0.0038337757
0.0038325242
0.0038310964
0.0038288197
0.0038242957
0.00014763783
0.00014768387
0.00014771798
0.00014773712
0.00014774421
0.00014774126
0.00014772848
0.00014770545
0.00014767168
0.00014762654
0.00014756931
0.00014749889
0.00014741444
0.00014731497
0.00014719932
0.00014706623
0.00014691444
0.00014674272
0.00014654994
0.00014633515
0.00014609768
0.00014583708
0.00014555349
0.00014524706
0.00014491886
0.00014457194
0.00014420869
0.00014383389
0.00014345027
0.00014306814
0.00014268388
0.00014233763
0.00014202772
0.00014178419
0.00014156221
0.00014156771
0.00014169205
0.00014209125
0.00014290909
0.00014432908
0.00014682916
0.00015115649
0.00015832349
0.00017022013
0.0001896963
0.0002238251
0.000279055
0.00036144186
0.00048231454
0.0006350755
0.00081214448
0.0010038684
0.0011995081
0.0013895562
0.0015678676
0.0017322002
0.0018832303
0.0020227219
0.0021521462
0.0022723391
0.0023838464
0.0024872622
0.0025832579
0.0026724613
0.0027553991
0.002832527
0.0029042651
0.002971003
0.0030330919
0.0030908492
0.0031445654
0.0031945074
0.00324092
0.0032840285
0.003324041
0.0033611502
0.0033955347
0.0034273605
0.0034567821
0.0034839435
0.003508979
0.0035320142
0.0035531662
0.003572545
0.0035902536
0.0036063885
0.0036210404
0.0036342946
0.0036462311
0.0036569259
0.0036664491
0.0036748705
0.0036822471
0.0036886549
0.0036941143
0.0036987779
0.0037024606
0.0037058435
0.0037076762
0.0037099015
0.00014761761
0.00014765086
0.00014767375
0.00014768433
0.00014768537
0.00014767887
0.00014766524
0.00014764435
0.000147616
0.00014757987
0.00014753556
0.00014748251
0.00014742011
0.00014734774
0.00014726471
0.00014717024
0.0001470635
0.00014694363
0.00014680976
0.00014666107
0.00014649679
0.00014631625
0.00014611896
0.00014590452
0.00014567275
0.00014542402
0.00014515897
0.00014487886
0.00014458477
0.00014427959
0.00014396361
0.00014364419
0.00014332578
0.0001430165
0.00014270891
0.00014243951
0.00014220722
0.00014203274
0.00014191135
0.00014193621
0.00014207279
0.00014245473
0.00014319591
0.00014448514
0.00014654248
0.00015000988
0.00015580787
0.00016523762
0.00018077276
0.00020708822
0.00025036647
0.00031645006
0.00041488515
0.00054269129
0.00069463873
0.00086311142
0.0010389391
0.0012135537
0.0013809447
0.0015384162
0.0016857435
0.00182366
0.0019528242
0.002073641
0.0021864888
0.0022918459
0.0023902309
0.0024821204
0.0025679392
0.0026480831
0.0027229259
0.0027928133
0.0028580631
0.0029189695
0.0029758058
0.003028825
0.0030782623
0.0031243364
0.0031672506
0.0032071948
0.0032443457
0.0032788687
0.0033109182
0.0033406386
0.0033681653
0.0033936252
0.0034171375
0.003438814
0.0034587596
0.0034770735
0.003493848
0.0035091731
0.003523126
0.0035357994
0.0035472338
0.0035575959
0.0035667058
0.0035753663
0.0035817041
0.0035912841
0.00014760383
0.00014762771
0.00014764307
0.00014764833
0.00014764576
0.00014763715
0.00014762305
0.00014760347
0.00014757835
0.00014754753
0.00014751075
0.00014746766
0.00014741786
0.00014736091
0.00014729633
0.00014722361
0.00014714217
0.00014705139
0.00014695064
0.00014683926
0.00014671664
0.00014658214
0.00014643522
0.00014627537
0.00014610216
0.00014591533
0.00014571481
0.00014550079
0.00014527353
0.00014503387
0.00014478221
0.00014452036
0.00014425034
0.00014397571
0.00014369585
0.00014341817
0.00014314723
0.0001428888
0.00014264422
0.0001424349
0.00014226216
0.00014213936
0.00014210627
0.00014217194
0.00014238306
0.00014282341
0.00014362477
0.00014495459
0.00014706781
0.00015048692
0.00015609461
0.00016513107
0.00017986817
0.00020443966
0.00024437984
0.00030560663
0.00039538788
0.00051117243
0.00064913587
0.0008027442
0.00096387615
0.0011250756
0.001281288
0.0014302116
0.0015713297
0.0017047278
0.0018305248
0.0019488649
0.002060014
0.0021643318
0.0022621927
0.0023539541
0.0024399622
0.0025205538
0.0025960488
0.002666749
0.0027329387
0.0027948852
0.0028528394
0.0029070367
0.0029576976
0.003005029
0.0030492249
0.003090467
0.0031289261
0.0031647625
0.0031981268
0.0032291603
0.0032579959
0.0032847591
0.0033095669
0.0033325322
0.003353755
0.0033733471
0.0033913716
0.0034080111
0.0034230916
0.0034375483
0.0034488296
0.0034664456
0.00014759408
0.00014761082
0.00014762072
0.00014762228
0.00014761723
0.00014760711
0.00014759252
0.00014757361
0.0001475504
0.00014752282
0.00014749069
0.00014745378
0.00014741179
0.0001473644
0.00014731126
0.00014725199
0.00014718616
0.00014711333
0.00014703299
0.00014694467
0.00014684784
0.000146742
0.00014662665
0.00014650132
0.00014636554
0.00014621895
0.00014606122
0.00014589218
0.00014571173
0.00014551998
0.00014531704
0.00014510337
0.0001448797
0.00014464749
0.00014440722
0.00014416098
0.00014391115
0.00014366068
0.00014341089
0.00014316781
0.00014293489
0.0001427154
0.00014252232
0.0001423621
0.00014224579
0.00014218197
0.00014221999
0.00014236869
0.00014269331
0.00014327719
0.00014425288
0.00014581231
0.00014824316
0.00015210649
0.00015832472
0.00016830156
0.00018432519
0.00021092494
0.00025299284
0.00031725283
0.00040625887
0.00051857392
0.00065036876
0.00079522028
0.00094582149
0.0010960819
0.0012422893
0.001382777
0.0015169256
0.0016444594
0.0017652597
0.0018793804
0.0019870123
0.0020884065
0.0021838342
0.0022735787
0.0023579279
0.0024371657
0.0025115674
0.0025813981
0.0026469111
0.0027083477
0.0027659365
0.0028198944
0.0028704261
0.0029177249
0.0029619735
0.003003344
0.0030419986
0.0030780908
0.0031117641
0.0031431565
0.0031723927
0.0031996057
0.0032248829
0.0032484257
0.0032700651
0.0032908818
0.0033075846
0.0033339852
0.00014758856
0.0001475993
0.00014760482
0.00014760353
0.00014759658
0.00014758521
0.00014757004
0.00014755131
0.00014752913
0.00014750348
0.00014747427
0.00014744132
0.00014740439
0.00014736325
0.00014731761
0.00014726718
0.00014721163
0.00014715061
0.00014708373
0.00014701059
0.0001469308
0.00014684393
0.00014674957
0.00014664729
0.00014653668
0.00014641737
0.00014628899
0.00014615125
0.00014600389
0.00014584677
0.00014567978
0.00014550294
0.00014531641
0.00014512069
0.00014491616
0.00014470355
0.00014448393
0.00014425879
0.00014402918
0.00014379732
0.00014356548
0.00014333535
0.00014311128
0.00014289715
0.00014269742
0.00014251565
0.00014236632
0.0001422576
0.00014219488
0.00014222329
0.00014234338
0.00014262112
0.00014311519
0.00014392143
0.00014520118
0.0001471992
0.00015024808
0.00015508787
0.0001627722
0.00017505907
0.00019493464
0.00022680946
0.00027616758
0.00034752618
0.00044118681
0.00055542689
0.00068552021
0.00082494167
0.00096747245
0.0011087297
0.00124628
0.0013789082
0.001505953
0.0016270433
0.0017420428
0.0018509882
0.0019540121
0.0020512985
0.0021430648
0.0022295475
0.0023109905
0.0023876386
0.0024597335
0.0025275105
0.0025911974
0.0026510127
0.0027071654
0.0027598549
0.0028092706
0.0028555926
0.0028989912
0.0029396293
0.0029776571
0.0030132298
0.0030464601
0.0030775703
0.0031063952
0.003134175
0.0031568119
0.0031928059
0.00014758807
0.0001475934
0.00014759491
0.00014759108
0.00014758248
0.00014756999
0.00014755415
0.00014753527
0.0001475135
0.00014748891
0.00014746145
0.000147431
0.00014739738
0.00014736039
0.00014731981
0.0001472754
0.00014722688
0.00014717396
0.00014711635
0.0001470537
0.00014698569
0.00014691198
0.0001468322
0.00014674601
0.00014665305
0.00014655296
0.0001464454
0.00014633006
0.00014620664
0.0001460749
0.00014593462
0.00014578565
0.0001456279
0.00014546144
0.0001452864
0.00014510301
0.00014491172
0.0001447132
0.00014450812
0.00014429747
0.00014408251
0.00014386433
0.00014364476
0.00014342591
0.00014321018
0.00014299938
0.00014279843
0.00014261236
0.0001424437
0.00014230711
0.00014220759
0.00014215487
0.00014218488
0.00014230263
0.00014256422
0.00014302878
0.00014376504
0.00014491993
0.00014670222
0.00014942379
0.0001536234
0.00016021172
0.00017062908
0.00018721221
0.00021378198
0.00025515384
0.00031577554
0.0003971798
0.00049896796
0.00061759955
0.00074735578
0.00088232335
0.001017982
0.0011515273
0.0012813592
0.001406525
0.0015264551
0.0016408637
0.0017496629
0.0018528857
0.0019506406
0.0020430857
0.0021304102
0.0022128207
0.0022905324
0.0023637633
0.0024327302
0.0024976454
0.0025587158
0.0026161409
0.0026701123
0.0027208147
0.0027684214
0.0028131087
0.0028550137
0.0028943803
0.0029310449
0.0029664206
0.0029955322
0.0030419794
0.00014759198
0.00014759272
0.00014759068
0.00014758448
0.00014757432
0.00014756076
0.0001475442
0.00014752495
0.0001475032
0.00014747907
0.00014745255
0.00014742359
0.00014739206
0.0001473578
0.00014732063
0.00014728034
0.00014723671
0.00014718949
0.00014713841
0.00014708322
0.00014702362
0.00014695932
0.00014689003
0.00014681544
0.00014673524
0.00014664912
0.00014655677
0.0001464579
0.0001463522
0.00014623941
0.00014611927
0.00014599156
0.00014585608
0.00014571272
0.0001455614
0.00014540215
0.00014523507
0.00014506043
0.00014487854
0.00014468987
0.00014449508
0.00014429483
0.00014409003
0.00014388183
0.00014367159
0.00014346048
0.00014325056
0.00014304455
0.00014284409
0.00014265443
0.00014247981
0.00014232411
0.00014220031
0.00014211299
0.00014207628
0.0001421142
0.0001422439
0.00014251821
0.00014298344
0.0001437194
0.0001448493
0.00014657017
0.00014918054
0.00015314205
0.00015928956
0.000168926
0.00018412473
0.00020824252
0.00024578919
0.0003005268
0.00037476376
0.00046869522
0.00057940653
0.00070176741
0.00083030272
0.00096066055
0.0010899627
0.0012164289
0.0013389387
0.0014567998
0.0015696277
0.001677248
0.0017796218
0.0018768
0.001968894
0.0020560545
0.0021384563
0.0022162888
0.0022897486
0.0023590347
0.0024243452
0.0024858753
0.0025438134
0.002598351
0.0026496452
0.0026979594
0.0027431269
0.0027867464
0.002822889
0.0028806864
0.00014759997
0.00014759688
0.00014759173
0.00014758334
0.00014757168
0.00014755707
0.00014753977
0.00014752005
0.00014749809
0.00014747404
0.00014744794
0.00014741978
0.00014738948
0.00014735694
0.000147322
0.00014728449
0.00014724423
0.00014720101
0.00014715459
0.00014710475
0.00014705125
0.00014699382
0.00014693222
0.00014686618
0.00014679543
0.0001467197
0.00014663871
0.0001465522
0.00014645988
0.00014636149
0.00014625678
0.00014614548
0.00014602737
0.00014590224
0.00014576993
0.00014563033
0.00014548336
0.00014532907
0.00014516755
0.00014499897
0.00014482364
0.00014464192
0.00014445427
0.00014426131
0.00014406383
0.00014386258
0.00014365858
0.00014345333
0.00014324795
0.00014304471
0.00014284619
0.00014265443
0.00014247472
0.00014231068
0.00014216837
0.00014205886
0.00014197489
0.00014197559
0.00014202706
0.00014218455
0.00014248638
0.00014298547
0.00014376407
0.00014493802
0.00014670198
0.00014935802
0.00015336527
0.00015952028
0.00016910168
0.00018411348
0.00020768984
0.00024394643
0.00029628634
0.00036728304
0.00045712584
0.00056304867
0.00068027604
0.00080378411
0.00092954546
0.0010547989
0.0011777452
0.0012972123
0.0014124611
0.0015230597
0.0016287854
0.0017295556
0.0018253837
0.0019163486
0.0020025724
0.002084206
0.002161418
0.0022343878
0.0023032988
0.0023683428
0.0024296856
0.0024876024
0.0025419146
0.0025944164
0.0026381418
0.0027082011
0.00014761156
0.00014760533
0.00014759753
0.00014758719
0.00014757413
0.00014755851
0.00014754049
0.00014752025
0.00014749798
0.00014747381
0.00014744781
0.00014742001
0.00014739037
0.00014735883
0.00014732528
0.00014728959
0.0001472516
0.00014721114
0.00014716801
0.00014712201
0.00014707293
0.00014702054
0.00014696464
0.00014690497
0.00014684131
0.00014677341
0.00014670104
0.00014662394
0.00014654188
0.0001464546
0.00014636184
0.00014626336
0.00014615891
0.00014604827
0.00014593121
0.00014580755
0.00014567714
0.00014553989
0.00014539575
0.00014524473
0.00014508691
0.00014492243
0.00014475153
0.00014457449
0.00014439176
0.00014420379
0.00014401115
0.00014381464
0.00014361504
0.00014341348
0.00014321144
0.00014301022
0.00014281228
0.00014261997
0.00014243607
0.00014226644
0.00014210869
0.00014198464
0.00014189003
0.00014183151
0.00014184522
0.00014193425
0.0001421338
0.00014248399
0.00014304263
0.00014390029
0.00014518079
0.00014708634
0.00014993091
0.00015421341
0.00016075431
0.00017083651
0.0001865644
0.00021108844
0.00024795166
0.000300597
0.00037135004
0.00046000326
0.0005635949
0.00067755917
0.00079731349
0.00091923168
0.0010407784
0.001160246
0.0012765008
0.0013888186
0.001496764
0.0016000994
0.001698724
0.0017926322
0.0018818837
0.0019665832
0.0020468647
0.0021228878
0.0021948015
0.0022628751
0.002326901
0.0023888727
0.0024406974
0.0025239075
0.00014762629
0.00014761752
0.00014760753
0.00014759549
0.00014758118
0.00014756462
0.00014754593
0.0001475252
0.00014750259
0.00014747822
0.00014745216
0.00014742447
0.00014739514
0.00014736414
0.00014733141
0.00014729684
0.00014726033
0.00014722172
0.00014718085
0.00014713756
0.00014709166
0.00014704295
0.00014699125
0.00014693633
0.00014687801
0.00014681606
0.00014675027
0.00014668042
0.00014660628
0.00014652764
0.00014644424
0.00014635586
0.00014626224
0.00014616316
0.00014605838
0.00014594769
0.00014583088
0.0001457078
0.00014557832
0.00014544233
0.00014529979
0.00014515071
0.00014499515
0.00014483322
0.00014466511
0.00014449109
0.00014431144
0.00014412662
0.00014393711
0.00014374352
0.00014354671
0.00014334752
0.00014314722
0.0001429473
0.00014274925
0.00014255627
0.00014236796
0.00014219259
0.00014203246
0.00014188974
0.00014177791
0.00014170252
0.00014167594
0.0001417172
0.00014184534
0.00014210022
0.00014252095
0.0001431735
0.00014415457
0.00014560688
0.00014775627
0.00015093776
0.00015571233
0.00016300622
0.00017418618
0.00019153923
0.00021809479
0.00025732512
0.00031251914
0.00038537154
0.00047496734
0.00057799577
0.00069005607
0.00080702348
0.0009257111
0.0010438664
0.0011599441
0.0012729102
0.0013820991
0.001487104
0.0015876993
0.0016837864
0.0017753557
0.0018624647
0.0019451936
0.0020237672
0.0020979166
0.0021698269
0.0022301811
0.0023273465
0.00014764376
0.00014763297
0.00014762117
0.0001476077
0.0001475923
0.00014757493
0.00014755562
0.00014753447
0.00014751155
0.00014748697
0.00014746081
0.00014743311
0.0001474039
0.00014737318
0.0001473409
0.00014730701
0.00014727141
0.00014723401
0.00014719467
0.00014715324
0.00014710958
0.00014706351
0.00014701488
0.00014696349
0.00014690916
0.00014685172
0.00014679096
0.00014672669
0.0001466587
0.0001465868
0.00014651076
0.00014643037
0.00014634538
0.00014625558
0.00014616072
0.00014606058
0.00014595494
0.00014584361
0.00014572641
0.00014560317
0.00014547379
0.00014533816
0.00014519625
0.00014504804
0.00014489358
0.00014473297
0.00014456634
0.00014439392
0.00014421598
0.00014403286
0.00014384504
0.00014365305
0.00014345761
0.00014325962
0.00014305997
0.00014286045
0.00014266139
0.00014246616
0.00014227731
0.00014209619
0.00014192848
0.00014177862
0.00014165306
0.00014156005
0.00014150249
0.00014151492
0.00014159663
0.00014178277
0.0001421086
0.00014262487
0.00014340764
0.00014456513
0.00014626318
0.00014876901
0.00015246995
0.00015802831
0.00016643541
0.00017936169
0.00019920954
0.00022909498
0.00027248079
0.00033213561
0.00040883083
0.00050078228
0.00060433528
0.0007153189
0.00083010464
0.00094595484
0.0010609246
0.0011736709
0.0012832943
0.0013892136
0.0014910737
0.0015886828
0.0016819441
0.0017709593
0.0018553356
0.0019374193
0.0020065617
0.0021183025
0.00014766366
0.00014765125
0.00014763798
0.00014762332
0.000147607
0.00014758893
0.00014756912
0.00014754759
0.00014752442
0.00014749967
0.00014747342
0.0001474457
0.00014741655
0.00014738597
0.00014735396
0.00014732047
0.00014728545
0.00014724881
0.00014721047
0.0001471703
0.00014712819
0.00014708399
0.00014703756
0.00014698875
0.0001469374
0.00014688333
0.0001468264
0.00014676641
0.00014670319
0.00014663655
0.0001465663
0.00014649222
0.00014641412
0.00014633176
0.00014624492
0.00014615338
0.00014605691
0.00014595531
0.00014584836
0.00014573589
0.00014561772
0.00014549371
0.00014536373
0.00014522771
0.0001450856
0.00014493737
0.00014478306
0.00014462273
0.00014445652
0.00014428459
0.00014410719
0.00014392463
0.00014373732
0.00014354581
0.00014335063
0.00014315281
0.00014295282
0.00014275218
0.00014255267
0.00014235543
0.00014216311
0.00014197857
0.00014180534
0.00014164822
0.00014150976
0.00014140345
0.00014133138
0.00014131445
0.00014136247
0.00014150004
0.00014175841
0.00014217998
0.00014282479
0.00014378474
0.00014518569
0.00014723631
0.00015023356
0.00015467718
0.00016133067
0.00017144176
0.00018690903
0.00021038493
0.000245145
0.0002943933
0.00036003721
0.00044169084
0.00053671282
0.00064126142
0.00075152548
0.0008643998
0.00097758502
0.0010894488
0.0011988674
0.0013050923
0.0014076254
0.0015062836
0.0016004265
0.001692488
0.0017703607
0.0018969484
0.00014768571
0.00014767201
0.00014765755
0.00014764191
0.00014762482
0.00014760619
0.00014758596
0.00014756414
0.00014754078
0.00014751593
0.00014748962
0.00014746191
0.00014743282
0.00014740235
0.00014737052
0.0001473373
0.00014730266
0.00014726653
0.00014722885
0.00014718954
0.00014714849
0.0001471056
0.00014706075
0.0001470138
0.00014696462
0.00014691308
0.00014685902
0.00014680229
0.00014674273
0.00014668018
0.00014661446
0.00014654538
0.00014647274
0.00014639635
0.00014631599
0.00014623143
0.00014614248
0.00014604891
0.00014595051
0.00014584707
0.00014573841
0.00014562434
0.00014550471
0.00014537937
0.00014524821
0.00014511115
0.00014496813
0.00014481912
0.00014466414
0.00014450325
0.00014433654
0.00014416417
0.00014398635
0.0001438034
0.00014361563
0.00014342363
0.0001432278
0.00014302891
0.00014282807
0.00014262614
0.00014242457
0.00014222511
0.00014202985
0.0001418417
0.00014166243
0.00014149837
0.00014135282
0.00014123459
0.00014115024
0.00014111088
0.00014113274
0.00014123499
0.00014144377
0.00014179723
0.0001423452
0.00014316481
0.00014436054
0.00014609694
0.0001486177
0.00015231681
0.00015780824
0.00016607188
0.0001786288
0.00019771556
0.00022629297
0.00026762318
0.0003242643
0.00039691847
0.00048397172
0.00058213507
0.00068764633
0.000797176
0.00090814138
0.0010186605
0.0011273892
0.0012335332
0.0013359588
0.0014370269
0.0015230042
0.0016640821
0.00014770967
0.00014769495
0.00014767954
0.00014766309
0.00014764539
0.00014762628
0.00014760573
0.0001475837
0.00014756022
0.00014753532
0.00014750902
0.00014748137
0.00014745236
0.00014742203
0.00014739038
0.00014735739
0.00014732303
0.00014728728
0.00014725009
0.00014721138
0.00014717108
0.00014712911
0.00014708538
0.00014703978
0.0001469922
0.00014694251
0.0001468906
0.00014683634
0.00014677958
0.00014672018
0.00014665798
0.00014659282
0.00014652452
0.00014645289
0.00014637773
0.00014629884
0.00014621602
0.00014612905
0.00014603773
0.00014594185
0.0001458412
0.0001457356
0.00014562484
0.00014550877
0.00014538723
0.00014526008
0.00014512722
0.00014498854
0.00014484399
0.00014469354
0.0001445372
0.00014437499
0.00014420702
0.00014403342
0.00014385438
0.00014367019
0.00014348116
0.0001432877
0.00014309045
0.00014289004
0.00014268731
0.00014248335
0.00014227945
0.00014207741
0.00014187855
0.00014168607
0.00014150251
0.00014133244
0.00014118024
0.00014105214
0.00014095567
0.00014090102
0.00014090244
0.00014097762
0.00014114976
0.00014145252
0.00014193004
0.00014264693
0.00014369452
0.00014521107
0.00014740445
0.00015059779
0.00015530031
0.00016231444
0.0001729009
0.00018896278
0.00021313853
0.00024856963
0.00029812608
0.00036326733
0.00044327058
0.00053547415
0.00063632563
0.00074241066
0.00085092621
0.0009599086
0.0010672709
0.0011749793
0.0012674222
0.0014215263
0.00014773533
0.0001477198
0.00014770363
0.00014768655
0.00014766834
0.00014764887
0.00014762807
0.00014760591
0.00014758237
0.00014755748
0.00014753125
0.0001475037
0.00014747484
0.00014744468
0.00014741323
0.00014738047
0.0001473464
0.00014731098
0.00014727417
0.00014723594
0.00014719621
0.00014715494
0.00014711204
0.00014706743
0.00014702102
0.00014697272
0.00014692243
0.00014687002
0.00014681539
0.00014675841
0.00014669894
0.00014663684
0.00014657195
0.00014650409
0.0001464331
0.00014635878
0.00014628093
0.00014619937
0.00014611389
0.00014602429
0.00014593036
0.0001458319
0.00014572872
0.00014562062
0.00014550743
0.00014538899
0.00014526513
0.00014513573
0.00014500067
0.00014485987
0.00014471325
0.00014456077
0.00014440244
0.00014423829
0.00014406838
0.00014389286
0.00014371189
0.0001435257
0.00014333466
0.00014313916
0.00014293972
0.00014273701
0.00014253185
0.00014232535
0.0001421185
0.00014191304
0.00014171074
0.00014151422
0.00014132631
0.00014115069
0.00014099172
0.00014085565
0.00014074927
0.00014068225
0.00014066773
0.00014072191
0.00014086629
0.00014113049
0.0001415547
0.0001421962
0.00014313702
0.00014449816
0.00014646138
0.00014930412
0.00015346043
0.00015961537
0.00016884888
0.00018281318
0.00020386587
0.00023496654
0.00027909133
0.00033818354
0.00041221896
0.00049913741
0.00059565329
0.00069850906
0.00080414531
0.00091362902
0.0010090922
0.0011728062
0.0001477625
0.00014774634
0.00014772958
0.00014771199
0.00014769339
0.00014767365
0.00014765267
0.00014763043
0.00014760689
0.00014758206
0.00014755595
0.00014752855
0.00014749988
0.00014746995
0.00014743874
0.00014740626
0.00014737248
0.00014733739
0.00014730096
0.00014726315
0.00014722392
0.00014718321
0.00014714097
0.00014709714
0.00014705164
0.0001470044
0.00014695533
0.00014690434
0.00014685135
0.00014679623
0.00014673887
0.00014667915
0.00014661693
0.00014655206
0.00014648438
0.00014641372
0.0001463399
0.00014626274
0.00014618205
0.00014609764
0.0001460093
0.00014591684
0.00014582007
0.00014571878
0.00014561278
0.0001455019
0.00014538595
0.00014526477
0.00014513822
0.00014500617
0.00014486848
0.00014472508
0.00014457589
0.00014442087
0.00014426
0.00014409332
0.00014392089
0.00014374282
0.00014355927
0.00014337049
0.00014317679
0.00014297857
0.00014277633
0.00014257077
0.00014236258
0.0001421528
0.0001419426
0.00014173358