/*--------------------------------*- C++ -*----------------------------------*\
  =========                 |
  \\      /  F ield         | OpenFOAM: The Open Source CFD Toolbox
   \\    /   O peration     | Website:  https://openfoam.org
    \\  /    A nd           | Version:  12
     \\/     M anipulation  |
\*---------------------------------------------------------------------------*/
FoamFile
{
    format      ascii;
    class       volScalarField;
    location    "1600";
    object      nut;
}
// * * * * * * * * * * * * * * * * * * * * * * * * * * * * * * * * * * * * * //

dimensions      [0 2 -1 0 0 0 0];

internalField   nonuniform List<scalar> 
7480
(
2.2961341e-06
3.6712618e-06
4.9376839e-06
5.9922774e-06
6.8101886e-06
7.4052146e-06
7.8088542e-06
8.0587432e-06
8.1919255e-06
8.240734e-06
8.2311196e-06
8.1826638e-06
8.1094929e-06
8.0214515e-06
7.9252259e-06
7.8253127e-06
7.7248486e-06
7.626217e-06
7.5312197e-06
7.4413664e-06
7.3580298e-06
7.2825041e-06
7.215959e-06
7.159342e-06
7.1132694e-06
7.0777395e-06
7.0516193e-06
7.0330524e-06
7.0193955e-06
7.0077556e-06
6.9957463e-06
6.9819734e-06
6.9660667e-06
6.9484502e-06
6.929808e-06
6.9106864e-06
6.8913167e-06
6.8716672e-06
6.8516126e-06
6.8310978e-06
6.8102127e-06
6.7891481e-06
6.7681053e-06
6.7472158e-06
6.7265277e-06
6.7060444e-06
6.6857679e-06
6.6657097e-06
6.6458832e-06
6.6262963e-06
6.6069489e-06
6.587835e-06
6.5689483e-06
6.5502858e-06
6.5318453e-06
6.5136203e-06
6.4956034e-06
6.4777903e-06
6.4601801e-06
6.4427654e-06
6.4255393e-06
6.4084957e-06
6.3916292e-06
6.3749354e-06
6.3584112e-06
6.3420531e-06
6.3258575e-06
6.309821e-06
6.2939399e-06
6.2782105e-06
6.2626293e-06
6.2471928e-06
6.2318977e-06
6.2167405e-06
6.2017181e-06
6.1868276e-06
6.1720658e-06
6.1574298e-06
6.1429166e-06
6.1285235e-06
6.1142478e-06
6.1000868e-06
6.0860378e-06
6.0720983e-06
6.0582656e-06
6.0445373e-06
6.0309107e-06
6.0173831e-06
6.0039519e-06
5.9906133e-06
5.9773657e-06
5.9642001e-06
5.9511219e-06
5.9380975e-06
5.9251748e-06
5.9121964e-06
5.8994371e-06
5.8859989e-06
5.8747331e-06
5.8537011e-06
9.4223962e-06
2.6980944e-06
1.2696851e-06
9.5065019e-07
9.5947731e-07
1.0777681e-06
1.2392816e-06
1.421972e-06
1.6130897e-06
1.8051734e-06
1.9975164e-06
2.1918032e-06
2.3894398e-06
2.5958769e-06
2.8219825e-06
3.0838604e-06
3.4094366e-06
3.8216164e-06
4.2905846e-06
4.8138065e-06
5.395524e-06
6.0387843e-06
6.7416875e-06
7.505119e-06
8.3128993e-06
9.1356862e-06
9.9393599e-06
1.0687776e-05
1.134749e-05
1.1903181e-05
1.2360539e-05
1.2738599e-05
1.3060753e-05
1.3345863e-05
1.3604052e-05
1.3836963e-05
1.4042188e-05
1.4218348e-05
1.4367798e-05
1.4496408e-05
1.4611098e-05
1.4717129e-05
1.4817364e-05
1.4912007e-05
1.5000585e-05
1.5083172e-05
1.5160509e-05
1.5233451e-05
1.5302513e-05
1.5367822e-05
1.5429372e-05
1.5487263e-05
1.5541708e-05
1.5592901e-05
1.5640936e-05
1.5685878e-05
1.5727832e-05
1.5766927e-05
1.5803173e-05
1.5836829e-05
1.5867933e-05
1.5896544e-05
1.5922762e-05
1.5946698e-05
1.5968451e-05
1.5988113e-05
1.6005773e-05
1.6021508e-05
1.6035394e-05
1.6047507e-05
1.6057916e-05
1.6066692e-05
1.6073903e-05
1.6079614e-05
1.6083889e-05
1.6086789e-05
1.6088372e-05
1.6088694e-05
1.608781e-05
1.6085774e-05
1.6082635e-05
1.6078442e-05
1.6073242e-05
1.606708e-05
1.6059998e-05
1.6052039e-05
1.6043243e-05
1.6033648e-05
1.6023291e-05
1.601221e-05
1.6000435e-05
1.5988011e-05
1.5974944e-05
1.5961323e-05
1.5947042e-05
1.5932452e-05
1.5916931e-05
1.5901397e-05
1.5887195e-05
1.5856473e-05
8.0601363e-05
3.347999e-05
1.6085577e-05
9.0382171e-06
5.7413711e-06
3.975239e-06
2.9328569e-06
2.275826e-06
1.8414864e-06
1.54397e-06
1.3349029e-06
1.185405e-06
1.0774083e-06
9.9937697e-07
9.4410898e-07
9.0710129e-07
8.8783428e-07
8.8144406e-07
9.1962232e-07
1.0127404e-06
1.1655008e-06
1.3838746e-06
1.6758823e-06
2.0298271e-06
2.4733001e-06
3.0452107e-06
3.8243972e-06
4.7853458e-06
5.8908024e-06
7.0987157e-06
8.3667421e-06
9.6424264e-06
1.0863839e-05
1.1981968e-05
1.2969869e-05
1.382662e-05
1.4571843e-05
1.5235228e-05
1.58441e-05
1.6415515e-05
1.6954703e-05
1.7459637e-05
1.7926782e-05
1.8357005e-05
1.8755266e-05
1.9127975e-05
1.9480182e-05
1.9814419e-05
2.0131491e-05
2.0431968e-05
2.0716984e-05
2.0988032e-05
2.1246378e-05
2.1492824e-05
2.1727906e-05
2.1952155e-05
2.2166152e-05
2.2370441e-05
2.2565429e-05
2.2751287e-05
2.2928506e-05
2.3097524e-05
2.325871e-05
2.341239e-05
2.3558864e-05
2.3698413e-05
2.38313e-05
2.3957767e-05
2.4078047e-05
2.4192362e-05
2.4300924e-05
2.4403937e-05
2.4501599e-05
2.45941e-05
2.4681625e-05
2.476435e-05
2.4842448e-05
2.4916085e-05
2.4985421e-05
2.5050613e-05
2.511181e-05
2.516916e-05
2.5222803e-05
2.5272876e-05
2.5319511e-05
2.5362837e-05
2.5402978e-05
2.5440054e-05
2.5474184e-05
2.5505484e-05
2.5534057e-05
2.5560034e-05
2.5583471e-05
2.5604602e-05
2.5623255e-05
2.5640189e-05
2.5653989e-05
2.5668407e-05
2.5676379e-05
2.5687275e-05
0.00017882567
0.00011805616
7.6504464e-05
5.1829525e-05
3.7026701e-05
2.768083e-05
2.1463146e-05
1.7142889e-05
1.4034458e-05
1.1733625e-05
9.989846e-06
8.6407178e-06
7.5767929e-06
6.7226402e-06
6.0239499e-06
5.4411293e-06
4.9437612e-06
4.5077684e-06
4.1153227e-06
3.7567412e-06
3.4122449e-06
3.1002898e-06
2.7954699e-06
2.5061263e-06
2.2359166e-06
1.9983747e-06
1.8060264e-06
1.6799038e-06
1.7039517e-06
1.9112805e-06
2.2824089e-06
2.8298999e-06
3.594841e-06
4.6599963e-06
5.9620363e-06
7.4043676e-06
8.9279978e-06
1.0457708e-05
1.1917943e-05
1.3258755e-05
1.4462732e-05
1.5542162e-05
1.6526582e-05
1.7446541e-05
1.8321901e-05
1.9158705e-05
1.9954438e-05
2.0705901e-05
2.1414107e-05
2.2084091e-05
2.2721688e-05
2.3330829e-05
2.3913242e-05
2.4469853e-05
2.5001981e-05
2.5511381e-05
2.5999671e-05
2.6468036e-05
2.6917384e-05
2.7348504e-05
2.7762261e-05
2.8159483e-05
2.85409e-05
2.8907173e-05
2.925892e-05
2.9596716e-05
2.9921085e-05
3.0232516e-05
3.0531469e-05
3.0818379e-05
3.1093658e-05
3.1357697e-05
3.1610872e-05
3.1853543e-05
3.2086054e-05
3.230874e-05
3.2521919e-05
3.2725902e-05
3.2920989e-05
3.3107471e-05
3.328563e-05
3.345574e-05
3.3618064e-05
3.3772861e-05
3.3920381e-05
3.4060867e-05
3.4194555e-05
3.4321677e-05
3.4442456e-05
3.4557116e-05
3.4665861e-05
3.4768926e-05
3.4866455e-05
3.4958803e-05
3.5045819e-05
3.5128595e-05
3.5204938e-05
3.5282107e-05
3.5339681e-05
3.5439538e-05
0.00022753863
0.00019283837
0.00015480185
0.00012274415
9.8198142e-05
7.983531e-05
6.6020518e-05
5.5469288e-05
4.7273262e-05
4.0803245e-05
3.5620537e-05
3.1414287e-05
2.795916e-05
2.5087294e-05
2.2673906e-05
2.0624177e-05
1.8863922e-05
1.7334323e-05
1.5988154e-05
1.4785926e-05
1.369538e-05
1.2689599e-05
1.1743948e-05
1.0836801e-05
9.9450893e-06
9.0598847e-06
8.1520044e-06
7.2442637e-06
6.3265731e-06
5.4509744e-06
4.6415212e-06
3.9239776e-06
3.3387627e-06
2.8973247e-06
2.6621972e-06
2.743554e-06
3.0705812e-06
3.6671668e-06
4.5790142e-06
5.8476956e-06
7.3477057e-06
8.9888725e-06
1.0684543e-05
1.2344788e-05
1.3908958e-05
1.5352912e-05
1.6685121e-05
1.7931815e-05
1.9119119e-05
2.0261307e-05
2.1360199e-05
2.2412313e-05
2.3416286e-05
2.4375192e-05
2.5294159e-05
2.6177201e-05
2.7026344e-05
2.7842769e-05
2.8627953e-05
2.9383667e-05
3.011152e-05
3.081278e-05
3.1488548e-05
3.2139903e-05
3.2767879e-05
3.3373401e-05
3.3957305e-05
3.4520372e-05
3.5063332e-05
3.5586872e-05
3.6091632e-05
3.6578219e-05
3.704721e-05
3.7499155e-05
3.7934578e-05
3.8353981e-05
3.8757849e-05
3.9146648e-05
3.9520829e-05
3.9880828e-05
4.022707e-05
4.0559965e-05
4.0879914e-05
4.1187303e-05
4.1482513e-05
4.1765912e-05
4.203786e-05
4.2298711e-05
4.2548807e-05
4.2788489e-05
4.3018077e-05
4.323792e-05
4.3448268e-05
4.3649602e-05
4.384181e-05
4.4026335e-05
4.4200016e-05
4.4374786e-05
4.4510745e-05
4.4750303e-05
0.00024509516
0.00023074427
0.00020880586
0.00018423888
0.00016079437
0.00014010394
0.00012247072
0.00010763734
9.5189926e-05
8.4717652e-05
7.5864339e-05
6.8335751e-05
6.1895966e-05
5.635394e-05
5.1555377e-05
4.7375467e-05
4.3712279e-05
4.0481834e-05
3.7614342e-05
3.5050178e-05
3.2739265e-05
3.0637055e-05
2.8704983e-05
2.6907862e-05
2.5214282e-05
2.3598859e-05
2.2030794e-05
2.0483621e-05
1.8930365e-05
1.7363967e-05
1.5754696e-05
1.4147447e-05
1.2515525e-05
1.0886627e-05
9.2937507e-06
7.8264097e-06
6.5180082e-06
5.4165001e-06
4.5684809e-06
3.970821e-06
3.7770256e-06
3.9399081e-06
4.452448e-06
5.3535235e-06
6.6671299e-06
8.238833e-06
9.9841156e-06
1.179829e-05
1.3591106e-05
1.530466e-05
1.6920533e-05
1.8449998e-05
1.9915054e-05
2.1331488e-05
2.2703254e-05
2.4027449e-05
2.5302048e-05
2.6529048e-05
2.7712507e-05
2.8855611e-05
2.996001e-05
3.1026891e-05
3.2057773e-05
3.3054331e-05
3.4018018e-05
3.4950035e-05
3.5851505e-05
3.6723519e-05
3.7567089e-05
3.838314e-05
3.9172542e-05
3.9936118e-05
4.0674645e-05
4.1388856e-05
4.2079453e-05
4.2747102e-05
4.3392446e-05
4.4016101e-05
4.4618664e-05
4.5200711e-05
4.5762802e-05
4.6305478e-05
4.6829268e-05
4.7334688e-05
4.7822239e-05
4.8292414e-05
4.8745693e-05
4.918255e-05
4.9603444e-05
5.0008834e-05
5.0399154e-05
5.0774871e-05
5.1136341e-05
5.1484172e-05
5.1818293e-05
5.2140539e-05
5.2446537e-05
5.2754152e-05
5.299796e-05
5.3428651e-05
0.00025129484
0.00024620848
0.000236284
0.00022227527
0.00020602187
0.00018924421
0.00017306253
0.00015804592
0.00014440243
0.00013214623
0.00012119826
0.00011144061
0.00010274605
9.4991149e-05
8.8062183e-05
8.1857188e-05
7.6285983e-05
7.1269286e-05
6.6737585e-05
6.2629325e-05
5.8890231e-05
5.5471593e-05
5.2329588e-05
4.9424338e-05
4.6718842e-05
4.4179682e-05
4.1774388e-05
3.9470477e-05
3.7235389e-05
3.5040372e-05
3.2857394e-05
3.0669694e-05
2.8461783e-05
2.6224638e-05
2.3922463e-05
2.1618987e-05
1.9271675e-05
1.6934741e-05
1.466012e-05
1.2477837e-05
1.0475274e-05
8.7027801e-06
7.2156453e-06
6.0730321e-06
5.2712229e-06
5.0037127e-06
5.1511179e-06
5.7412453e-06
6.8291895e-06
8.2921756e-06
1.0016922e-05
1.1898143e-05
1.3829608e-05
1.5731777e-05
1.7566131e-05
1.9329725e-05
2.1036379e-05
2.2697647e-05
2.4315416e-05
2.588617e-05
2.7407887e-05
2.8882121e-05
3.0311698e-05
3.1698547e-05
3.3043733e-05
3.4348358e-05
3.5613802e-05
3.6841406e-05
3.8032318e-05
3.9187598e-05
4.0308285e-05
4.1395369e-05
4.2449774e-05
4.3472374e-05
4.4464008e-05
4.5425477e-05
4.6357549e-05
4.7260961e-05
4.813643e-05
4.8984645e-05
4.9806278e-05
5.0601982e-05
5.137239e-05
5.2118127e-05
5.2839799e-05
5.3538003e-05
5.4213327e-05
5.4866346e-05
5.5497628e-05
5.6107734e-05
5.6697204e-05
5.7266608e-05
5.7816405e-05
5.8347321e-05
5.8859314e-05
5.9354653e-05
5.9827514e-05
6.0302866e-05
6.0684186e-05
6.1357179e-05
0.00025395277
0.0002522699
0.00024838309
0.00024176282
0.00023263823
0.00022172318
0.0002098279
0.00019762649
0.00018559086
0.00017401468
0.0001630613
0.00015280668
0.00014327186
0.00013444467
0.000126294
0.00011877872
0.0001118533
0.00010547107
9.9586248e-05
9.4154683e-05
8.9134505e-05
8.4486147e-05
8.017227e-05
7.6157639e-05
7.2408699e-05
6.8893587e-05
6.5581779e-05
6.2443264e-05
5.9448065e-05
5.6566746e-05
5.3770833e-05
5.1036216e-05
4.83277e-05
4.5617752e-05
4.2879885e-05
4.0112262e-05
3.7296239e-05
3.4427485e-05
3.1505754e-05
2.8570247e-05
2.5610225e-05
2.2669195e-05
1.9784731e-05
1.7018638e-05
1.4405325e-05
1.2065645e-05
1.0026438e-05
8.3803577e-06
7.1346644e-06
6.4521757e-06
6.3096417e-06
6.6851859e-06
7.6272957e-06
9.0181344e-06
1.0740302e-05
1.2680234e-05
1.472139e-05
1.6772646e-05
1.8785853e-05
2.0750436e-05
2.2672569e-05
2.4556559e-05
2.639972e-05
2.8197466e-05
2.9948147e-05
3.1652801e-05
3.3312747e-05
3.4928669e-05
3.6501167e-05
3.8031143e-05
3.9519609e-05
4.0967485e-05
4.2375647e-05
4.3744982e-05
4.5076354e-05
4.6370597e-05
4.7628523e-05
4.8850922e-05
5.0038565e-05
5.1192202e-05
5.2312564e-05
5.340037e-05
5.4456321e-05
5.5481107e-05
5.6475409e-05
5.7439896e-05
5.8375229e-05
5.9282064e-05
6.0161044e-05
6.1012814e-05
6.1837994e-05
6.2637243e-05
6.3411097e-05
6.416039e-05
6.4885087e-05
6.5587919e-05
6.6261402e-05
6.6938636e-05
6.7486953e-05
6.8452699e-05
0.00025566858
0.00025508245
0.00025366229
0.00025089601
0.00024648889
0.00024045811
0.00023306342
0.00022467573
0.00021566869
0.00020636141
0.00019700126
0.00018776771
0.00017878421
0.00017013102
0.00016185647
0.00015398594
0.00014652861
0.00013948245
0.00013283779
0.00012657979
0.0001206902
0.0001151486
0.00010993317
0.00010502128
0.00010038972
9.6014971e-05
9.187337e-05
8.7941047e-05
8.4193709e-05
8.0606631e-05
7.7154863e-05
7.38152e-05
7.0560736e-05
6.7364145e-05
6.4198531e-05
6.1044101e-05
5.7881495e-05
5.4695228e-05
5.1464399e-05
4.8176905e-05
4.4829117e-05
4.142223e-05
3.79716e-05
3.44821e-05
3.098622e-05
2.7532089e-05
2.4141212e-05
2.0882166e-05
1.7785904e-05
1.4968417e-05
1.2497336e-05
1.0466862e-05
8.9021119e-06
7.9763545e-06
7.6681388e-06
7.96334e-06
8.8906558e-06
1.0297487e-05
1.2086002e-05
1.4125229e-05
1.6288445e-05
1.8483027e-05
2.0662841e-05
2.2815721e-05
2.4940623e-05
2.70337e-05
2.9088332e-05
3.1099897e-05
3.3067006e-05
3.4989563e-05
3.6867391e-05
3.8700381e-05
4.0488808e-05
4.2233172e-05
4.3934012e-05
4.5591913e-05
4.7207516e-05
4.878149e-05
5.0314512e-05
5.1807268e-05
5.3260449e-05
5.4674746e-05
5.6050851e-05
5.7389454e-05
5.8691244e-05
5.995691e-05
6.1187138e-05
6.2382615e-05
6.3544023e-05
6.4672049e-05
6.5767363e-05
6.6830673e-05
6.7862572e-05
6.8863968e-05
6.9834813e-05
7.0778307e-05
7.1685125e-05
7.2597379e-05
7.3341696e-05
7.4649632e-05
0.00025726697
0.00025699462
0.00025644299
0.00025534102
0.000253409
0.00025045462
0.00024642154
0.0002413801
0.00023548405
0.00022892328
0.00022188897
0.00021455366
0.00020706301
0.00019953456
0.00019205992
0.00018470847
0.00017753124
0.00017056446
0.00016383264
0.00015735101
0.00015112755
0.00014516454
0.0001394598
0.00013400761
0.00012879939
0.00012382423
0.00011906936
0.00011452045
0.0001101618
0.00010597639
0.00010194605
9.8052517e-05
9.4275909e-05
9.0594726e-05
8.6986323e-05
8.3429419e-05
7.9903641e-05
7.6390644e-05
7.2871054e-05
6.9325808e-05
6.5740451e-05
6.2104824e-05
5.8416611e-05
5.4677317e-05
5.0862683e-05
4.6984971e-05
4.3066733e-05
3.9117085e-05
3.5159463e-05
3.1251991e-05
2.7424984e-05
2.3752195e-05
2.0272768e-05
1.7112062e-05
1.4351651e-05
1.2088921e-05
1.036728e-05
9.4102151e-06
9.1041705e-06
9.5041501e-06
1.0545062e-05
1.2098886e-05
1.4044753e-05
1.6237188e-05
1.8549067e-05
2.0899724e-05
2.32532e-05
2.559651e-05
2.7920692e-05
3.021595e-05
3.2474638e-05
3.4692717e-05
3.6868169e-05
3.8999531e-05
4.1085766e-05
4.3126387e-05
4.5121263e-05
4.7070449e-05
4.8974148e-05
5.0832684e-05
5.2646466e-05
5.4415964e-05
5.6141694e-05
5.7824211e-05
5.94641e-05
6.1061968e-05
6.261844e-05
6.4134159e-05
6.5609778e-05
6.7045967e-05
6.8443389e-05
6.9802755e-05
7.1124673e-05
7.241008e-05
7.3658883e-05
7.4874742e-05
7.6046333e-05
7.7225529e-05
7.8194099e-05
7.9892383e-05
0.00025898781
0.00025879254
0.0002585091
0.00025802777
0.00025719302
0.00025583962
0.00025383486
0.00025110639
0.00024764776
0.00024350693
0.00023876769
0.0002335317
0.0002279047
0.00022198766
0.00021587189
0.00020963694
0.00020335023
0.00019706774
0.000190835
0.00018468834
0.00017865614
0.00017275991
0.00016701532
0.00016143304
0.00015601945
0.00015077724
0.0001457059
0.00014080224
0.00013606068
0.0001314735
0.00012703113
0.00012272259
0.00011853542
0.00011445533
0.00011046627
0.0001065513
0.00010269305
9.8874496e-05
9.5078422e-05
9.1286944e-05
8.7483172e-05
8.3652388e-05
7.9783058e-05
7.5869648e-05
7.1895894e-05
6.7854964e-05
6.3748837e-05
5.9580047e-05
5.5349209e-05
5.1062381e-05
4.671194e-05
4.2347295e-05
3.7987474e-05
3.3686495e-05
2.9500282e-05
2.5503463e-05
2.1746743e-05
1.8386593e-05
1.5501609e-05
1.3168265e-05
1.1557865e-05
1.0724867e-05
1.0652138e-05
1.1334072e-05
1.2642829e-05
1.4468504e-05
1.6653e-05
1.904456e-05
2.153527e-05
2.4066898e-05
2.6612109e-05
2.915397e-05
3.1678094e-05
3.4173554e-05
3.6633614e-05
3.9054125e-05
4.1432106e-05
4.3765437e-05
4.6052768e-05
4.8293257e-05
5.0486402e-05
5.2631968e-05
5.4729923e-05
5.6780384e-05
5.8783585e-05
6.0739853e-05
6.2649588e-05
6.4513249e-05
6.633134e-05
6.8104412e-05
6.9833034e-05
7.1517843e-05
7.3159392e-05
7.4758588e-05
7.631524e-05
7.7833438e-05
7.9299715e-05
8.0776337e-05
8.1996396e-05
8.4131633e-05
0.00026089589
0.00026071323
0.00026050061
0.00026022184
0.00025981016
0.00025917318
0.00025820851
0.00025682365
0.00025495186
0.00025255959
0.00024964596
0.00024623695
0.00024237753
0.00023812397
0.00023353759
0.00022868017
0.00022361088
0.00021838447
0.00021305032
0.00020765203
0.00020222745
0.00019680892
0.00019142357
0.00018609374
0.00018083741
0.0001756685
0.00017059734
0.00016563099
0.00016077362
0.00015602673
0.00015138946
0.00014685892
0.00014243028
0.00013809678
0.00013384965
0.00012967835
0.00012557092
0.00012151452
0.00011749564
0.00011349984
0.00010951218
0.00010551812
0.000101504
9.7459683e-05
9.3372205e-05
8.9229865e-05
8.5025051e-05
8.0752921e-05
7.6410633e-05
7.1995815e-05
6.7499477e-05
6.2925872e-05
5.8300159e-05
5.3612709e-05
4.8881128e-05
4.4142964e-05
3.9424975e-05
3.479941e-05
3.0344185e-05
2.6112292e-05
2.2227427e-05
1.8818686e-05
1.5979634e-05
1.384943e-05
1.2578221e-05
1.2122985e-05
1.2503588e-05
1.3611937e-05
1.534242e-05
1.7524504e-05
1.9988964e-05
2.2608879e-05
2.5308704e-05
2.8047791e-05
3.0800427e-05
3.354697e-05
3.6273124e-05
3.8969511e-05
4.1629839e-05
4.4249559e-05
4.6825426e-05
4.9355193e-05
5.1837299e-05
5.4270678e-05
5.6654643e-05
5.8988794e-05
6.1272949e-05
6.3507101e-05
6.5691373e-05
6.7826007e-05
6.9911318e-05
7.1947733e-05
7.3935639e-05
7.5875811e-05
7.7767882e-05
7.9616306e-05
8.1405331e-05
8.3208154e-05
8.470562e-05
8.7322531e-05
0.00026300439
0.00026281985
0.00026262129
0.00026239961
0.00026213118
0.00026177528
0.00026127568
0.00026056743
0.00025958634
0.0002582778
0.00025660289
0.00025454091
0.00025208875
0.00024925834
0.00024607315
0.00024256466
0.00023876915
0.00023472524
0.00023047188
0.00022604696
0.00022148635
0.00021682328
0.00021208801
0.00020730757
0.00020250577
0.00019770317
0.00019291719
0.00018816228
0.00018345006
0.00017878952
0.0001741872
0.00016964742
0.00016517237
0.00016076224
0.00015641514
0.00015212714
0.00014789244
0.00014370371
0.00013955226
0.00013542821
0.00013132052
0.00012721746
0.00012310694
0.0001189781
0.00011481952
0.00011061952
0.00010636768
0.00010205521
9.7675304e-05
9.3222004e-05
8.8686775e-05
8.4064174e-05
7.9360065e-05
7.4570489e-05
6.9692868e-05
6.4740739e-05
5.9721167e-05
5.4670339e-05
4.9587596e-05
4.4508312e-05
3.9492077e-05
3.4620089e-05
2.9976224e-05
2.5659845e-05
2.1830738e-05
1.8583571e-05
1.6070797e-05
1.4463945e-05
1.3739727e-05
1.3914368e-05
1.4908161e-05
1.6606149e-05
1.8824519e-05
2.1382223e-05
2.4140701e-05
2.701286e-05
2.9947547e-05
3.2911171e-05
3.5879205e-05
3.8834312e-05
4.1764753e-05
4.4662303e-05
4.7521001e-05
5.033655e-05
5.3105862e-05
5.5826704e-05
5.8497476e-05
6.1117062e-05
6.368471e-05
6.6199954e-05
6.8662546e-05
7.1072441e-05
7.3429657e-05
7.573466e-05
7.7986766e-05
8.0190682e-05
8.2328196e-05
8.4483885e-05
8.628297e-05
8.9423952e-05
0.00026531738
0.00026512851
0.0002649298
0.00026472066
0.00026449422
0.0002642355
0.00026391954
0.00026351166
0.00026297022
0.00026225099
0.00026131202
0.00026011786
0.00025864228
0.00025686952
0.00025479406
0.00025241958
0.00024975738
0.00024682466
0.00024364281
0.00024023601
0.00023662988
0.00023285053
0.00022892375
0.00022487437
0.00022072583
0.00021649988
0.0002122163
0.00020789282
0.00020354509
0.00019918663
0.00019482893
0.00019048148
0.00018615186
0.00018184576
0.00017756693
0.00017331721
0.00016909648
0.00016490285
0.00016073279
0.00015658126
0.00015244177
0.0001483066
0.00014416698
0.00014001392
0.00013583802
0.0001316293
0.00012737778
0.00012307391
0.00011870917
0.00011427596
0.00010976572
0.00010516996
0.00010048531
9.5707334e-05
9.083101e-05
8.5857644e-05
8.0769568e-05
7.5625085e-05
7.0367428e-05
6.5036442e-05
5.965477e-05
5.4250133e-05
4.8835694e-05
4.3467118e-05
3.8236147e-05
3.3229556e-05
2.8558759e-05
2.4396323e-05
2.0837284e-05
1.8077871e-05
1.6253285e-05
1.5385927e-05
1.547469e-05
1.6467179e-05
1.8220052e-05
2.0535941e-05
2.3226637e-05
2.614856e-05
2.9208675e-05
3.234886e-05
3.5529671e-05
3.8722934e-05
4.1908995e-05
4.5074213e-05
4.8208821e-05
5.130571e-05
5.43597e-05
5.7366982e-05
6.0324748e-05
6.3230941e-05
6.6084063e-05
6.8883074e-05
7.1627203e-05
7.4316272e-05
7.6949017e-05
7.9530186e-05
8.2038863e-05
8.4571359e-05
8.6694021e-05
9.03985e-05
0.00026783676
0.00026764376
0.00026744209
0.00026723357
0.00026701681
0.00026678715
0.00026653524
0.00026624579
0.00026589725
0.0002654628
0.00026491222
0.00026421455
0.00026334067
0.00026226548
0.00026096939
0.00025943906
0.00025766752
0.00025565375
0.000253402
0.00025092095
0.00024822277
0.00024532224
0.00024223598
0.00023898168
0.00023557754
0.0002320417
0.00022839184
0.00022464489
0.00022081672
0.00021692204
0.00021297423
0.00020898534
0.00020496596
0.00020092522
0.00019687072
0.00019280842
0.00018874263
0.00018467595
0.00018060937
0.00017654231
0.00017247267
0.0001683969
0.00016431006
0.0001602063
0.00015607896
0.00015192058
0.00014772313
0.00014347823
0.00013917764
0.00013481356
0.00013037783
0.00012586176
0.0001212585
0.00011656184
0.00011176492
0.00010686427
0.00010184654
9.6730959e-05
9.1499411e-05
8.6146212e-05
8.070174e-05
7.5157747e-05
6.9525802e-05
6.3823731e-05
5.8093655e-05
5.2365789e-05
4.6674928e-05
4.112753e-05
3.5801718e-05
3.0850248e-05
2.6435554e-05
2.2671839e-05
1.9802303e-05
1.7894155e-05
1.7014952e-05
1.7163028e-05
1.8277213e-05
2.0180815e-05
2.2664715e-05
2.5537697e-05
2.8656807e-05
3.1927798e-05
3.5288951e-05
3.8697463e-05
4.2123148e-05
4.5544938e-05
4.8947912e-05
5.2321258e-05
5.5657068e-05
5.8949501e-05
6.219421e-05
6.5387965e-05
6.8528303e-05
7.1613711e-05
7.4641808e-05
7.761697e-05
8.0515171e-05
8.3444677e-05
8.5909784e-05
9.02132e-05
0.00027056449
0.00027036794
0.00027016315
0.00026995263
0.00026973648
0.00026951357
0.00026928088
0.00026903268
0.00026875959
0.0002684482
0.00026808118
0.00026763812
0.00026709678
0.00026643461
0.00026563023
0.00026466468
0.00026352235
0.00026219151
0.00026066452
0.00025893778
0.0002570114
0.00025488882
0.00025257631
0.00025008242
0.00024741749
0.00024459315
0.00024162183
0.00023851643
0.00023528994
0.00023195516
0.00022852451
0.00022500984
0.00022142228
0.00021777208
0.00021406855
0.00021031986
0.00020653295
0.00020271345
0.00019886563
0.00019499237
0.00019109514
0.00018717402
0.0001832277
0.00017925362
0.00017524818
0.00017120677
0.00016712391
0.00016299333
0.00015880833
0.00015456207
0.00015024739
0.00014585652
0.000141382
0.00013681685
0.00013215369
0.00012738683
0.00012250546
0.00011751183
0.00011239843
0.00010715657
0.00010179203
9.6301796e-05
9.0685682e-05
8.4948871e-05
7.9102777e-05
7.3171219e-05
6.7159175e-05
6.111162e-05
5.5079805e-05
4.9090411e-05
4.3256424e-05
3.7666774e-05
3.2510776e-05
2.792854e-05
2.4095439e-05
2.1230222e-05
1.9385771e-05
1.864206e-05
1.9010166e-05
2.0369487e-05
2.2519688e-05
2.5242369e-05
2.8348698e-05
3.1701514e-05
3.5209032e-05
3.880899e-05
4.24578e-05
4.6124881e-05
4.9788672e-05
5.3433666e-05
5.7048545e-05
6.0624965e-05
6.4156658e-05
6.7639225e-05
7.1067999e-05
7.4446129e-05
7.774571e-05
8.1086937e-05
8.390889e-05
8.8841037e-05
0.00027350286
0.00027330326
0.00027309566
0.00027288279
0.00027266513
0.00027244251
0.00027221413
0.00027197814
0.00027173104
0.00027146712
0.00027117797
0.00027085247
0.00027047693
0.00027003573
0.00026951208
0.00026888891
0.00026814984
0.00026727987
0.00026626609
0.00026509803
0.00026376795
0.00026227085
0.00026060441
0.00025876882
0.00025676647
0.00025460169
0.0002522804
0.00024980979
0.00024719799
0.00024445384
0.00024158659
0.00023860568
0.0002355206
0.00023234061
0.00022907468
0.00022573122
0.00022231797
0.00021884187
0.00021530892
0.00021172408
0.00020809124
0.00020441311
0.00020069118
0.00019692574
0.00019311597
0.00018925998
0.00018535487
0.00018139679
0.0001773811
0.00017330265
0.00016915575
0.00016493406
0.00016063094
0.0001562397
0.00015175329
0.00014716533
0.00014246684
0.00013765361
0.0001327196
0.00012765632
0.00012246071
0.00011712869
0.00011165713
0.00010604218
0.00010027562
9.4390723e-05
8.8361852e-05
8.2215603e-05
7.597639e-05
6.9654275e-05
6.3295606e-05
5.6951897e-05
5.069757e-05
4.4614108e-05
3.883129e-05
3.3543363e-05
2.889991e-05
2.5148097e-05
2.239949e-05
2.0779397e-05
2.0360837e-05
2.1095648e-05
2.2816049e-05
2.5299392e-05
2.8323818e-05
3.1709835e-05
3.5330325e-05
3.9098674e-05
4.2954805e-05
4.6856565e-05
5.0774269e-05
5.4686708e-05
5.8578437e-05
6.2438389e-05
6.6256905e-05
7.0033973e-05
7.3736234e-05
7.7495245e-05
8.0681589e-05
8.6263761e-05
0.00027665441
0.00027645214
0.00027624203
0.00027602695
0.00027580742
0.0002755835
0.00027535504
0.00027512153
0.00027488186
0.00027463392
0.00027437421
0.0002740975
0.00027379664
0.00027346256
0.00027308448
0.00027265022
0.00027214679
0.00027156086
0.00027087944
0.00027009033
0.00026918257
0.00026814679
0.00026697543
0.00026566283
0.00026420525
0.00026260081
0.00026084937
0.00025895235
0.00025691254
0.00025473392
0.00025242145
0.00024998086
0.00024741847
0.00024474104
0.00024195553
0.00023906897
0.00023608827
0.00023302004
0.00022987049
0.00022664522
0.00022334916
0.00021998645
0.00021656029
0.00021307295
0.00020952569
0.00020591882
0.00020225165
0.00019852254
0.00019472895
0.0001908676
0.00018693453
0.00018292507
0.00017883393
0.00017465547
0.00017038352
0.000166012
0.00016153339
0.00015694157
0.00015223037
0.000147392
0.00014242035
0.00013730952
0.00013205397
0.000126648
0.0001210832
0.00011536746
0.00010948662
0.00010345484
9.7271454e-05
9.0943586e-05
8.4487198e-05
7.792546e-05
7.1293994e-05
6.463204e-05
5.8001522e-05
5.1505781e-05
4.5219821e-05
3.9330318e-05
3.3994469e-05
2.9449058e-05
2.587877e-05
2.3427929e-05
2.2231344e-05
2.230915e-05
2.3540995e-05
2.5718889e-05
2.8603484e-05
3.1979309e-05
3.5682602e-05
3.9598774e-05
4.3648389e-05
4.7775812e-05
5.1941848e-05
5.6118917e-05
6.0285558e-05
6.4433937e-05
6.8521698e-05
7.2689912e-05
7.6236957e-05
8.2476842e-05
0.00028002182
0.00027981717
0.00027960479
0.00027938766
0.00027916631
0.00027894082
0.00027871116
0.00027847724
0.00027823877
0.00027799509
0.00027774492
0.00027748612
0.00027721544
0.00027692832
0.00027661881
0.00027627955
0.00027590194
0.00027547634
0.00027499245
0.00027443961
0.00027380727
0.00027308525
0.00027226413
0.00027133551
0.00027029215
0.00026912814
0.00026783894
0.00026642139
0.00026487368
0.00026319525
0.00026138672
0.00025944976
0.00025738699
0.00025520179
0.0002528982
0.00025048077
0.00024795437
0.00024532406
0.00024259493
0.00023977194
0.00023685983
0.00023386291
0.00023078499
0.00022762921
0.00022439806
0.00022109321
0.00021771556
0.00021426515
0.00021074118
0.00020714208
0.00020346555
0.00019970851
0.00019586721
0.00019193733
0.00018791391
0.00018379172
0.00017956458
0.00017522638
0.00017077104
0.00016619152
0.000161481
0.00015663275
0.00015164013
0.00014649647
0.00014119287
0.00013572783
0.00013009268
0.0001242863
0.00011830541
0.00011214867
0.0001058206
9.9327251e-05
9.2683083e-05
8.5905355e-05
7.9019974e-05
7.2079044e-05
6.5122565e-05
5.8242295e-05
5.1540578e-05
4.5134903e-05
3.9208614e-05
3.3971827e-05
2.9656135e-05
2.6440559e-05
2.4507834e-05
2.3934326e-05
2.4654338e-05
2.6487773e-05
2.9191784e-05
3.2523915e-05
3.628595e-05
4.0333717e-05
4.4566241e-05
4.8913129e-05
5.3323173e-05
5.7768704e-05
6.2189808e-05
6.6731917e-05
7.0616273e-05
7.7498328e-05
0.00028360789
0.00028340106
0.0002831866
0.00028296757
0.00028274449
0.00028251743
0.00028228638
0.00028205131
0.00028181219
0.00028156884
0.00028132087
0.00028106751
0.00028080746
0.0002805387
0.00028025834
0.00027996248
0.0002796462
0.0002793035
0.00027892744
0.00027851027
0.00027804365
0.00027751889
0.00027692723
0.00027626006
0.00027550919
0.00027466703
0.00027372676
0.00027268246
0.00027152919
0.00027026303
0.0002688811
0.00026738154
0.00026576346
0.0002640269
0.00026217273
0.00026020257
0.00025811864
0.00025592372
0.00025362092
0.00025121364
0.0002487054
0.0002460997
0.00024339988
0.00024060903
0.00023772984
0.00023476454
0.00023171478
0.00022858162
0.00022536541
0.00022206584
0.00021868191
0.00021521193
0.0002116535
0.00020800361
0.00020425858
0.00020041425
0.00019646569
0.00019240759
0.00018823437
0.00018393984
0.00017951746
0.0001749605
0.00017026206
0.00016541519
0.00016041129
0.00015524478
0.00014990769
0.00014439415
0.0001386983
0.00013281536
0.0001267406
0.00012047219
0.0001140145
0.00010737133
0.00010055046
9.3574445e-05
8.6462703e-05
7.9256184e-05
7.2011871e-05
6.4791473e-05
5.769298e-05
5.0851394e-05
4.4412782e-05
3.858226e-05
3.359624e-05
2.9687709e-05
2.7075822e-05
2.5883352e-05
2.6098258e-05
2.757524e-05
3.0078216e-05
3.3346661e-05
3.7152157e-05
4.1321724e-05
4.5730196e-05
5.0299289e-05
5.4929903e-05
5.9757889e-05
6.3919112e-05
7.1385338e-05
0.00028741551
0.00028720667
0.00028699026
0.00028676943
0.00028654471
0.00028631614
0.00028608369
0.00028584734
0.00028560709
0.00028536292
0.00028511472
0.00028486227
0.00028460508
0.00028434238
0.0002840729
0.00028379482
0.00028350563
0.00028320204
0.00028287995
0.00028253443
0.00028215983
0.0002817498
0.00028129748
0.00028079567
0.00028023696
0.00027961398
0.00027891951
0.0002781467
0.00027728918
0.00027634117
0.00027529759
0.00027415412
0.00027290723
0.00027155422
0.00027009317
0.00026852295
0.00026684316
0.00026505404
0.00026315642
0.00026115163
0.00025904138
0.00025682765
0.00025451259
0.00025209841
0.00024958721
0.00024698096
0.00024428131
0.00024148959
0.00023860664
0.00023563284
0.000232568
0.00022941137
0.0002261616
0.00022281674
0.00021937422
0.00021583092
0.00021218305
0.0002084263
0.00020455588
0.00020056648
0.00019645227
0.00019220703
0.00018782415
0.00018329685
0.00017861717
0.00017377808
0.00016877166
0.00016359038
0.00015822669
0.00015267347
0.00014692332
0.00014097086
0.00013481083
0.00012844078
0.00012186098
0.00011507646
0.00010809368
0.00010092778
9.3605832e-05
8.6158846e-05
7.863384e-05
7.1103896e-05
6.3652165e-05
5.6397835e-05
4.9499274e-05
4.3145168e-05
3.7574341e-05
3.3052757e-05
2.9827571e-05
2.8066632e-05
2.7807079e-05
2.8940059e-05
3.1242279e-05
3.4442804e-05
3.8286139e-05
4.2581261e-05
4.7140556e-05
5.2054382e-05
5.6357344e-05
6.4266296e-05
0.00029144767
0.00029123692
0.00029101867
0.00029079611
0.00029056981
0.00029033977
0.00029010595
0.00028986831
0.00028962686
0.00028938157
0.00028913244
0.0002888794