/*--------------------------------*- C++ -*----------------------------------*\
  =========                 |
  \\      /  F ield         | OpenFOAM: The Open Source CFD Toolbox
   \\    /   O peration     | Website:  https://openfoam.org
    \\  /    A nd           | Version:  12
     \\/     M anipulation  |
\*---------------------------------------------------------------------------*/
FoamFile
{
    format      ascii;
    class       volScalarField;
    location    "1600";
    object      p;
}
// * * * * * * * * * * * * * * * * * * * * * * * * * * * * * * * * * * * * * //

dimensions      [0 2 -2 0 0 0 0];

internalField   nonuniform List<scalar> 
7480
(
0.0087644178
0.0080255108
0.0069043329
0.0063279595
0.0060155904
0.0057313811
0.0054634953
0.0052349407
0.0050360383
0.004856583
0.0046899615
0.0045340068
0.0043890341
0.0042498233
0.0041166262
0.003987883
0.0038634325
0.003745959
0.0036365177
0.0035345731
0.0034408467
0.0033561453
0.0032812435
0.0032169388
0.003163615
0.0031202078
0.0030865975
0.0030611255
0.0030394567
0.0030184756
0.0029956407
0.0029698541
0.0029410338
0.0029110505
0.0028807776
0.0028492002
0.0028163176
0.0027819482
0.0027462596
0.0027102587
0.0026741311
0.0026374127
0.0026003241
0.002563139
0.0025263814
0.0024898783
0.0024531372
0.0024161712
0.0023795268
0.0023432315
0.0023067128
0.0022699912
0.0022334367
0.0021970472
0.0021603952
0.002123538
0.0020867111
0.0020498347
0.0020126106
0.0019752275
0.0019377257
0.0018998872
0.0018617528
0.001823395
0.0017846823
0.0017455935
0.0017061952
0.0016663739
0.0016261303
0.0015854896
0.0015443559
0.0015027523
0.0014606496
0.0014180266
0.0013748781
0.0013311541
0.00128686
0.001241973
0.0011964805
0.001150372
0.0011036385
0.0010562745
0.0010082789
0.00095965596
0.00091041854
0.00086058677
0.00081020199
0.00075930687
0.00070801515
0.00065637421
0.00060474826
0.000552968
0.00050252174
0.00045148252
0.00040715596
0.00035660256
0.00033839668
0.00025661138
0.00056006522
-0.00046642189
0.0082849203
0.007621716
0.0067897338
0.0063274528
0.0060663122
0.0058141344
0.0055640688
0.0053410314
0.0051438123
0.0049609181
0.0047889285
0.004626699
0.0044755619
0.0043305541
0.0041921468
0.0040592941
0.0039315575
0.0038099438
0.0036957731
0.0035897058
0.0034921271
0.003403535
0.0033246394
0.0032561047
0.0031979708
0.0031489861
0.0031093947
0.0030782866
0.0030518397
0.0030272566
0.0030022506
0.0029756297
0.0029469202
0.0029175912
0.0028880686
0.0028569696
0.0028242303
0.0027897693
0.0027538947
0.0027177065
0.0026814004
0.002644503
0.00260723
0.0025698416
0.0025328648
0.0024961324
0.0024591606
0.0024219672
0.002385099
0.0023485804
0.0023118395
0.0022749017
0.002238139
0.0022015482
0.0021647003
0.0021276548
0.0020906477
0.0020535981
0.0020162075
0.0019786661
0.0019410125
0.0019030285
0.0018647553
0.001826265
0.0017874256
0.0017482158
0.0017087021
0.0016687705
0.0016284217
0.0015876806
0.001546451
0.001504756
0.0014625661
0.0014198599
0.0013766321
0.0013328323
0.001288466
0.00124351
0.0011979517
0.0011517805
0.0011049871
0.001057566
0.0010095158
0.00096084079
0.00091155367
0.00086167446
0.0008112444
0.00076030607
0.00070897314
0.00065729287
0.00060562954
0.00055381357
0.00050333385
0.00045226224
0.00040790727
0.00035732519
0.00033908063
0.00025739978
0.00056090572
-0.0004657642
0.008000859
0.0075298397
0.0068533778
0.0063763253
0.0060727625
0.00579365
0.0055261474
0.0052908097
0.0050861047
0.004899672
0.0047274119
0.0045677631
0.0044192162
0.0042791784
0.004146266
0.0040196067
0.0038986504
0.0037836832
0.0036761792
0.0035772532
0.0034871077
0.0034060556
0.0033345817
0.0032730956
0.0032215377
0.003178812
0.0031433018
0.0031132794
0.0030862616
0.0030595022
0.0030310943
0.0030002723
0.0029668121
0.0029327782
0.0028993405
0.0028654456
0.0028309669
0.0027956703
0.0027596196
0.0027236497
0.0026876312
0.0026508623
0.0026135299
0.00257596
0.002538762
0.002501803
0.0024646143
0.0024272204
0.0023901645
0.0023534604
0.0023165353
0.002279423
0.0022424954
0.0022057452
0.0021687396
0.0021315415
0.002094388
0.0020571962
0.0020196665
0.0019819919
0.0019442096
0.0019061008
0.0018677078
0.0018291023
0.0017901515
0.0017508347
0.0017112181
0.0016711872
0.0016307429
0.0015899102
0.0015485923
0.0015068127
0.0014645413
0.0014217571
0.0013784542
0.0013345824
0.001290147
0.0012451247
0.0011995028
0.0011532706
0.0011064187
0.0010589414
0.0010108373
0.00096211065
0.000912774
0.00086284729
0.00081237171
0.00076138974
0.00071001501
0.00065829468
0.00060659312
0.00055474039
0.00050422617
0.0004531206
0.00040873638
0.00035812106
0.00033985867
0.00025826083
0.00056179331
-0.00046511634
0.0077537337
0.0073644004
0.0067718532
0.0063191151
0.0060242349
0.0057646195
0.0055168953
0.0052976338
0.0051047268
0.0049271803
0.0047609821
0.0046056319
0.0044578605
0.0043186137
0.0041851266
0.0040570493
0.0039340373
0.0038163953
0.0037056663
0.0036029715
0.0035085685
0.0034228895
0.0033465771
0.0032803269
0.0032245657
0.0031789076
0.0031412149
0.0031099518
0.003083736
0.0030595103
0.0030348872
0.0030085711
0.0029801511
0.0029497581
0.0029176322
0.0028838258
0.0028482391
0.0028108385
0.0027720512
0.0027333735
0.002695211
0.0026570459
0.0026189635
0.002581145
0.0025440148
0.0025071894
0.002470033
0.0024325542
0.0023953555
0.0023584808
0.0023213729
0.0022840879
0.0022469967
0.0022100837
0.002172915
0.0021355615
0.0020982607
0.0020609262
0.0020232556
0.0019854463
0.0019475343
0.0019092991
0.0018707847
0.0018320625
0.0017929983
0.001753572
0.0017138502
0.0016737172
0.0016331747
0.0015922475
0.0015508381
0.0015089706
0.0014666146
0.0014237489
0.0013803678
0.0013364206
0.0012919128
0.0012468209
0.0012011321
0.0011548356
0.001107922
0.0010603855
0.0010122246
0.00096344333
0.00091405431
0.00086407735
0.00081355356
0.00076252536
0.00071110632
0.00065934348
0.00060760128
0.00055570945
0.00050515828
0.00045401646
0.00040959993
0.00035894828
0.0003406695
0.00025901689
0.00056266964
-0.00046453506
0.0075275836
0.0071918244
0.0066891054
0.0062866875
0.0060064555
0.0057568397
0.0055144479
0.0052965641
0.0051020063
0.0049222844
0.0047539075
0.0045964295
0.0044475026
0.0043076714
0.0041742311
0.0040467884
0.0039250072
0.0038090938
0.0037003191
0.0035996336
0.0035073316
0.0034238381
0.0033496699
0.0032853295
0.003231043
0.0031861945
0.0031485538
0.0031166243
0.0030889531
0.0030625599
0.0030354173
0.0030068395
0.0029772061
0.002946158
0.0029141434
0.0028820242
0.0028492239
0.0028153509
0.0027802805
0.002744079
0.0027068477
0.0026687072
0.0026297355
0.0025903531
0.0025515458
0.0025133457
0.0024752775
0.0024372917
0.0023999345
0.0023630802
0.0023259813
0.0022886462
0.0022514644
0.002214434
0.0021771314
0.0021396475
0.0021022194
0.0020647555
0.0020269536
0.0019890191
0.0019509854
0.0019126301
0.0018739995
0.0018351648
0.0017959904
0.0017564572
0.001716632
0.0016763979
0.0016357576
0.0015947356
0.001553234
0.0015112775
0.0014688352
0.001425886
0.0013824243
0.0013383991
0.001293816
0.0012486515
0.0012028926
0.0011565286
0.0011095499
0.0010619507
0.0010137294
0.00096489003
0.00091544508
0.00086541433
0.00081483882
0.00076376088
0.00071229404
0.00066048526
0.00060869898
0.0005567647
0.000506173
0.00045499166
0.00041053843
0.00035984693
0.00034154442
0.00025980023
0.00056357595
-0.00046384961
0.0073268353
0.0070395573
0.0066124272
0.0062500367
0.0059784405
0.0057345295
0.0054993538
0.005286458
0.0050952577
0.0049186657
0.0047532821
0.0045984732
0.0044521633
0.0043142463
0.0041825627
0.0040566283
0.0039361833
0.0038214173
0.0037134244
0.0036130976
0.0035208309
0.0034371244
0.003362454
0.0032972447
0.0032416707
0.0031952004
0.003155969
0.0031225268
0.0030934623
0.0030660904
0.003038492
0.00300993
0.0029803296
0.0029490686
0.0029165771
0.002883542
0.0028494357
0.0028143495
0.0027785804
0.0027419939
0.0027051344
0.0026685429
0.0026319673
0.002595272
0.0025583296
0.002520956
0.0024830807
0.0024445713
0.0024062656
0.0023684761
0.0023306441
0.0022928156
0.0022554074
0.0022183239
0.0021809971
0.0021434705
0.0021059792
0.0020684337
0.0020305378
0.0019925115
0.0019543831
0.0019159284
0.0018771997
0.0018382685
0.0017989977
0.0017593696
0.0017194517
0.0016791258
0.0016383958
0.0015972862
0.0015556985
0.0015136581
0.0014711338
0.0014281048
0.0013845653
0.0013404643
0.0012958077
0.0012505717
0.0012047435
0.0011583122
0.0011112683
0.001063606
0.0010153238
0.00096642536
0.00091692339
0.00086683755
0.00081620885
0.00076507958
0.00071356324
0.00066170669
0.00060987434
0.00055789561
0.00050726102
0.00045603802
0.00041154462
0.00036081055
0.0003424783
0.00026064313
0.00056449046
-0.00046300912
0.0071464793
0.0069024832
0.0065377258
0.006208965
0.0059470657
0.0057105052
0.0054837763
0.005276637
0.005089135
0.0049153553
0.0047522988
0.0045992223
0.0044543383
0.0043173352
0.0041865468
0.0040614348
0.0039418131
0.0038278686
0.0037205583
0.0036207425
0.0035288499
0.0034453482
0.003370683
0.0033052532
0.0032491659
0.003201976
0.0031620398
0.0031278246
0.0030979011
0.0030698168
0.0030416892
0.0030126529
0.0029825501
0.0029509224
0.0029181912
0.0028849657
0.0028508469
0.0028159054
0.0027802022
0.0027435174
0.0027063756
0.0026692203
0.0026319852
0.0025947823
0.002557425
0.0025202274
0.0024834546
0.0024468308
0.0024101729
0.0023732942
0.0023360145
0.002298178
0.0022603389
0.0022227153
0.0021848981
0.0021470076
0.0021093299
0.0020717184
0.0020337859
0.0019957234
0.0019575468
0.0019190316
0.0018802394
0.0018412422
0.0018018999
0.0017621981
0.0017222063
0.0016818048
0.0016409995
0.0015998152
0.0015581526
0.0015160385
0.0014734411
0.0014303401
0.0013867298
0.001342559
0.0012978341
0.001252531
0.0012066373
0.001160142
0.0011130357
0.0010653125
0.0010169709
0.00096801482
0.00091845679
0.00086831653
0.00081763502
0.00076645453
0.00071488853
0.00066298389
0.00061110488
0.00055908098
0.00050840229
0.0004571366
0.00041260047
0.00036182195
0.00034345558
0.00026152555
0.00056537664
-0.00046200231
0.0069818146
0.0067745341
0.0064629853
0.0061656202
0.0059153277
0.0056868556
0.0054681348
0.0052664213
0.0050823571
0.0049111984
0.0047502862
0.0045988718
0.0044554396
0.00431956
0.0041898744
0.0040658179
0.0039472409
0.0038343226
0.0037278973
0.0036287713
0.0035373838
0.0034541807
0.0033795938
0.0033139905
0.0032574519
0.0032095457
0.0031687567
0.0031335847
0.0031026207
0.0030736293
0.0030448008
0.0030152143
0.0029846959
0.0029528414
0.0029199719
0.0028866189
0.0028524328
0.002817415
0.0027816049
0.0027448717
0.0027077053
0.0026705202
0.0026332896
0.0025960333
0.0025585658
0.0025211909
0.0024840846
0.0024471742
0.0024100708
0.0023729098
0.0023361342
0.0022995078
0.0022628495
0.0022259801
0.0021887055
0.0021509617
0.0021131173
0.0020752056
0.0020369665
0.0019986768
0.0019603836
0.0019218144
0.0018829918
0.0018439647
0.0018045848
0.0017648411
0.0017248045
0.0016843525
0.0016434937
0.0016022536
0.0015605329
0.0015183598
0.0014757024
0.0014325411
0.0013888705
0.0013446392
0.0012998542
0.0012544915
0.0012085387
0.001161985
0.0011148211
0.0010670413
0.0010186441
0.00096963353
0.0009200221
0.00086982962
0.0008190971
0.00076786684
0.00071625228
0.00066430033
0.00061237512
0.00056030629
0.00050958318
0.0004582746
0.00041369379
0.0003628696
0.00034446516
0.00026243219
0.00056620508
-0.00046080873
0.0068304406
0.0066537186
0.0063875598
0.0061197622
0.0058824435
0.0056626484
0.0054518184
0.0052555852
0.0050750779
0.0049066385
0.0047479566
0.0045983129
0.0044564218
0.0043217771
0.00419325
0.0040702921
0.0039527788
0.0038408849
0.0037353406
0.0036368957
0.0035459967
0.0034630777
0.0033885543
0.0033227615
0.0032657559
0.0032171126
0.0031754477
0.0031393215
0.0031073626
0.0030774897
0.0030479616
0.003017855
0.0029869495
0.0029548457
0.0029217887
0.0028882521
0.0028539223
0.0028187805
0.0027828869
0.0027461454
0.0027089866
0.0026718027
0.002634571
0.0025972938
0.0025598326
0.0025224438
0.0024852864
0.0024482665
0.0024110387
0.0023737991
0.0023368829
0.0023001016
0.00226309
0.0022259319
0.0021889766
0.0021520527
0.0021150058
0.0020776555
0.00203984
0.0020016967
0.0019633451
0.0019246007
0.0018855926
0.0018464397
0.0018069946
0.0017672194
0.0017271612
0.0016866853
0.0016458001
0.0016045303
0.0015627749
0.0015205636
0.0014778645
0.0014346591
0.0013909425
0.0013466636
0.0013018299
0.0012564177
0.001210415
0.0011638111
0.0011165969
0.0010687669
0.0010203198
0.00097125963
0.00092159915
0.00087135822
0.00082057794
0.00076930067
0.00071763987
0.00066564253
0.00061367258
0.00056156001
0.00051079299
0.00045944208
0.00041481524
0.00036394482
0.00034549856
0.00026335415
0.00056694881
-0.0004593996
0.0066908115
0.006539258
0.0063114033
0.0060709757
0.0058475449
0.0056371348
0.0054344301
0.0052439747
0.0050673078
0.0049017734
0.0047454408
0.0045976568
0.0044573478
0.0043239829
0.0041966264
0.0040747712
0.0039583129
0.0038474241
0.0037427478
0.0036449793
0.0035545677
0.0034719355
0.003397479
0.0033315037
0.0032740439
0.0032246862
0.0031821696
0.0031451151
0.0031121862
0.0030814401
0.0030512122
0.0030205794
0.002989268
0.0029568924
0.0029236312
0.0028898974
0.002855421
0.0028201707
0.0027842075
0.0027474493
0.0027102789
0.0026730667
0.0026357975
0.0025984815
0.0025610083
0.0025236039
0.0024864233
0.002449377
0.002412161
0.0023749325
0.0023379674
0.0023010681
0.0022639372
0.0022267243
0.0021897031
0.0021526584
0.0021153253
0.0020778184
0.0020403554
0.0020027701
0.0019649166
0.0019266199
0.0018879089
0.0018488652
0.0018093708
0.0017694832
0.0017293241
0.0016887865
0.0016478721
0.0016065861
0.0015648156
0.0015225887
0.0014798703
0.0014366419
0.0013928983
0.0013485885
0.0013037213
0.0012582731
0.0012122324
0.001165589
0.0011183343
0.0010704627
0.0010219734
0.0009728706
0.00092316721
0.00087288326
0.00082205998
0.00077073988
0.00071903644
0.00066699683
0.0006149847
0.00056283058
0.00051202104
0.00046062921
0.00041595562
0.000365039
0.00034654757
0.00026428317
0.00056758019
-0.00045774235
0.0065614187
0.0064305927
0.0062348507
0.0060194031
0.0058103368
0.0056099103
0.005415613
0.0052312817
0.0050587964
0.0048964105
0.0047425931
0.004596792
0.0044581395
0.0043261246
0.0041999793
0.0040792516
0.0039638571
0.003853969
0.0037501582
0.0036530686
0.0035631476
0.0034808055
0.0034064195
0.003340268
0.0032823672
0.0032323169
0.0031889652
0.0031509954
0.0031171084
0.0030854913
0.0030545578
0.0030233857
0.0029916551
0.0029589933
0.002925519
0.0028915861
0.0028569617
0.0028216016
0.0027855616
0.0027487742
0.0027115826
0.0026743352
0.0026370292
0.0025996788
0.0025621891
0.0025247638
0.0024875499
0.0024504672
0.0024132321
0.0023759788
0.0023389739
0.0023020415
0.0022649218
0.0022277203
0.0021906475
0.0021534973
0.0021160751
0.0020785372
0.0020410499
0.0020032903
0.0019652019
0.0019269771
0.0018885985
0.0018499402
0.0018108209
0.0017712616
0.0017312941
0.0016907918
0.0016498275
0.0016084752
0.0015666571
0.0015244073
0.0014816778
0.0014384415
0.0013946895
0.0013503683
0.001305486
0.0012600186
0.0012139552
0.0011672861
0.0011200029
0.0010721009
0.0010235792
0.00097444269
0.00092470436
0.00087438455
0.00082352465
0.00077216738
0.00072042629
0.00066834877
0.00061629818
0.00056410577
0.00051325605
0.00046182559
0.00041710522
0.0003661431
0.00034760358
0.00026521009
0.00056807073
-0.00045580074
0.0064409471
0.006327267
0.0061583719
0.0059654836
0.0057708455
0.005580779
0.0053950989
0.0052172121
0.0050492639
0.0048903087
0.0047392185
0.0045955695
0.004458693
0.0043281327
0.0042032691
0.0040837152
0.0039694106
0.0038605317
0.0037575909
0.0036611859
0.0035717592
0.0034897092
0.0034153951
0.0033490714
0.0032907399
0.0032400141
0.0031958399
0.0031569654
0.0031221327
0.0030896492
0.0030580051
0.0030262831
0.002994124
0.0029611631
0.0029274654
0.0028933285
0.0028585497
0.0028230739
0.0027869514
0.0027501288
0.0027129132
0.00267563
0.0026382873
0.0026009009
0.0025633899
0.0025259384
0.0024886835
0.0024515548
0.0024142934
0.0023770175
0.0023399764
0.0023030126
0.0022658794
0.0022286519
0.0021915336
0.0021543547
0.0021169437
0.0020794081
0.0020418527
0.0020040045
0.0019658775
0.0019276506
0.0018891766
0.0018503242
0.001811172
0.0017717923
0.0017320906
0.0016918966
0.0016512393
0.0016100991
0.0015683582
0.0015260974
0.0014833296
0.0014400637
0.0013962977
0.001351971
0.0013070865
0.0012616158
0.0012155464
0.0011688675
0.0011215709
0.0010736518
0.0010251101
0.00097595082
0.00092618748
0.00087584072
0.00082495224
0.000773565
0.00072179268
0.00066968297
0.00061759887
0.00056537255
0.00051448603
0.00046302015
0.00041825372
0.0003672475
0.0003486575
0.00026612486
0.00056837975
-0.00045353459
0.0063282979
0.0062288757
0.0060824058
0.0059097238
0.0057292515
0.0055497111
0.005372764
0.0052015812
0.0050385003
0.0048832622
0.004735131
0.0045938288
0.0044588776
0.0043299
0.0042064114
0.0040880973
0.003974925
0.0038670778
0.0037650222
0.0036693143
0.0035803907
0.0034986389
0.0034244011
0.0033579113
0.0032991599
0.0032477758
0.0032027935
0.003163027
0.0031272626
0.0030939187
0.0030615607
0.00302928
0.0029966831
0.00296341
0.0029294778
0.0028951307
0.0028601906
0.002824594
0.0027883849
0.002751522
0.002714279
0.0026769583
0.0026395771
0.0026021526
0.0025646175
0.0025271378
0.0024898406
0.0024526644
0.0024153745
0.0023780737
0.0023409907
0.0023039833
0.0022668195
0.0022295652
0.0021924139
0.002155211
0.0021177893
0.0020802287
0.002042629
0.0020047663
0.001966652
0.0019283993
0.001889857
0.0018509564
0.0018118104
0.0017723611
0.0017325012
0.0016922678
0.0016517014
0.0016107376
0.001569265
0.0015272787
0.0014847053
0.0014415253
0.0013977691
0.0013534242
0.001308525
0.0012630491
0.0012169802
0.0011703031
0.0011230069
0.0010750853
0.0010265375
0.00097736851
0.00092759207
0.00087722917
0.00082632185
0.00077491343
0.00072311777
0.00067098295
0.00061887158
0.00056661692
0.00051569805
0.00046420099
0.00041939001
0.00036834181
0.00034969954
0.00026701722
0.00056846741
-0.00045090209
0.0062225416
0.0061350361
0.0060073077
0.0058526096
0.0056858065
0.0055167869
0.0053485996
0.0051843069
0.005026376
0.0048751206
0.0047301768
0.0045914229
0.0044585602
0.004331307
0.0042093031
0.0040923104
0.0039803283
0.0038735497
0.003772406
0.0036774179
0.0035890143
0.0035075732
0.0034334218
0.0033667762
0.0033076193
0.0032555965
0.003209823
0.0031691794
0.0031324985
0.003098302
0.0030652283
0.0030323811
0.0029993377
0.0029657398
0.002931562
0.0028969985
0.0028618906
0.0028261682
0.0027898684
0.0027529594
0.0027156847
0.0026783242
0.0026409024
0.0026034384
0.0025658771
0.0025283675
0.0024910274
0.0024538034
0.002416483
0.0023791548
0.0023420273
0.0023049731
0.0022677764
0.0022304944
0.002193305
0.0021560652
0.002118615
0.0020810263
0.0020433978
0.0020055222
0.0019673967
0.0019291156
0.0018905471
0.0018516436
0.0018124907
0.0017729988
0.001733098
0.0016928716
0.0016522298
0.0016111327
0.0015696318
0.0015277001
0.0014852706
0.001442326
0.0013988084
0.0013546277
0.0013098032
0.0012643434
0.0012182705
0.0011715903
0.001124296
0.0010763792
0.0010278361
0.00097866978
0.00092889298
0.00087852617
0.00082761138
0.00077619218
0.00072438259
0.00067223115
0.00062010005
0.00056782384
0.0005168782
0.00046535522
0.00042050209
0.00036941473
0.00035071911
0.00026787508
0.0005682953
-0.00044785416
0.0061228852
0.006045387
0.005933347
0.0057945775
0.0056407853
0.005482143
0.0053226654
0.0051653784
0.0050128261
0.0048657881
0.0047242448
0.0045882343
0.0044576262
0.0043322441
0.0042118437
0.0040962648
0.0039855419
0.0038798808
0.0037796866
0.0036854497
0.0035975914
0.0035164812
0.0034424327
0.0033756474
0.0033161039
0.0032634652
0.0032169209
0.0031754177
0.0031378375
0.0031027979
0.0030690086
0.0030355887
0.0030020906
0.0029681562
0.0029337224
0.0028989362
0.0028636542
0.002827801
0.0027914059
0.0027544452
0.0027171344
0.0026797315
0.0026422673
0.0026047624
0.0025671725
0.0025296312
0.0024922474
0.002454975
0.0024176221
0.0023802644
0.0023430917
0.00230599
0.0022687593
0.0022314474
0.0021942167
0.0021569359
0.0021194544
0.0020818362
0.0020441732
0.0020062703
0.0019681188
0.0019298099
0.0018912244
0.0018523115
0.0018131425
0.0017736336
0.0017337226
0.0016934835
0.0016528179
0.0016117024
0.0015701859
0.0015281695
0.001485652
0.001442675
0.0013991977
0.001355169
0.0013105552
0.0012652902
0.0012193462
0.001172726
0.0011254501
0.0010775379
0.0010289992
0.0009798397
0.00093007037
0.00087970991
0.00082879888
0.00077738012
0.00072556722
0.00067340899
0.00062126699
0.00056897725
0.00051801154
0.00046646894
0.00042157696
0.000370454
0.00035170474
0.00026868469
0.00056782357
-0.0004443353
0.00602865
0.0059595919
0.0058607185
0.0057360059
0.0055944603
0.005445941
0.0052950574
0.0051448284
0.0049978311
0.004855212
0.0047172616
0.0045841779
0.0044559863
0.0043326207
0.0042139454
0.0040998777
0.0039904901
0.0038860037
0.0037868047
0.0036933583
0.003606078
0.0035253257
0.0034514032
0.0033845002
0.0033245938
0.0032713662
0.0032240752
0.0031817333
0.0031432732
0.0031074024
0.0030728997
0.0030389024
0.0030049428
0.0029706614
0.0029359615
0.0029009466
0.0028654846
0.0028294955
0.0027930006
0.0027559824
0.0027186311
0.0026811833
0.0026436748
0.0026061274
0.0025685065
0.0025309317
0.0024935033
0.0024561818
0.0024187944
0.0023814054
0.0023441869
0.0023070371
0.0022697707
0.002232427
0.0021951536
0.002157831
0.0021203172
0.0020826675
0.0020449661
0.0020070315
0.0019688516
0.0019305119
0.0018919007
0.0018529651
0.0018137713
0.0017742445
0.0017343231
0.0016940699
0.0016533999
0.0016122792
0.0015707434
0.0015287104
0.0014861951
0.0014431717
0.0013996027
0.0013555128
0.0013108822
0.001265686
0.0012198913
0.0011734525
0.0011263315
0.0010785168
0.001030024
0.00098088242
0.00093112257
0.00088077106
0.00082986942
0.00077845928
0.00072665271
0.0006744977
0.00062235447
0.00057006025
0.00051908227
0.00046752735
0.00042260073
0.00037144636
0.0003526441
0.00026943194
0.00056700873
-0.00044028944
0.0059392543
0.0058773416
0.005789555
0.0056772162
0.0055470914
0.005408352
0.0052658904
0.0051227154
0.0049814007
0.004843369
0.0047091827
0.0045791945
0.0044535737
0.004332365
0.0042155353
0.0041030778
0.0039951053
0.0038918557
0.0037937032
0.0037010921
0.0036144284
0.0035340667
0.0034602994
0.0033933063
0.0033330658
0.0032792802
0.0032312705
0.0031881142
0.0031487963
0.0031121087
0.0030768973
0.0030423199
0.0030078931
0.0029732554
0.0029382803
0.0029030309
0.0028673832
0.0028312533
0.0027946543
0.0027575732
0.0027201771
0.0026826816
0.0026451268
0.0026075354
0.0025698811
0.0025322711
0.0024947972
0.0024574259
0.0024200024
0.0023825804
0.0023453153
0.0023081164
0.0022708128
0.0022334356
0.0021961187
0.0021587533
0.0021212058
0.0020835229
0.0020457816
0.0020078141
0.0019696048
0.0019312319
0.0018925908
0.0018536287
0.001814407
0.0017748559
0.0017349141
0.0016946394
0.0016539535
0.0016128207
0.0015712734
0.00152924
0.0014867249
0.0014436886
0.0014001074
0.0013559931
0.0013113049
0.0012660468
0.00122021
0.001173783
0.0011267485
0.0010790774
0.0010307377
0.00098171487
0.00093202504
0.00088170727
0.0008308223
0.00077942391
0.00072762795
0.00067548266
0.00062334621
0.00057105622
0.00052007421
0.00046851497
0.00042355877
0.0003723777
0.00035352406
0.00027010123
0.00056579385
-0.00043565615
0.005854197
0.0057983539
0.0057199391
0.0056184762
0.0054989202
0.005369549
0.0052352887
0.005099114
0.0049635631
0.0048302551
0.0046999826
0.0045732436
0.0044503387
0.0043314211
0.0042165545
0.0041058057
0.0039993291
0.0038973815
0.0038003301
0.0037086028
0.0036225982
0.0035426648
0.0034690865
0.0034020359
0.0033414944
0.0032871856
0.0032384892
0.0031945464
0.0031543955
0.003116908
0.0030809948
0.0030458366
0.0030109385
0.0029759365
0.002940678
0.0029051888
0.0028693504
0.002833075
0.0027963678
0.0027592186
0.0027217733
0.0026842277
0.0026466247
0.0026089878
0.0025712979
0.0025336509
0.0024961307
0.0024587089
0.0024212475
0.0023837908
0.0023464784
0.0023092298
0.0022718874
0.0022344752
0.002197114
0.0021597048
0.002122122
0.0020844044
0.0020466225
0.0020086209
0.0019703808
0.0019319732
0.0018933005
0.0018543108
0.0018150596
0.001775481
0.0017355151
0.001695215
0.0016545067
0.0016133544
0.0015717892
0.0015297426
0.0014872144
0.0014441709
0.0014005905
0.001356474
0.0013117795
0.0012665048
0.0012206326
0.0011741559
0.0011270735
0.0010793837
0.0010310831
0.00098216154
0.0009326055
0.00088241127
0.00083161227
0.00078026181
0.00072849027
0.00067635969
0.0006242338
0.00057195317
0.00052097334
0.00046941696
0.00042443637
0.00037323331
0.00035433097
0.00027067548
0.00056412385
-0.00043037173
0.0057730445
0.0057223736
0.0056519149
0.0055600057
0.005450168
0.0053297032
0.0052033816
0.0050741089
0.0049443598
0.00481588
0.0046896492
0.0045662975
0.0044462439
0.0043297446
0.0042169546
0.0041080114
0.0040031116
0.0039025325
0.0038066391
0.0037158464
0.0036305464
0.0035510822
0.0034777306
0.0034106589
0.0033498536
0.0032950599
0.0032457123
0.003201014
0.0031600576
0.0031217898
0.0030851841
0.0030494467
0.0030140746
0.0029787017
0.0029431526
0.0029074189
0.002871385
0.0028349601
0.0027981407
0.0027609186
0.0027234201
0.002685822
0.002648169
0.0026104852
0.0025727577
0.002535072
0.0024975046
0.0024600319
0.0024225309
0.0023850379
0.0023476776
0.0023103785
0.0022729959
0.0022355473
0.0021981409
0.002160687
0.0021230675
0.0020853141
0.0020474906
0.0020094536
0.0019711813
0.0019327378
0.0018940326
0.001855014
0.0018157319
0.0017761243
0.0017361329
0.0016958056
0.0016550726
0.0016138981
0.0015723104
0.0015302437
0.0014876966
0.0014446383
0.0014010467
0.001356921
0.001312223
0.0012669466
0.0012210719
0.0011745869
0.0011274828
0.0010797561
0.0010314119
0.00098245963
0.00093291287
0.00088278352
0.00083209248
0.00078085847
0.0007291794
0.00067710658
0.00062501085
0.00057274696
0.0005217729
0.00047022318
0.00042522131
0.00037399933
0.00035505143
0.00027113653
0.00056194439
-0.00042437188
0.0056954195
0.0056491702
0.0055854963
0.0055019813
0.0054010345
0.0052889801
0.0051703005
0.005047792
0.0049238418
0.0048002632
0.0046781799
0.0045583377
0.0044412602
0.0043272994
0.0042166951
0.0041096521
0.0040064094
0.0039072662
0.0038125888
0.0037227831
0.0036382352
0.0035592836
0.0034861994
0.0034191464
0.0033581174
0.0033028801
0.0032529199
0.0032075004
0.0031657685
0.0031267422
0.003089456
0.0030531428
0.0030172959
0.002981547
0.0029457009
0.0029097187
0.0028734853
0.0028369069
0.0027999719
0.0027626723
0.0027251168
0.0026874641
0.0026497595
0.0026120275
0.0025742605
0.0025365347
0.0024989194
0.0024613953
0.0024238533
0.0023863225
0.0023489135
0.0023115634
0.0022741393
0.0022366529
0.0021992006
0.002161701
0.0021240435
0.0020862531
0.0020483872
0.0020103137
0.0019720079
0.0019335277
0.0018947887
0.00185574
0.0018164258
0.0017767882
0.0017367699
0.0016964143
0.0016556553
0.0016144569
0.0015728448
0.001530756
0.0014881877
0.0014451101
0.0014015006
0.0013573588
0.0013126481
0.0012673621
0.0012214816
0.0011749939
0.0011278882
0.0010801574
0.0010318005
0.00098282207
0.00093323907
0.00088307652
0.00083237796
0.00078118176
0.00072958518
0.00067761508
0.00062560965
0.00057340741
0.00052246243
0.00047092849
0.00042590765
0.00037466627
0.00035567484
0.00027146678
0.00055920342
-0.00041759566
0.0056209928
0.0055785359
0.0055206753
0.0054445427
0.0053516971
0.0052475385
0.0051361763
0.0050202601
0.0049020685
0.004783433
0.0046655802
0.0045493529
0.0044353649
0.0043240547
0.0042157404
0.0041106899
0.004009184
0.0039115444
0.0038181419
0.0037293767
0.0036456299
0.0035672363
0.0034944626
0.0034274706
0.0033662609
0.0033106235
0.0032600921
0.0032139882
0.0031715132
0.0031317528
0.0030938002
0.003056917
0.0030205959
0.0029844673
0.0029483192
0.002912085
0.0028756485
0.0028389132
0.0028018593
0.0027644782
0.0027268623
0.0026891529
0.0026513954
0.002613614
0.0025758059
0.0025380387
0.002500375
0.0024627991
0.0024252149
0.0023876448
0.0023501867
0.002312785
0.0022753182
0.0022377927
0.0022002938
0.0021627477
0.002125051
0.0020872225
0.0020493134
0.0020112021
0.0019728618
0.001934344
0.0018955702
0.0018564902
0.001817143
0.0017774742
0.001737428
0.0016970429
0.0016562567
0.0016150334
0.0015733956
0.0015312834
0.0014886923
0.0014455934
0.0014019641
0.0013578031
0.0013130751
0.0012677734
0.0012218796
0.0011753812
0.0011282684
0.0010805339
0.001032175
0.00098319403
0.0009336031
0.00088342234
0.00083269483
0.00078146707
0.0007298541
0.00067790278
0.00062595696
0.00057384043
0.00052297359
0.00047149778
0.00042648173
0.00037522696
0.00035619587
0.00027165243
0.00055585915
-0.00040999262
0.0055494752
0.0055102838
0.0054574278
0.0053877976
0.0053023114
0.0052055276
0.0051011381
0.0049916133
0.0048791056
0.0047654249
0.0046518627
0.004539338
0.0044285406
0.0043199846
0.0042140591
0.0041110904
0.0040113995
0.0039153313
0.0038232636
0.0037355931
0.0036526978
0.0035749093
0.0035024911
0.0034356048
0.0033742594
0.0033182679
0.0032672089
0.00322046
0.0031772765
0.0031368086
0.0030982061
0.0030607606
0.0030239676
0.0029874572
0.002951003
0.0029145139
0.0028778715
0.0028409763
0.0028038007
0.0027663343
0.0027286548
0.0026908869
0.0026530752
0.0026152437
0.0025773931
0.0025395833
0.0025018707
0.002464243
0.0024266154
0.0023890048
0.0023514971
0.0023140435
0.0022765328
0.002238967
0.0022014208
0.0021638275
0.0021260905
0.0020882229
0.0020502699
0.0020121198
0.0019737438
0.0019351875
0.001896378
0.0018572656
0.0018178845
0.0017781836
0.0017381084
0.001697693
0.0016568785
0.001615629
0.0015739647
0.0015318279
0.0014892129
0.0014460915
0.0014024409
0.0013582592
0.0013135121
0.0012681922
0.0012222815
0.0011757678
0.0011286415
0.0010808959
0.0010325287
0.00098354275
0.00093394918
0.00088376617
0.00083303309
0.00078179192
0.00073015536
0.0006781748
0.00062620709
0.00057409512
0.00052326435
0.0004718538
0.00042687971
0.00037564381
0.00035659959
0.0002716767
0.00055189798
-0.00040153634
0.0054806122
0.0054442451
0.0053957183
0.0053318268
0.005253012
0.0051630867
0.0050653112
0.0049619533
0.0048550245
0.0047462815
0.0046370466
0.0045282942
0.0044207747
0.0043150671
0.0042116229
0.0041108215
0.0040130224
0.0039185932
0.0038279204
0.0037414002
0.0036594078
0.0035822729
0.0035102572
0.0034435231
0.0033820893
0.0033257914
0.0032742507
0.0032268983
0.003183043
0.0031418962
0.0031026626
0.0030646645
0.0030274038
0.0029905107
0.0029537476
0.0029170015
0.0028801507
0.002843093
0.0028057931
0.0027682381
0.0027304921
0.0026926641
0.0026547973
0.002616915
0.0025790207
0.0025411674