/*--------------------------------*- C++ -*----------------------------------*\
  =========                 |
  \\      /  F ield         | OpenFOAM: The Open Source CFD Toolbox
   \\    /   O peration     | Website:  https://openfoam.org
    \\  /    A nd           | Version:  12
     \\/     M anipulation  |
\*---------------------------------------------------------------------------*/
FoamFile
{
    format      ascii;
    class       surfaceScalarField;
    location    "1600";
    object      phi;
}
// * * * * * * * * * * * * * * * * * * * * * * * * * * * * * * * * * * * * * //

dimensions      [0 3 -1 0 0 0 0];

internalField   nonuniform List<scalar> 
14782
(
0.00078669978
7.0641804e-06
-0.00079376397
0.00077719046
9.5093218e-06
0.00076675604
1.0434425e-05
0.00075606252
1.0693515e-05
0.00074522772
1.0834807e-05
0.0007343504
1.0877312e-05
0.00072350668
1.0843721e-05
0.00071274505
1.076163e-05
0.00070209151
1.0653538e-05
0.00069157055
1.0520968e-05
0.0006812018
1.0368743e-05
0.00067100313
1.0198672e-05
0.00066099828
1.0004852e-05
0.0006512084
9.7898818e-06
0.00064166554
9.542853e-06
0.00063241221
9.2533289e-06
0.00062351011
8.9021019e-06
0.00061502885
8.4812596e-06
0.00060702773
8.001124e-06
0.00059955752
7.4702058e-06
0.00059266273
6.8947903e-06
0.00058637802
6.2847165e-06
0.00058072748
5.6505335e-06
0.0005757202
5.0072787e-06
0.00057133926
4.3809489e-06
0.00056753528
3.8039771e-06
0.00056423445
3.3008244e-06
0.00056134427
2.8901798e-06
0.00055876064
2.5836326e-06
0.00055638619
2.3744526e-06
0.00055414255
2.2436424e-06
0.00055197643
2.1661192e-06
0.0005498555
2.12093e-06
0.00054776396
2.0915338e-06
0.00054569372
2.0702422e-06
0.00054363566
2.0580647e-06
0.00054158007
2.0555885e-06
0.00053951761
2.0624561e-06
0.00053744271
2.0748987e-06
0.00053535704
2.0856764e-06
0.00053326761
2.0894262e-06
0.00053118276
2.0848476e-06
0.00052910963
2.0731362e-06
0.00052705201
2.0576143e-06
0.00052501227
2.0397471e-06
0.00052299224
2.0200281e-06
0.00052099357
1.9986658e-06
0.00051901762
1.9759529e-06
0.00051706582
1.951796e-06
0.00051513931
1.9265151e-06
0.00051323806
1.9012431e-06
0.00051136176
1.8763096e-06
0.00050951038
1.8513717e-06
0.00050768418
1.8262053e-06
0.00050588271
1.8014659e-06
0.00050410537
1.777339e-06
0.00050235178
1.7535902e-06
0.00050062163
1.7301555e-06
0.00049891416
1.7074663e-06
0.00049722892
1.6852427e-06
0.00049556548
1.6634359e-06
0.00049392317
1.6423086e-06
0.00049230141
1.6217597e-06
0.00049069981
1.6016013e-06
0.00048911786
1.5819521e-06
0.00048755504
1.5628233e-06
0.00048601097
1.5440666e-06
0.00048448514
1.5258276e-06
0.00048297707
1.5080736e-06
0.00048148635
1.4907184e-06
0.00048001248
1.4738708e-06
0.00047855504
1.4574456e-06
0.00047711357
1.4414646e-06
0.00047568766
1.425913e-06
0.00047427691
1.4107449e-06
0.00047288091
1.3959997e-06
0.00047149928
1.3816321e-06
0.00047013163
1.3676483e-06
0.0004687776
1.3540323e-06
0.00046743683
1.3407738e-06
0.00046610896
1.3278632e-06
0.00046479367
1.3152916e-06
0.00046349062
1.3030519e-06
0.00046219948
1.2911388e-06
0.00046091993
1.2795483e-06
0.00045965165
1.268282e-06
0.00045839431
1.2573387e-06
0.00045714757
1.2467406e-06
0.00045591109
1.2364795e-06
0.00045468443
1.2266601e-06
0.00045346725
1.2171849e-06
0.0004522587
1.2085469e-06
0.00045105868
1.2000191e-06
0.0004498645
1.1941795e-06
0.00044867825
1.1862533e-06
0.00044748746
1.1907872e-06
0.00044630803
1.1794286e-06
0.00044505235
1.2556805e-06
0.00044400139
1.0509587e-06
1.6028683e-06
0.00082511819
6.7852361e-06
-0.00082483925
0.00082535495
9.2725666e-06
0.00082527284
1.0516527e-05
0.00082485705
1.1109309e-05
0.00082405249
1.163937e-05
0.000822819
1.2110802e-05
0.00082114778
1.2514939e-05
0.00081903064
1.2878775e-05
0.00081646368
1.3220494e-05
0.00081344507
1.3539573e-05
0.00080997687
1.3836942e-05
0.00080605924
1.4116308e-05
0.00080169792
1.4366174e-05
0.00079689259
1.4595207e-05
0.00079164587
1.4789577e-05
0.0007859554
1.4943796e-05
0.00077982515
1.503235e-05
0.00077329305
1.5013359e-05
0.00076641583
1.4878352e-05
0.00075924886
1.4637171e-05
0.00075185844
1.4285206e-05
0.00074432589
1.3817269e-05
0.00073674307
1.3233356e-05
0.00072920994
1.2540407e-05
0.00072183719
1.1753701e-05
0.00071474795
1.0893218e-05
0.00070806371
9.985059e-06
0.00070186891
9.0849829e-06
0.0006961932
8.2593446e-06
0.00069101664
7.5510131e-06
0.00068628276
6.9775148e-06
0.00068191422
6.5346622e-06
0.00067782877
6.2063847e-06
0.00067395851
5.9617921e-06
0.00067025651
5.7722435e-06
0.00066669315
5.6214183e-06
0.00066325254
5.4962065e-06
0.00065992468
5.3903116e-06
0.00065670008
5.2994991e-06
0.00065356849
5.2172611e-06
0.00065051843
5.1394929e-06
0.00064753782
5.0654551e-06
0.00064461668
4.9942742e-06
0.00064174829
4.9260103e-06
0.00063892997
4.8580603e-06
0.00063616127
4.7887357e-06
0.00063344159
4.7183439e-06
0.00063076929
4.6482536e-06
0.00062814258
4.5785062e-06
0.0006255602
4.5088898e-06
0.00062302102
4.4404286e-06
0.00062052404
4.3732855e-06
0.0006180685
4.3069072e-06
0.00061565371
4.2409972e-06
0.00061327852
4.1766572e-06
0.00061094174
4.1141154e-06
0.00060864247
4.0528683e-06
0.00060637991
3.992711e-06
0.00060415288
3.9344983e-06
0.00060196029
3.8778355e-06
0.00059980128
3.822445e-06
0.00059767488
3.7687009e-06
0.00059558017
3.716471e-06
0.00059351633
3.6654444e-06
0.00059148247
3.6158103e-06
0.00058947771
3.5675855e-06
0.00058750128
3.5204969e-06
0.00058555234
3.4747638e-06
0.00058363009
3.4303241e-06
0.0005817338
3.3870124e-06
0.00057986268
3.3449935e-06
0.000578016
3.3041193e-06
0.00057619306
3.2644105e-06
0.00057439314
3.2258282e-06
0.00057261561
3.1882813e-06
0.00057085978
3.1518212e-06
0.00056912505
3.1163643e-06
0.00056741079
3.0819061e-06
0.00056571642
3.048409e-06
0.00056404135
3.0158442e-06
0.00056238503
2.9841847e-06
0.00056074691
2.953405e-06
0.00055912648
2.923484e-06
0.00055752321
2.8944045e-06
0.00055593661
2.866153e-06
0.00055436617
2.8387255e-06
0.00055281138
2.8121208e-06
0.00055127176
2.7863666e-06
0.00054974676
2.7614791e-06
0.00054823583
2.737587e-06
0.00054673832
2.7146979e-06
0.00054525353
2.6933375e-06
0.00054378035
2.6731997e-06
0.00054231772
2.6568096e-06
0.00054086296
2.6410127e-06
0.00053941314
2.6406061e-06
0.00053795741
2.6351597e-06
0.00053650494
2.7081511e-06
0.00053493656
2.619332e-06
3.1077951e-06
0.0008528979
6.4915391e-06
-0.0008526042
0.00085333741
8.8330538e-06
0.00085371347
1.0140474e-05
0.00085400645
1.0816322e-05
0.0008542555
1.1390321e-05
0.00085445242
1.1913884e-05
0.00085460537
1.2361988e-05
0.00085471765
1.27665e-05
0.00085478867
1.3149469e-05
0.00085481281
1.3515434e-05
0.00085478445
1.3865299e-05
0.00085469503
1.4205731e-05
0.00085453428
1.4526923e-05
0.00085428823
1.4841265e-05
0.00085393863
1.5139175e-05
0.00085346251
1.5419909e-05
0.00085281787
1.5676996e-05
0.00085192912
1.5902111e-05
0.00085071484
1.6092631e-05
0.00084910307
1.6248935e-05
0.0008470183
1.6369977e-05
0.00084438008
1.6455491e-05
0.00084110773
1.650571e-05
0.00083712606
1.6522077e-05
0.00083237446
1.6505295e-05
0.00082680965
1.6458026e-05
0.00082046489
1.6329824e-05
0.00081346612
1.608375e-05
0.00080599252
1.5732946e-05
0.00079827314
1.5270393e-05
0.0007905521
1.4698552e-05
0.0007830541
1.4032663e-05
0.00077596122
1.3299273e-05
0.00076938998
1.2533032e-05
0.00076336624
1.1795978e-05
0.00075784076
1.1146899e-05
0.00075272892
1.0608045e-05
0.00074793891
1.0180321e-05
0.00074339349
9.8449221e-06
0.0007390415
9.5692484e-06
0.00073485397
9.3270239e-06
0.00073081472
9.1047049e-06
0.00072691278
8.896213e-06
0.00072313725
8.7015449e-06
0.00071947687
8.5184381e-06
0.00071592021
8.3454002e-06
0.00071245639
8.1821629e-06
0.00070907625
8.0283862e-06
0.00070577355
7.8812079e-06
0.00070254442
7.7380229e-06
0.00069938554
7.5993061e-06
0.00069629347
7.4653619e-06
0.00069326484
7.3355337e-06
0.00069029682
7.2090122e-06
0.00068738681
7.0866718e-06
0.00068453252
6.9684017e-06
0.00068173202
6.8533697e-06
0.00067898352
6.7412087e-06
0.00067628501
6.6330095e-06
0.0006736347
6.5281508e-06
0.00067103104
6.4261004e-06
0.00066847245
6.3272909e-06
0.0006659574
6.2315221e-06
0.00066348453
6.1383181e-06
0.00066105246
6.0478785e-06
0.00065865985
5.9601927e-06
0.0006563055
5.8748467e-06
0.00065398818
5.7920882e-06
0.0006517067
5.7118024e-06
0.00064945998
5.6337313e-06
0.00064724691
5.5580621e-06
0.00064506645
5.4845775e-06
0.00064291759
5.4132781e-06
0.00064079933
5.3440882e-06
0.00063871074
5.2768627e-06
0.00063665092
5.2116479e-06
0.00063461897
5.1483157e-06
0.00063261403
5.0868383e-06
0.0006306353
5.0271481e-06
0.00062868195
4.9691887e-06
0.00062675323
4.9129072e-06
0.00062484838
4.8582538e-06
0.00062296668
4.8051858e-06
0.00062110742
4.7536666e-06
0.0006192699
4.7036672e-06
0.00061745346
4.6551708e-06
0.0006156574
4.608173e-06
0.00061388107
4.5626978e-06
0.00061212376
4.5187938e-06
0.00061038476
4.4765857e-06
0.00060866321
4.4362507e-06
0.00060695834
4.3981992e-06
0.00060526862
4.3629227e-06
0.00060359337
4.3320561e-06
0.00060192825
4.306139e-06
0.00060027328
4.2955731e-06
0.000598608
4.3004375e-06
0.00059697694
4.3392184e-06
0.0005951018
4.4944637e-06
4.6778533e-06
0.00088144016
6.2627084e-06
-0.00088121133
0.00088185534
8.4178748e-06
0.00088224472
9.7510868e-06
0.00088254942
1.0511621e-05
0.00088280903
1.1130713e-05
0.00088303208
1.1690836e-05
0.00088322468
1.2169391e-05
0.00088339484
1.259634e-05
0.00088354858
1.2995728e-05
0.00088368782
1.3376188e-05
0.00088381405
1.373907e-05
0.0008839302
1.4089583e-05
0.00088403465
1.4422469e-05
0.00088412943
1.4746491e-05
0.00088421319
1.5055412e-05
0.00088428513
1.5347968e-05
0.00088434298
1.5619149e-05
0.00088438264
1.5862448e-05
0.00088439882
1.607645e-05
0.00088438512
1.6262639e-05
0.00088433279
1.6422304e-05
0.00088422998
1.6558306e-05
0.00088406095
1.667474e-05
0.00088380442
1.6778608e-05
0.00088342896
1.6880748e-05
0.00088288986
1.6997132e-05
0.00088208483
1.7134852e-05
0.00088086925
1.7299324e-05
0.00087910378
1.7498416e-05
0.00087664719
1.772699e-05
0.00087337399
1.7971753e-05
0.00086919726
1.8209387e-05
0.00086408312
1.8413415e-05
0.00085811214
1.8504007e-05
0.00085148961
1.8418509e-05
0.00084447372
1.8162797e-05
0.00083733893
1.774283e-05
0.00083033556
1.7183687e-05
0.00082365602
1.6524462e-05
0.00081740474
1.5820534e-05
0.00081159017
1.5141591e-05
0.00080615857
1.4536304e-05
0.00080103339
1.4021395e-05
0.00079614537
1.3589561e-05
0.00079144863
1.3215181e-05
0.00078691834
1.2875686e-05
0.00078254139
1.2559113e-05
0.0007783079
1.2261876e-05
0.00077420781
1.1981301e-05
0.00077023031
1.1715521e-05
0.00076636433
1.1465289e-05
0.00076260006
1.1229632e-05
0.00075893
1.1005598e-05
0.00075534869
1.0790317e-05
0.0007518514
1.0583967e-05
0.0007484336
1.0386201e-05
0.00074509114
1.0195823e-05
0.0007418204
1.0011955e-05
0.00073861797
9.8354318e-06
0.000735481
9.6651287e-06
0.00073240685
9.5002473e-06
0.00072939292
9.3412255e-06
0.00072643677
9.1876685e-06
0.00072353627
9.0388161e-06
0.00072068935
8.8947973e-06
0.00071789403
8.7555167e-06
0.00071514851
8.6203681e-06
0.00071245102
8.4895698e-06
0.00070979991
8.3629125e-06
0.00070719363
8.2400122e-06
0.00070463065
8.1210416e-06
0.00070210954
8.0056892e-06
0.00069962891
7.8939101e-06
0.00069718743
7.7855711e-06
0.00069478383
7.6804561e-06
0.0006924169
7.5785868e-06
0.00069008543
7.4797772e-06
0.00068778831
7.3839615e-06
0.00068552443
7.2910289e-06
0.00068329273
7.200884e-06
0.0006810922
7.1134374e-06
0.00067892185
7.0286044e-06
0.00067678073
6.9463114e-06
0.0006746679
6.8664934e-06
0.00067258247
6.7890976e-06
0.00067052356
6.7140863e-06
0.00066849028
6.6414459e-06
0.00066648179
6.5711887e-06
0.00066449719
6.503395e-06
0.00066253561
6.4381707e-06
0.00066059597
6.3758878e-06
0.00065867739
6.3167764e-06
0.00065677802
6.262291e-06
0.00065489727
6.2128105e-06
0.0006530299
6.1735097e-06
0.00065117728
6.1481964e-06
0.00064931365
6.1640671e-06
0.0006475042
6.1486628e-06
0.00064536823
6.630434e-06
6.3554074e-06
0.00091095122
6.0818046e-06
-0.00091077031
0.00091131418
8.0549137e-06
0.00091168174
9.3835264e-06
0.00091198291
1.0210452e-05
0.00091224117
1.0872454e-05
0.00091247079
1.1461209e-05
0.00091267382
1.1966369e-05
0.00091285624
1.2413917e-05
0.0009130226
1.2829368e-05
0.00091317599
1.3222801e-05
0.00091331818
1.3596878e-05
0.00091345122
1.3956541e-05
0.00091357467
1.4299018e-05
0.00091369099
1.4630171e-05
0.00091380014
1.4946262e-05
0.0009139029
1.5245216e-05
0.00091399916
1.5522886e-05
0.00091408768
1.5773925e-05
0.00091416726
1.5996867e-05
0.00091423701
1.6192894e-05
0.00091429579
1.6363521e-05
0.00091434198
1.6512122e-05
0.00091437347
1.6643246e-05
0.00091438815
1.6763932e-05
0.00091438403
1.688486e-05
0.00091435995
1.702122e-05
0.00091431214
1.7182655e-05
0.00091423382
1.7377644e-05
0.00091411546
1.7616783e-05
0.00091394146
1.7900984e-05
0.0009136883
1.822491e-05
0.00091331767
1.8580026e-05
0.00091276943
1.8961655e-05
0.00091191632
1.9357116e-05
0.00091058033
1.9754501e-05
0.000908594
2.0149118e-05
0.00090580928
2.0527553e-05
0.00090212129
2.0871683e-05
0.0008975045
2.114125e-05
0.00089206649
2.1258539e-05
0.00088602837
2.1179711e-05
0.00087965396
2.0910714e-05
0.00087320646
2.0468901e-05
0.00086690395
1.9892066e-05
0.00086087876
1.9240369e-05
0.00085516823
1.8586214e-05
0.0008497471
1.7980245e-05
0.00084456515
1.7443823e-05
0.00083957783
1.6968626e-05
0.00083475735
1.6535999e-05
0.0008300891
1.6133537e-05
0.00082556437
1.5754365e-05
0.00082117518
1.5394785e-05
0.00081691265
1.5052857e-05
0.00081276711
1.4729499e-05
0.00080872979
1.4423522e-05
0.00080479367
1.4131942e-05
0.00080095325
1.3852379e-05
0.00079720348
1.35852e-05
0.00079353979
1.3328821e-05
0.00078995797
1.3082062e-05
0.0007864541
1.2845101e-05
0.00078302465
1.2617119e-05
0.0007796665
1.2396962e-05
0.00077637667
1.2184626e-05
0.00077315235
1.197984e-05
0.00076999101
1.1781709e-05
0.00076689023
1.1590351e-05
0.00076384773
1.1405409e-05
0.00076086142
1.1226322e-05
0.00075792926
1.1053201e-05
0.00075504935
1.0885603e-05
0.00075221985
1.0723405e-05
0.00074943904
1.0566386e-05
0.00074670526
1.0414236e-05
0.00074401692
1.0266928e-05
0.0007413725
1.0124198e-05
0.00073877053
9.9859245e-06
0.00073620963
9.8519375e-06
0.00073368842
9.7220875e-06
0.00073120562
9.5962352e-06
0.00072875998
9.4742491e-06
0.00072635028
9.3560129e-06
0.00072397535
9.2414228e-06
0.00072163405
9.1303919e-06
0.00071932529
9.022853e-06
0.00071704796
8.9187745e-06
0.000714801
8.8181491e-06
0.00071258331
8.7210845e-06
0.00071039382
8.627657e-06
0.00070823127
8.5384427e-06
0.00070609459
8.4534579e-06
0.00070398168
8.3752003e-06
0.00070189188
8.3026071e-06
0.00069981939
8.2460015e-06
0.00069776628
8.2013075e-06
0.0006957031
8.2272404e-06
0.00069371042
8.1413468e-06
0.00069132602
9.0148391e-06
8.1605419e-06
0.00094145658
5.9372449e-06
-0.00094131202
0.0009417721
7.7393967e-06
0.00094211491
9.0407123e-06
0.00094241183
9.9135266e-06
0.00094267082
1.0613464e-05
0.0009429038
1.1228238e-05
0.00094311237
1.1757791e-05
0.00094330055
1.222574e-05
0.00094347242
1.26575e-05
0.00094363113
1.3064092e-05
0.00094377871
1.3449298e-05
0.00094391731
1.3817937e-05
0.0009440473
1.4169029e-05
0.00094417056
1.4506913e-05
0.00094428747
1.4829348e-05
0.0009443986
1.5134092e-05
0.00094450389
1.5417592e-05
0.00094460257
1.5675249e-05
0.00094469387
1.5905564e-05
0.00094477705
1.6109718e-05
0.0009448512
1.6289363e-05
0.00094491582
1.6447508e-05
0.00094497042
1.6588641e-05
0.00094501448
1.671988e-05
0.00094504795
1.6851384e-05
0.00094507176
1.6997416e-05
0.00094508623
1.7168186e-05
0.00094509177
1.7372104e-05
0.00094508938
1.7619169e-05
0.00094507893
1.7911436e-05
0.00094505902
1.8244818e-05
0.00094502674
1.8612309e-05
0.0009449783
1.901009e-05
0.00094490552
1.94299e-05
0.00094479365
1.9866367e-05
0.00094462228
2.0320495e-05
0.00094436137
2.0788459e-05
0.00094396561
2.1267444e-05
0.00094335306
2.1753803e-05
0.00094237655
2.2235048e-05
0.00094085652
2.2699736e-05
0.0009386288
2.3138435e-05
0.00093556329
2.3534416e-05
0.00093160553
2.3849825e-05
0.0009268334
2.4012496e-05
0.00092143875
2.3980867e-05
0.00091566141
2.3757587e-05
0.00090974769
2.3357536e-05
0.00090389577
2.2820552e-05
0.0008982181
2.2213665e-05
0.00089274786
2.1603773e-05
0.00088747173
2.1030497e-05
0.00088236351
2.0503007e-05
0.00087740331
2.0013059e-05
0.00087258051
1.95523e-05
0.00086788963
1.91144e-05
0.00086332577
1.8695805e-05
0.00085888265
1.8295498e-05
0.00085455293
1.7914914e-05
0.00085032999
1.7551768e-05
0.00084620836
1.7203689e-05
0.00084218325
1.6870208e-05
0.00083825022
1.6550147e-05
0.00083440512
1.6242064e-05
0.00083064401
1.5945738e-05
0.00082696328
1.5660576e-05
0.00082335967
1.5385311e-05
0.0008198301
1.5119925e-05
0.00081637165
1.4863861e-05
0.00081298164
1.461633e-05
0.00080965751
1.4377334e-05
0.00080639685
1.4146262e-05
0.00080319737
1.3922882e-05
0.0008000569
1.3706855e-05
0.00079697339
1.3497749e-05
0.00079394485
1.3295465e-05
0.00079096941
1.3099643e-05
0.00078804525
1.2910084e-05
0.00078517064
1.2726542e-05
0.00078234393
1.25488e-05
0.00077956351
1.2376653e-05
0.00077682785
1.2209911e-05
0.00077413546
1.2048403e-05
0.00077148491
1.1891975e-05
0.0007688748
1.1740496e-05
0.0007663038
1.1593859e-05
0.00076377056
1.1452006e-05
0.00076127381
1.1314902e-05
0.00075881222
1.1182675e-05
0.00075638451
1.1055365e-05
0.0007539892
1.0933753e-05
0.00075162504
1.0817622e-05
0.00074928968
1.0710554e-05
0.00074698235
1.0609944e-05
0.00074469677
1.0531576e-05
0.00074243546
1.0462616e-05
0.00074016597
1.0496738e-05
0.00073798191
1.0325402e-05
0.00073534871
1.1648043e-05
1.0107988e-05
0.00097299071
5.8189365e-06
-0.0009728724
0.00097326581
7.4642977e-06
0.00097358197
8.7245574e-06
0.00097387034
9.6251556e-06
0.0009741283
1.0355505e-05
0.00097436326
1.0993274e-05
0.00097457606
1.1544996e-05
0.00097476916
1.2032635e-05
0.00097494615
1.2480511e-05
0.00097510994
1.2900304e-05
0.00097526255
1.3296683e-05
0.00097540596
1.3674524e-05
0.00097554089
1.4034104e-05
0.00097566888
1.4378926e-05
0.00097579054
1.4707688e-05
0.00097590634
1.501829e-05
0.00097601627
1.5307659e-05
0.00097611969
1.5571836e-05
0.00097621591
1.5809344e-05
0.0009763044
1.6021226e-05
0.00097638457
1.6209189e-05
0.00097645593
1.6376147e-05
0.00097651805
1.6526524e-05
0.00097657069
1.6667237e-05
0.00097661394
1.6808138e-05
0.00097664885
1.6962507e-05
0.0009766766
1.7140428e-05
0.00097669841
1.7350294e-05
0.00097671615
1.7601431e-05
0.00097673112
1.7896472e-05
0.00097674383
1.8232102e-05
0.00097675414
1.8601998e-05
0.00097676181
1.9002422e-05
0.00097676551
1.94262e-05
0.00097676314
1.986874e-05
0.00097675234
2.0331297e-05
0.00097672943
2.0811364e-05
0.0009766897
2.1307179e-05
0.00097662627
2.1817228e-05
0.00097652555
2.2335768e-05
0.00097636564
2.2859647e-05
0.00097611531
2.3388769e-05
0.00097572809
2.3921629e-05
0.00097512164
2.4456283e-05
0.00097415286
2.4981273e-05
0.00097264883
2.5484894e-05
0.00097045209
2.5954333e-05
0.00096743788
2.6371743e-05
0.00096358642
2.6672014e-05
0.0009590072
2.6792885e-05
0.00095388685
2.6724119e-05
0.00094845311
2.646424e-05
0.00094291731
2.6038808e-05
0.00093742478
2.5505589e-05
0.00093204531
2.4931763e-05
0.00092679615
2.4363564e-05
0.00092167227
2.3819685e-05
0.00091666661
2.3301155e-05
0.00091177621
2.280532e-05
0.00090700059
2.2327385e-05
0.00090233833
2.1865951e-05
0.00089778582
2.1422718e-05
0.00089333855
2.0997414e-05
0.00088899233
2.0588278e-05
0.00088474337
2.0194706e-05
0.00088058803
1.9815917e-05
0.00087652283
1.9450505e-05
0.00087254434
1.9098418e-05
0.0008686493
1.8758896e-05
0.00086483472
1.8430916e-05
0.00086109765
1.8114399e-05
0.00085743534
1.780857e-05
0.00085384514
1.7513081e-05
0.00085032453
1.7227469e-05
0.00084687111
1.6951171e-05
0.00084348256
1.6684011e-05
0.00084015669
1.6425517e-05
0.00083689137
1.6175408e-05
0.00083368456
1.5933352e-05
0.0008305343
1.5699053e-05
0.00082743872
1.5472235e-05
0.00082439599
1.5252639e-05
0.00082140437
1.5040031e-05
0.00081846214
1.4834198e-05
0.00081556768
1.4634958e-05
0.00081271939
1.4442155e-05
0.00080991569
1.42557e-05
0.00080715507
1.4075521e-05
0.00080443598
1.3901764e-05
0.00080175693
1.3734422e-05
0.0007991162
1.357448e-05
0.00079651234
1.3421482e-05
0.00079394278
1.3280113e-05
0.00079140656
1.3146167e-05
0.00078889703
1.3041098e-05
0.00078641699
1.2942657e-05
0.00078393127
1.2982458e-05
0.00078154554
1.271113e-05
0.00077865673
1.4536859e-05
1.2210811e-05
0.0010055881
5.7201262e-06
-0.0010054893
0.0010058283
7.2241097e-06
0.0010061171
8.4357288e-06
0.0010063931
9.3491162e-06
0.0010066474
1.010127e-05
0.0010068827
1.0757983e-05
0.0010070984
1.1329293e-05
0.0010072956
1.1835363e-05
0.0010074773
1.229885e-05
0.0010076459
1.2731687e-05
0.0010078034
1.3139237e-05
0.0010079514
1.3526475e-05
0.0010080909
1.3894589e-05
0.0010082233
1.424659e-05
0.0010083491
1.4581827e-05
0.0010084689
1.4898472e-05
0.0010085827
1.5193874e-05
0.0010086899
1.5464641e-05
0.0010087899
1.5709375e-05
0.0010088821
1.5928977e-05
0.0010089662
1.6125152e-05
0.0010090416
1.630076e-05
0.0010091079
1.6460164e-05
0.0010091651
1.6610068e-05
0.0010092133
1.6759913e-05
0.0010092537
1.6922144e-05
0.0010092874
1.7106709e-05
0.0010093158
1.7321856e-05
0.0010093409
1.7576389e-05
0.0010093641
1.7873226e-05
0.0010093866
1.8209627e-05
0.0010094086
1.8579999e-05
0.0010094303
1.8980684e-05
0.0010094513
1.9405217e-05
0.0010094708
1.9849252e-05
0.0010094884
2.0313722e-05
0.0010095032
2.0796566e-05
0.0010095143
2.1296102e-05
0.0010095205
2.1810996e-05
0.0010095196
2.2336671e-05
0.0010095082
2.2871048e-05
0.0010094819
2.3415095e-05
0.0010094346
2.3968935e-05
0.0010093576
2.4533244e-05
0.0010092342
2.5104663e-05
0.0010090377
2.5681353e-05
0.0010087292
2.6262871e-05
0.0010082515
2.6849439e-05
0.0010074925
2.7430975e-05
0.0010062925
2.799291e-05
0.0010044934
2.8523207e-05
0.0010019532
2.900448e-05
0.00099861334
2.9378665e-05
0.00099453427
2.9584662e-05
0.00098986302
2.9603007e-05
0.00098480249
2.9424097e-05
0.00097955298
2.9069194e-05
0.00097426167
2.859247e-05
0.00096901054
2.8056447e-05
0.00096383288
2.7505043e-05
0.00095873887
2.6959964e-05
0.00095373311
2.6428477e-05
0.00094882059
2.5909935e-05
0.00094400539
2.5403481e-05
0.00093928878
2.4911315e-05
0.00093466979
2.4434907e-05
0.00093014666
2.3973634e-05
0.00092571735
2.352773e-05
0.00092137966
2.3096586e-05
0.00091713122
2.2679348e-05
0.00091296949
2.2276133e-05
0.00090889191
2.1886146e-05
0.00090489596
2.1509033e-05
0.00090097913
2.1144302e-05
0.00089713897
2.0791329e-05
0.00089337308
2.0449906e-05
0.0008896791
2.011949e-05
0.00088605477
1.979974e-05
0.00088249786
1.9490261e-05
0.00087900622
1.9190694e-05
0.00087557776
1.8900699e-05
0.00087221044
1.8619956e-05
0.0008689023
1.8348173e-05
0.00086565142
1.808508e-05
0.00086245593
1.7830443e-05
0.00085931403
1.7584061e-05
0.00085622392
1.7345808e-05
0.00085318386
1.7115577e-05
0.0008501921
1.6893526e-05
0.00084724692
1.6679603e-05
0.0008443464
1.6474998e-05
0.00084148887
1.6279009e-05
0.00083867155
1.6097433e-05
0.00083589328
1.5924441e-05
0.00083314707
1.5787306e-05
0.00083043591
1.5653823e-05
0.00082772206
1.5696303e-05
0.00082512279
1.5310402e-05
0.00082196777
1.7691876e-05
1.448171e-05
0.0010392822
5.6361778e-06
-0.0010391983
0.0010394921
7.0142044e-06
0.0010397546
8.173279e-06
0.001040016
9.0876828e-06
0.0010402639
9.8534154e-06
0.0010404974
1.0524494e-05
0.0010407143
1.111236e-05
0.0010409146
1.1635069e-05
0.0010411002
1.2113259e-05
0.0010412732
1.2558725e-05
0.0010414351
1.2977285e-05
0.0010415876
1.3373975e-05
0.0010417315
1.3750646e-05
0.0010418681
1.4110007e-05
0.0010419981
1.4451888e-05
0.0010421218
1.4774772e-05
0.0010422392
1.5076396e-05
0.00104235
1.535387e-05
0.0010424535
1.5605912e-05
0.0010425491
1.5833309e-05
0.0010426366
1.6037738e-05
0.0010427153
1.6222006e-05
0.0010427851
1.6390404e-05
0.0010428457
1.6549423e-05
0.0010428976
1.6708078e-05
0.0010429416
1.6878057e-05
0.0010429792
1.7069122e-05
0.0010430117
1.7289366e-05
0.001043041
1.7547105e-05
0.0010430687
1.7845486e-05
0.001043096
1.8182324e-05
0.0010431234
1.8552652e-05
0.0010431511
1.8952934e-05
0.001043179
1.9377341e-05
0.0010432066
1.9821694e-05
0.0010432338
2.0286532e-05
0.0010432603
2.0770072e-05
0.0010432857
2.1270625e-05
0.0010433099
2.178686e-05
0.0010433318
2.2314713e-05
0.0010433506
2.2852304e-05
0.001043365
2.3400681e-05
0.0010433737
2.396025e-05
0.0010433751
2.4531862e-05
0.0010433662
2.5113497e-05
0.0010433428
2.5704787e-05
0.0010432986
2.6307107e-05
0.0010432256
2.6922363e-05
0.0010431094
2.7547205e-05
0.0010429243
2.8177984e-05
0.0010426327
2.8814798e-05
0.0010421803
2.9456873e-05
0.0010414648
3.0094251e-05
0.0010403383
3.071111e-05
0.0010386473
3.1294022e-05
0.0010362535
3.1817928e-05
0.0010330974
3.2225264e-05
0.0010292268
3.2463068e-05
0.0010247742
3.2509064e-05
0.0010199262
3.2353048e-05
0.0010148644
3.2021717e-05
0.001009722
3.1570915e-05
0.001004576
3.1055942e-05
0.00099946372
3.0515739e-05
0.00099440394
2.9971092e-05
0.00098940976
2.9429086e-05
0.00098449156
2.8891832e-05
0.00097965595
2.8363343e-05
0.00097490619
2.7846346e-05
0.00097024363
2.7341911e-05
0.00096566854
2.6851227e-05
0.00096118053
2.6374156e-05
0.00095677861
2.591095e-05
0.00095246138
2.5461528e-05
0.00094822721
2.5025497e-05
0.00094407428
2.4602846e-05
0.00094000063
2.4193133e-05
0.00093600427
2.3796102e-05
0.00093208314
2.3411395e-05
0.00092823516
2.3038669e-05
0.00092445827
2.2677586e-05
0.00092075042
2.2327812e-05
0.00091710956
2.1989034e-05
0.00091353368
2.1660958e-05
0.0009100208
2.1343322e-05
0.00090656897
2.1035894e-05
0.00090317625
2.0738528e-05
0.00089984073
2.0451093e-05
0.00089656049
2.0173768e-05
0.00089333363
1.9906464e-05
0.00089015805
1.9650577e-05
0.00088703189
1.9405171e-05
0.00088395216
1.9177161e-05
0.00088091751
1.8959091e-05
0.00087792066
1.8784159e-05
0.00087496472
1.8609763e-05
0.00087200949
1.8651532e-05
0.00086918364
1.813625e-05
0.00086574942
2.1126096e-05
1.6933528e-05
0.0010741058
5.5633824e-06
-0.001074033
0.0010742903
6.8297721e-06
0.0010745286
7.9349466e-06
0.0010747747
8.8415639e-06
0.0010750143
9.6138259e-06
0.001075244
1.0294773e-05
0.0010754605
1.089593e-05
0.0010756624
1.1433095e-05
0.001075851
1.1924701e-05
0.0010760276
1.2382089e-05
0.0010761936
1.281129e-05
0.0010763503
1.3217316e-05
0.0010764984
1.3602482e-05
0.0010766391
1.3969298e-05
0.0010767731
1.4317954e-05
0.0010769006
1.4647246e-05
0.0010770217
1.4955263e-05
0.001077136
1.5239567e-05
0.0010772429
1.5499011e-05
0.001077342
1.5734293e-05
0.0010774326
1.5947057e-05
0.0010775146
1.614005e-05
0.0010775875
1.6317477e-05
0.0010776513
1.6485613e-05
0.0010777063
1.6653059e-05
0.0010777536
1.6830802e-05
0.0010777944
1.7028369e-05
0.00107783
1.7253692e-05
0.0010778625
1.7514655e-05
0.0010778934
1.7814576e-05
0.0010779239
1.8151798e-05
0.0010779546
1.8521934e-05
0.001077986
1.8921612e-05
0.0010780177
1.9345556e-05
0.0010780497
1.9789774e-05
0.0010780817
2.025446e-05
0.0010781138
2.0738e-05
0.0010781457
2.1238697e-05
0.0010781774
2.1755203e-05
0.0010782083
2.2283831e-05
0.0010782378
2.2822755e-05
0.0010782656
2.3372913e-05
0.0010782911
2.3934789e-05
0.0010783137
2.4509185e-05
0.0010783327
2.5094508e-05
0.0010783468
2.5690692e-05
0.0010783545
2.6299435e-05
0.001078354
2.6922805e-05
0.0010783427
2.7558596e-05
0.0010783156
2.8205023e-05
0.0010782661
2.8864274e-05
0.0010781853
2.9537715e-05
0.0010780572
3.0222313e-05
0.0010778545
3.0913858e-05
0.0010775369
3.1611649e-05
0.0010770421
3.2312684e-05
0.0010762626
3.3004743e-05
0.0010750549
3.3670784e-05
0.0010732682
3.4295744e-05
0.0010707845
3.4836742e-05
0.0010675686
3.5237615e-05
0.0010636796
3.5459904e-05
0.0010592583
3.5477313e-05
0.0010544812
3.529286e-05
0.0010495059
3.4946333e-05
0.0010444428
3.4492207e-05
0.0010393558
3.3978852e-05
0.0010342804
3.3438691e-05
0.0010292401
3.2886691e-05
0.0010242521
3.2329913e-05
0.0010193285
3.1774846e-05
0.0010144769
3.1225758e-05
0.0010097019
3.0685899e-05
0.0010050064
3.0156986e-05
0.0010003921
2.963988e-05
0.00099585932
2.9135593e-05
0.00099140807
2.8644387e-05
0.00098703765
2.8166523e-05
0.00098274703
2.7702013e-05
0.00097853491
2.7250789e-05
0.00097439978
2.6812714e-05
0.00097033999
2.6387596e-05
0.00096635381
2.5975222e-05
0.0009624394
2.5575368e-05
0.0009585949
2.518782e-05
0.00095481841
2.4812379e-05
0.00095110801
2.4448928e-05
0.00094746176
2.4097349e-05
0.00094387765
2.3757874e-05
0.00094035371
2.3430405e-05
0.00093688772
2.3116563e-05
0.00093347769
2.2815205e-05
0.00093012048
2.2534367e-05
0.00092681458
2.2264999e-05
0.00092355244
2.2046296e-05
0.00092033731
2.1824889e-05
0.00091712657
2.1862276e-05
0.00091406029
2.1202526e-05
0.00091033231
2.4854081e-05
1.9579433e-05
0.0011100933
5.4987839e-06
-0.0011100287
0.0011102567
6.666383e-06
0.0011104738
7.7179186e-06
0.001110705
8.610307e-06
0.0011109355
9.3833701e-06
0.0011111601
1.0070165e-05
0.0011113746
1.0681443e-05
0.0011115769
1.123073e-05
0.0011117674
1.1734219e-05
0.0011119469
1.2202578e-05
0.0011121164
1.2641843e-05
0.0011122768
1.3056912e-05
0.0011124289
1.3450396e-05
0.0011125735
1.382466e-05
0.0011127113
1.4180156e-05
0.0011128426
1.4515971e-05
0.0011129673
1.4830518e-05
0.0011130851
1.5121754e-05
0.0011131955
1.5388682e-05
0.0011132978
1.5631935e-05
0.0011133918
1.5853117e-05
0.0011134769
1.6054912e-05
0.001113553
1.6241427e-05
0.0011136198
1.6418717e-05
0.0011136779
1.659498e-05
0.0011137282
1.6780553e-05
0.0011137719
1.6984691e-05
0.0011138104
1.7215154e-05
0.0011138456
1.7479443e-05
0.0011138792
1.7781007e-05
0.0011139123
1.8118677e-05
0.0011139456
1.8488618e-05
0.0011139796
1.8887657e-05
0.0011140141
1.9311008e-05
0.001114049
1.9754885e-05
0.0011140843
2.0219191e-05
0.0011141198
2.0702427e-05
0.0011141556
2.1202897e-05
0.0011141916
2.1719242e-05
0.0011142273
2.2248087e-05
0.0011142625
2.2787646e-05
0.0011142967
2.3338705e-05
0.0011143297
2.3901747e-05
0.0011143614
2.4477497e-05
0.0011143913
2.5064614e-05
0.0011144189
2.5663101e-05
0.0011144437
2.627466e-05
0.0011144651
2.6901311e-05
0.0011144824
2.7541318e-05
0.0011144941
2.8193382e-05
0.0011144983
2.8860009e-05
0.0011144931
2.9542973e-05
0.0011144749
3.0240499e-05
0.0011144382
3.0950569e-05
0.001114375
3.1674871e-05
0.0011142738
3.2413807e-05
0.0011141147
3.3163868e-05
0.0011138647
3.3920815e-05
0.0011134767
3.4683677e-05
0.0011128699
3.5443565e-05
0.0011119227
3.6184794e-05
0.0011104913
3.6891312e-05
0.0011084382
3.753042e-05
0.0011056811