/*--------------------------------*- C++ -*----------------------------------*\
  =========                 |
  \\      /  F ield         | OpenFOAM: The Open Source CFD Toolbox
   \\    /   O peration     | Website:  https://openfoam.org
    \\  /    A nd           | Version:  12
     \\/     M anipulation  |
\*---------------------------------------------------------------------------*/
FoamFile
{
    format      ascii;
    class       volVectorField;
    location    "1600";
    object      wallShearStress;
}
// * * * * * * * * * * * * * * * * * * * * * * * * * * * * * * * * * * * * * //

dimensions      [0 2 -2 0 0 0 0];

internalField   uniform (0 0 0);

boundaryField
{
    bottom
    {
        type            calculated;
        value           nonuniform List<vector> 
112
(
(-0.0077595194 -3.5563131e-05 0)
(-0.0059341029 -2.2059331e-07 -1.4335361e-17)
(-0.0054667915 -7.5112256e-08 9.9620172e-18)
(-0.0051586814 -5.2372005e-08 -3.3473423e-18)
(-0.0049389718 -3.9264041e-08 0)
(-0.0047623431 -3.2225764e-08 0)
(-0.0046121168 -2.7385681e-08 0)
(-0.0044827712 -2.3474984e-08 0)
(-0.0043706373 -2.030267e-08 0)
(-0.0042722024 -1.7773803e-08 -2.21783e-18)
(-0.0041846844 -1.5730306e-08 0)
(-0.0041061188 -1.4028367e-08 -1.7445371e-18)
(-0.0040351528 -1.2590424e-08 1.5634224e-18)
(-0.0039705792 -1.1390486e-08 -1.4123898e-18)
(-0.0039112737 -1.0379647e-08 0)
(-0.0038564954 -9.5035363e-09 1.1754518e-18)
(-0.0038056702 -8.7431911e-09 0)
(-0.0037582447 -8.0810631e-09 -4.9861559e-19)
(-0.0037138032 -7.497159e-09 0)
(-0.0036719943 -6.9796912e-09 -8.5956549e-19)
(-0.0036325182 -6.5176592e-09 8.0190603e-19)
(-0.0035951301 -6.1034672e-09 0)
(-0.0035596045 -5.7302783e-09 0)
(-0.0035257634 -5.3910862e-09 0)
(-0.0034934519 -5.082665e-09 -6.2320455e-19)
(-0.0034625226 -4.8000552e-09 0)
(-0.0034328708 -4.5391472e-09 0)
(-0.003404392 -4.2998078e-09 0)
(-0.003376977 -4.079414e-09 0)
(-0.0033505463 -3.874788e-09 -4.7336817e-19)
(-0.0033250257 -3.6855112e-09 4.4994076e-19)
(-0.0033003358 -3.5104765e-09 0)
(-0.0032764107 -3.3470433e-09 0)
(-0.0032532017 -3.1937555e-09 0)
(-0.0032306588 -3.0507394e-09 3.7150592e-19)
(-0.0032087275 -2.9169448e-09 0)
(-0.0031873679 -2.7905946e-09 0)
(-0.0031665478 -2.6712709e-09 -3.2472719e-19)
(-0.0031462305 -2.5592269e-09 0)
(-0.0031263766 -2.4537074e-09 0)
(-0.0031069572 -2.3534668e-09 0)
(-0.0030879497 -2.2582488e-09 2.7391859e-19)
(-0.0030693269 -2.1682751e-09 -1.3143231e-19)
(-0.0030510595 -2.0831785e-09 2.524174e-19)
(-0.0030331238 -2.0020482e-09 0)
(-0.003015503 -1.9244098e-09 0)
(-0.00299818 -1.8505515e-09 -3.358357e-19)
(-0.0029811308 -1.7805654e-09 0)
(-0.0029643338 -1.7136613e-09 2.071256e-19)
(-0.0029477774 -1.6492994e-09 0)
(-0.0029314485 -1.5877122e-09 0)
(-0.0029153295 -1.5289976e-09 -9.2269972e-20)
(-0.0028994029 -1.4729106e-09 -8.8843291e-20)
(-0.002883654 -1.4189413e-09 0)
(-0.0028680742 -1.3668536e-09 -1.6473984e-19)
(-0.0028526526 -1.3168901e-09 0)
(-0.0028373733 -1.2691478e-09 0)
(-0.0028222212 -1.2232357e-09 0)
(-0.0028071877 -1.1787969e-09 0)
(-0.0027922648 -1.1358994e-09 0)
(-0.0027774408 -1.0946631e-09 0)
(-0.0027627028 -1.0550738e-09 0)
(-0.0027480376 -1.0167885e-09 0)
(-0.0027334399 -9.7957751e-10 0)
(-0.0027189017 -9.4361036e-10 -1.1321177e-19)
(-0.0027044113 -9.0897502e-10 0)
(-0.0026899563 -8.7552567e-10 -5.2474366e-20)
(-0.0026755276 -8.4302158e-10 0)
(-0.0026611188 -8.1142572e-10 -4.8588614e-20)
(-0.0026467211 -7.8087202e-10 9.3475203e-20)
(-0.0026323215 -7.5138898e-10 8.9905153e-20)
(-0.0026179082 -7.2276625e-10 -4.3220575e-20)
(-0.0026034741 -6.9485122e-10 0)
(-0.0025890117 -6.677519e-10 0)
(-0.0025745081 -6.4154734e-10 7.6621275e-20)
(-0.0025599503 -6.1608492e-10 -7.3545506e-20)
(-0.0025453299 -5.9121229e-10 0)
(-0.002530639 -5.6700283e-10 0)
(-0.0025158641 -5.4354746e-10 -6.4793894e-20)
(-0.0025009903 -5.2074164e-10 0)
(-0.0024860068 -4.9846538e-10 0)
(-0.0024709033 -4.7676744e-10 0)
(-0.0024556639 -4.5571811e-10 0)
(-0.0024402707 -4.3521041e-10 0)
(-0.0024247116 -4.1516048e-10 0)
(-0.0024089716 -3.9564024e-10 0)
(-0.0023930302 -3.7667553e-10 0)
(-0.0023768661 -3.5814113e-10 4.2497731e-20)
(-0.0023604654 -3.4015606e-10 -4.0341319e-20)
(-0.0023441647 -3.2317146e-10 0)
(-0.0023284769 -3.0742213e-10 0)
(-0.002313548 -2.9288727e-10 0)
(-0.0022993182 -2.7951251e-10 0)
(-0.0022857304 -2.6720216e-10 0)
(-0.0022727346 -2.5581295e-10 0)
(-0.0022602879 -2.4524177e-10 0)
(-0.0022483508 -2.3545079e-10 0)
(-0.0022368845 -2.2639502e-10 -2.6738546e-20)
(-0.0022258539 -2.1796829e-10 0)
(-0.0022152308 -2.1009321e-10 0)
(-0.002204988 -2.027609e-10 0)
(-0.0021950981 -1.9595044e-10 0)
(-0.0021855363 -1.8965395e-10 0)
(-0.0021762761 -1.8379717e-10 0)
(-0.0021672997 -1.7848047e-10 0)
(-0.0021585708 -1.7350248e-10 0)
(-0.0021500923 -1.6974118e-10 0)
(-0.0021417393 -1.6561912e-10 0)
(-0.0021336748 -1.6597951e-10 0)
(-0.0021252851 -3.0429225e-10 0)
(-0.0021178801 -1.9497748e-10 -2.3068023e-20)
(-0.0021058856 -2.3254014e-10 0)
)
;
    }
    back
    {
        type            empty;
    }
    front
    {
        type            empty;
    }
    inlet
    {
        type            calculated;
        value           uniform (0 0 0);
    }
    outlet
    {
        type            calculated;
        value           uniform (0 0 0);
    }
    top
    {
        type            calculated;
        value           uniform (0 0 0);
    }
    slipsurface
    {
        type            calculated;
        value           uniform (0 0 0);
    }
}


// ************************************************************************* //
